Title
81365
    1CHL1    C3    1   3.933   1.695  10.313  0.1887  0.1847 -0.1135
    1CHL1    H3    2   3.842   1.753  10.286  0.2099 -0.2424 -1.1871
    1CHL1    O3    3   3.955   1.670  10.449  0.1112  0.0055 -0.2795
    1CHL1   H3'    4   3.896   1.597  10.469 -1.6493  1.4953  0.2710
    1CHL1    C4    5   3.942   1.558  10.245  0.4299  0.1819  0.1402
    1CHL1   H4A    6   4.033   1.505  10.279  0.5484  1.1575  1.3981
    1CHL1   H4B    7   3.859   1.495  10.286  2.0913 -1.7960  0.6347
    1CHL1    C5    8   3.935   1.567  10.091 -0.8124  0.1354  0.1292
    1CHL1    C6    9   3.853   1.490  10.020 -0.4014 -0.2614  0.4711
    1CHL1    H6   10   3.788   1.420  10.073  0.7248 -0.7317  1.2771
    1CHL1    C7   11   3.841   1.501   9.871  0.3883 -0.0504 -0.2403
    1CHL1   H7A   12   3.828   1.403   9.821 -0.8818 -0.2065  0.3596
    1CHL1   H7B   13   3.750   1.563   9.856 -0.4093 -1.2932 -0.6843
    1CHL1    C8   14   3.962   1.561   9.800 -0.0251 -0.2870 -0.2655
    1CHL1    H8   15   4.047   1.490   9.804  0.6983  0.5534 -0.3005
    1CHL1   C14   16   3.926   1.591   9.656 -0.3367 -0.6820 -0.4249
    1CHL1   H14   17   3.843   1.666   9.655  1.1852  1.0838 -0.6843
    1CHL1   C15   18   3.874   1.485   9.566  0.3146  0.4316  1.0256
    1CHL1  H15A   19   3.933   1.393   9.581 -0.9068 -0.4587  0.5545
    1CHL1  H15B   20   3.769   1.459   9.593 -0.0366  0.5746 -0.1335
    1CHL1   C16   21   3.885   1.528   9.420 -0.5501  0.1210  0.9557
    1CHL1  H16A   22   3.931   1.450   9.356 -0.4306  0.9729 -0.0191
    1CHL1  H16B   23   3.785   1.554   9.378 -0.8255 -0.8182  1.0013
    1CHL1   C17   24   3.971   1.656   9.431 -0.5605 -0.6539 -0.6341
    1CHL1   H17   25   3.903   1.744   9.442  0.6749  0.1366  1.2618
    1CHL1   C13   26   4.041   1.653   9.577  0.7645 -0.4149 -0.8456
    1CHL1   C18   27   4.159   1.569   9.565 -0.1957  0.0622 -0.5394
    1CHL1  H18A   28   4.198   1.549   9.667 -0.7465  1.2981 -0.0598
    1CHL1  H18B   29   4.141   1.476   9.507  0.4585  0.1844 -0.9522
    1CHL1  H18C   30   4.240   1.625   9.513  0.0317  0.2905  0.0550
    1CHL1   C12   31   4.061   1.793   9.644  0.3451 -0.5944  0.2095
    1CHL1  H12A   32   4.139   1.837   9.579 -0.7478  0.5893 -0.3539
    1CHL1  H12B   33   3.964   1.847   9.632 -1.8245 -4.6940 -3.8476
    1CHL1   C11   34   4.104   1.776   9.790 -0.0326 -0.2046  0.4524
    1CHL1  H11A   35   4.201   1.723   9.784  0.3715  0.5204  0.4973
    1CHL1  H11B   36   4.130   1.872   9.840 -0.3422  0.0387  0.1490
    1CHL1    C9   37   4.004   1.690   9.875  0.4558 -0.1925 -0.4081
    1CHL1    H9   38   3.908   1.746   9.873 -0.2738 -1.2720  1.1840
    1CHL1   C10   39   4.034   1.667  10.027 -0.2647  0.4246 -1.0771
    1CHL1   C19   40   4.175   1.608  10.033 -0.5360  0.1064 -0.7531
    1CHL1  H19A   41   4.197   1.529   9.958 -1.1009 -0.6634 -0.1133
    1CHL1  H19B   42   4.252   1.687  10.018  0.8295 -1.4438 -2.3886
    1CHL1  H19C   43   4.206   1.556  10.126 -0.8562 -0.1951 -0.8106
    1CHL1    C1   44   4.028   1.797  10.105  0.4329 -0.1332  0.0676
    1CHL1   H1A   45   4.098   1.869  10.059 -0.0578 -1.9038 -3.7991
    1CHL1   H1B   46   3.924   1.836  10.107  0.6509  0.6955 -2.0409
    1CHL1    C2   47   4.047   1.783  10.255  0.3565  0.7493  0.2185
    1CHL1   H2A   48   4.032   1.883  10.301 -2.7888  0.2387  0.4714
    1CHL1   H2B   49   4.147   1.745  10.285 -1.1494 -4.0969 -0.0444
    1CHL1   C20   50   4.062   1.675   9.306  0.3895 -0.3194  0.6003
    1CHL1   H20   51   4.134   1.592   9.289  1.1724  0.6950 -1.3868
    1CHL1   C21   52   4.137   1.803   9.320 -0.3782 -0.1957 -0.1140
    1CHL1  H21A   53   4.217   1.788   9.396 -0.6731 -4.2054 -0.3760
    1CHL1  H21B   54   4.073   1.892   9.333 -0.9981 -0.5151 -0.8763
    1CHL1  H21C   55   4.198   1.826   9.230 -0.9300  0.8465 -0.2378
    1CHL1   C22   56   3.980   1.676   9.170 -1.3116  0.2074  0.2917
    1CHL1  H22A   57   4.045   1.702   9.084 -3.0106 -0.3974 -1.2251
    1CHL1  H22B   58   3.949   1.574   9.138  0.3192 -0.0709 -0.5011
    1CHL1   C23   59   3.859   1.769   9.160 -0.5155  0.6096  0.1556
    1CHL1  H23A   60   3.810   1.768   9.260 -2.0621  0.6113 -0.5680
    1CHL1  H23B   61   3.890   1.875   9.148  3.1245 -0.4913 -1.7736
    1CHL1   C24   62   3.757   1.723   9.054  0.3391 -0.8782  0.5798
    1CHL1  H24A   63   3.725   1.620   9.081 -1.0280  0.3370  4.0717
    1CHL1  H24B   64   3.672   1.794   9.064 -0.6349 -2.0383  0.6687
    1CHL1   C25   65   3.809   1.710   8.911 -1.0247 -0.5895 -0.1516
    1CHL1   H25   66   3.903   1.651   8.902 -1.1244 -0.4658 -2.7981
    1CHL1   C26   67   3.711   1.631   8.836  1.1753  0.1984  0.1794
    1CHL1  H26A   68   3.737   1.625   8.729  0.6963  2.2738 -0.1001
    1CHL1  H26B   69   3.707   1.528   8.876  0.3920 -0.4168 -1.4254
    1CHL1  H26C   70   3.611   1.678   8.843  1.1656  0.1858  0.1178
    1CHL1   C27   71   3.834   1.846   8.841  0.6614  0.1072  0.1926
    1CHL1  H27A   72   3.928   1.897   8.872 -1.1912  3.1128  1.2145
    1CHL1  H27B   73   3.834   1.828   8.731  0.3811  2.3684 -0.2181
    1CHL1  H27C   74   3.748   1.915   8.852 -0.9497 -1.4047 -2.0251
    2CHL1    C3   75   3.499   5.878  10.132  0.1852  1.0943 -0.4335
    2CHL1    H3   76   3.393   5.885  10.099  0.2378  0.4573 -0.7588
    2CHL1    O3   77   3.484   5.869  10.272  0.3784 -0.1032  0.0125
    2CHL1   H3'   78   3.570   5.885  10.311 -1.0916  0.2867  3.4812
    2CHL1    C4   79   3.569   5.752  10.068  0.2684  0.0445 -0.4035
    2CHL1   H4A   80   3.673   5.749  10.105 -0.0411  0.3885  0.5215
    2CHL1   H4B   81   3.519   5.666  10.118  0.9364 -0.0691  0.0775
    2CHL1    C5   82   3.575   5.764   9.916 -0.4208  0.0795 -1.1050
    2CHL1    C6   83   3.514   5.675   9.835 -1.2391  0.4253  0.2267
    2CHL1    H6   84   3.455   5.594   9.881 -1.2513  0.5959  0.5131
    2CHL1    C7   85   3.522   5.672   9.684 -0.2206 -0.5026  0.4022
    2CHL1   H7A   86   3.557   5.572   9.649  1.1625 -0.1012  0.5591
    2CHL1   H7B   87   3.419   5.697   9.652 -0.2069  1.0647  1.4821
    2CHL1    C8   88   3.619   5.787   9.631 -0.0460 -0.0576  0.4199
    2CHL1    H8   89   3.718   5.737   9.632 -0.3999 -0.8591 -1.3604
    2CHL1   C14   90   3.585   5.817   9.483 -0.5680  0.7583  0.0960
    2CHL1   H14   91   3.484   5.864   9.487 -1.6642 -1.1583 -2.4371
    2CHL1   C15   92   3.561   5.701   9.378  0.1171 -0.2727 -0.4742
    2CHL1  H15A   93   3.636   5.626   9.409  2.1800  1.9447  0.1790
    2CHL1  H15B   94   3.458   5.660   9.375 -0.3412  0.8855 -2.0409
    2CHL1   C16   95   3.594   5.773   9.249  0.0007  0.1416 -0.1447
    2CHL1  H16A   96   3.688   5.723   9.219  1.1151  2.2636 -0.3590
    2CHL1  H16B   97   3.520   5.757   9.167 -0.2718  1.7944 -0.2521
    2CHL1   C17   98   3.627   5.921   9.279 -0.7426  0.0275  0.5182
    2CHL1   H17   99   3.531   5.977   9.278  0.6811  2.7041 -1.8703
    2CHL1   C13  100   3.681   5.916   9.421 -0.4321  0.0045 -0.0109
    2CHL1   C18  101   3.836   5.861   9.425 -0.4202  0.2933  0.0077
    2CHL1  H18A  102   3.868   5.831   9.527 -0.9711  1.8796  0.6774
    2CHL1  H18B  103   3.864   5.786   9.348  1.0965  1.4670 -0.6098
    2CHL1  H18C  104   3.900   5.949   9.403 -1.8820  1.9941  2.0738
    2CHL1   C12  105   3.667   6.050   9.496 -0.1037  0.7932 -0.8571
    2CHL1  H12A  106   3.731   6.130   9.454 -0.4184  1.9542  0.7823
    2CHL1  H12B  107   3.562   6.085   9.491 -0.0485  0.7962 -2.1071
    2CHL1   C11  108   3.707   6.026   9.647  0.6079  0.2489  0.9671
    2CHL1  H11A  109   3.817   6.012   9.651  0.6089  0.5177  2.0664
    2CHL1  H11B  110   3.679   6.120   9.700  1.3926  0.6342  0.7155
    2CHL1    C9  111   3.615   5.913   9.715 -1.4978 -0.7842  0.1091
    2CHL1    H9  112   3.511   5.951   9.719 -0.3507  2.6462  2.1971
    2CHL1   C10  113   3.643   5.890   9.868 -0.2136 -0.4162 -0.3255
    2CHL1   C19  114   3.803   5.877   9.884  0.1314  0.9195 -0.0442
    2CHL1  H19A  115   3.831   5.850   9.988  1.1247 -1.2256 -0.8081
    2CHL1  H19B  116   3.835   5.787   9.827  0.9680  1.1456  0.0645
    2CHL1  H19C  117   3.851   5.974   9.861  0.6536  0.0240 -3.2726
    2CHL1    C1  118   3.595   6.020   9.943 -0.5599  0.4285  0.7955
    2CHL1   H1A  119   3.666   6.104   9.926 -0.6500  0.3121 -0.2036
    2CHL1   H1B  120   3.496   6.053   9.905 -0.2996  1.3650  0.9095
    2CHL1    C2  121   3.583   6.000  10.096  0.0726  0.1969 -0.2332
    2CHL1   H2A  122   3.532   6.086  10.146  0.3966  0.7618 -0.8598
    2CHL1   H2B  123   3.679   5.967  10.141 -0.5239  0.3276  1.2078
    2CHL1   C20  124   3.708   5.991   9.165  0.4455  0.2450  0.1317
    2CHL1   H20  125   3.812   5.952   9.164  0.0257 -0.9992  1.7704
    2CHL1   C21  126   3.690   6.149   9.182  0.0436  0.3718  0.1080
    2CHL1  H21A  127   3.757   6.188   9.262 -0.5803 -0.4245  1.0603
    2CHL1  H21B  128   3.583   6.177   9.194 -0.0448  0.3936 -0.7012
    2CHL1  H21C  129   3.706   6.198   9.084 -1.2548 -0.9388 -0.8091
    2CHL1   C22  130   3.671   5.950   9.023  0.4663 -0.0728  0.8944
    2CHL1  H22A  131   3.729   6.011   8.950  0.0790 -1.8323 -0.9671
    2CHL1  H22B  132   3.667   5.839   9.015 -0.0850 -0.0387  0.6459
    2CHL1   C23  133   3.530   5.982   8.981 -0.5641  0.1663 -0.2038
    2CHL1  H23A  134   3.459   5.911   9.029  2.0418 -1.6642  1.1533
    2CHL1  H23B  135   3.509   6.084   9.021  1.2898 -0.0774  1.5819
    2CHL1   C24  136   3.489   5.964   8.833 -0.2227  0.4359  0.3054
    2CHL1  H24A  137   3.539   6.036   8.766  1.1789 -2.1275 -1.5850
    2CHL1  H24B  138   3.520   5.863   8.798  0.0637  0.3938  0.6669
    2CHL1   C25  139   3.336   5.974   8.802  0.3586 -0.4057 -0.2127
    2CHL1   H25  140   3.278   5.904   8.866  2.0174 -1.8731 -0.2103
    2CHL1   C26  141   3.281   6.120   8.826  0.1434  0.1109  0.0228
    2CHL1  H26A  142   3.327   6.189   8.752  1.3574 -0.3543  0.3254
    2CHL1  H26B  143   3.172   6.136   8.812 -0.4753 -3.6181 -0.4589
    2CHL1  H26C  144   3.317   6.165   8.921  0.6178  0.3835 -0.2850
    2CHL1   C27  145   3.306   5.912   8.661 -0.3034  0.1144 -0.4596
    2CHL1  H27A  146   3.341   5.807   8.665 -0.1606  0.1623 -0.4534
    2CHL1  H27B  147   3.205   5.931   8.620 -1.2652 -1.8376  0.8499
    2CHL1  H27C  148   3.374   5.956   8.585 -1.2143  1.4067 -0.5595
    3CHL1    C3  149   6.547   0.920  10.566 -0.4493  0.2628  0.0015
    3CHL1    H3  150   6.653   0.886  10.571 -0.4878 -0.2443 -1.7985
    3CHL1    O3  151   6.503   0.911  10.697  0.3243  0.0158  0.5462
    3CHL1   H3'  152   6.533   0.993  10.736 -1.4777  0.8967  0.1768
    3CHL1    C4  153   6.532   1.058  10.512 -0.1818 -0.3953  0.7897
    3CHL1   H4A  154   6.429   1.096  10.530  0.2893  0.7687  1.1575
    3CHL1   H4B  155   6.602   1.130  10.561 -1.2553  0.3106  1.3208
    3CHL1    C5  156   6.544   1.058  10.356  0.6572  0.4631 -0.4315
    3CHL1    C6  157   6.619   1.144  10.286 -0.3003 -0.8019 -0.1475
    3CHL1    H6  158   6.671   1.225  10.340  0.6660  0.8817 -3.3682
    3CHL1    C7  159   6.623   1.156  10.140 -0.4370  0.1717  0.1790
    3CHL1   H7A  160   6.644   1.262  10.115 -0.6248 -0.1899 -1.6267
    3CHL1   H7B  161   6.714   1.103  10.104 -1.8363 -0.3164 -2.8931
    3CHL1    C8  162   6.507   1.090  10.071  1.1262 -0.3170  0.6376
    3CHL1    H8  163   6.412   1.146  10.086  1.2009 -0.2218  0.7595
    3CHL1   C14  164   6.534   1.097   9.916  0.4550  0.1987  0.1026
    3CHL1   H14  165   6.624   1.036   9.897 -0.1696 -0.9006  0.6104
    3CHL1   C15  166   6.559   1.224   9.849  0.3559  0.0066 -0.0497
    3CHL1  H15A  167   6.499   1.310   9.885  0.9019  0.2221  0.3637
    3CHL1  H15B  168   6.666   1.246   9.868  0.1580  1.6888 -0.7203
    3CHL1   C16  169   6.535   1.191   9.696  0.3112 -0.5098 -1.0071
    3CHL1  H16A  170   6.450   1.254   9.661  0.7670  0.8688  0.2489
    3CHL1  H16B  171   6.625   1.213   9.635  0.8183 -1.8953 -0.7843
    3CHL1   C17  172   6.478   1.046   9.693  0.2918 -0.0472  0.2828
    3CHL1   H17  173   6.560   0.973   9.672  0.3843  0.5548 -1.7300
    3CHL1   C13  174   6.424   1.021   9.837 -0.8235 -0.1205  0.4456
    3CHL1   C18  175   6.290   1.092   9.848 -0.2193  0.2893  1.1440
    3CHL1  H18A  176   6.283   1.174   9.773  0.3889 -1.5105 -0.9897
    3CHL1  H18B  177   6.217   1.011   9.825 -0.3613  0.7796 -0.2316
    3CHL1  H18C  178   6.261   1.137   9.945 -2.1691  1.9491 -0.1175
    3CHL1   C12  179   6.415   0.871   9.887  0.5779 -0.4391  0.5141
    3CHL1  H12A  180   6.331   0.819   9.835 -0.0962  2.6828 -1.8172
    3CHL1  H12B  181   6.509   0.815   9.870  0.7661  0.4092 -1.6345
    3CHL1   C11  182   6.383   0.871  10.035 -0.6541  0.5738  0.1756
    3CHL1  H11A  183   6.281   0.913  10.044 -0.4338  1.0335  0.5832
    3CHL1  H11B  184   6.371   0.768  10.074 -1.1221  0.8805  0.8706
    3CHL1    C9  185   6.479   0.947  10.124 -0.8627  0.0023 -0.0270
    3CHL1    H9  186   6.574   0.898  10.095 -1.0924 -0.9148  0.6811
    3CHL1   C10  187   6.459   0.951  10.280  0.2468 -0.0054 -0.2029
    3CHL1   C19  188   6.310   0.971  10.308  0.3813  0.4245  0.1177
    3CHL1  H19A  189   6.279   0.989  10.413  1.5340  1.1964  0.3443
    3CHL1  H19B  190   6.263   1.044  10.239 -0.3670 -0.9615 -0.8718
    3CHL1  H19C  191   6.262   0.878  10.272  1.1603  0.3385 -0.7495
    3CHL1    C1  192   6.502   0.817  10.336  0.6137  0.0331  0.9842
    3CHL1   H1A  193   6.452   0.729  10.289 -2.2574  2.3546 -0.6006
    3CHL1   H1B  194   6.611   0.806  10.319  1.0004  2.7319  1.3680
    3CHL1    C2  195   6.479   0.810  10.485 -0.2348 -0.2412  0.6427
    3CHL1   H2A  196   6.529   0.715  10.513 -1.3061 -1.4210 -1.2449
    3CHL1   H2B  197   6.372   0.796  10.513 -0.9006  2.7626 -0.0483
    3CHL1   C20  198   6.389   1.022   9.581  0.3190  0.2807  0.4631
    3CHL1   H20  199   6.295   1.079   9.588  0.0468 -0.2964  1.7051
    3CHL1   C21  200   6.338   0.885   9.578  0.6344  0.0542 -0.4646
    3CHL1  H21A  201   6.267   0.872   9.663  0.6416  0.7382 -0.3472
    3CHL1  H21B  202   6.418   0.811   9.598  1.1582  1.1390  1.8004
    3CHL1  H21C  203   6.294   0.852   9.481  0.7093  0.5695 -0.6768
    3CHL1   C22  204   6.455   1.053   9.441  0.0767 -0.5169 -0.0607
    3CHL1  H22A  205   6.375   1.023   9.370 -1.8618  0.5294  1.5699
    3CHL1  H22B  206   6.469   1.162   9.423 -1.2970 -0.3633 -0.3080
    3CHL1   C23  207   6.586   0.987   9.410 -1.3319 -0.0646 -0.2213
    3CHL1  H23A  208   6.659   1.004   9.492 -2.1043 -1.6167  0.8262
    3CHL1  H23B  209   6.568   0.877   9.409 -0.9022 -0.1589  0.8779
    3CHL1   C24  210   6.661   1.044   9.282  0.3498  0.2775  0.0192
    3CHL1  H24A  211   6.665   1.154   9.295  0.7403  0.6276 -2.5984
    3CHL1  H24B  212   6.764   1.003   9.279  0.0084 -0.6616  0.6979
    3CHL1   C25  213   6.586   1.020   9.153  0.4535 -0.0945 -0.3440
    3CHL1   H25  214   6.483   1.059   9.167  1.2284  0.9873  3.3938
    3CHL1   C26  215   6.660   1.098   9.048  0.2733 -0.0063  0.3995
    3CHL1  H26A  216   6.633   1.057   8.948 -0.2085  1.5121 -0.1296
    3CHL1  H26B  217   6.621   1.202   9.051 -0.3619 -0.2516  0.9699
    3CHL1  H26C  218   6.771   1.097   9.053  0.3560 -1.1134 -0.9320
    3CHL1   C27  219   6.576   0.871   9.124 -0.5199 -0.8039  0.8956
    3CHL1  H27A  220   6.674   0.818   9.117 -0.3483 -0.7595  2.4614
    3CHL1  H27B  221   6.501   0.826   9.193 -2.3239 -0.5777 -0.8576
    3CHL1  H27C  222   6.532   0.866   9.023  1.3439 -0.8725  0.0413
    4CHL1    C3  223   5.149   2.567  10.681 -0.3179 -0.2874  0.3663
    4CHL1    H3  224   5.042   2.598  10.675  0.1999  2.6745  3.5578
    4CHL1    O3  225   5.168   2.544  10.820  0.3220 -0.0498  0.3725
    4CHL1   H3'  226   5.168   2.448  10.831 -0.3329  0.0708  1.6167
    4CHL1    C4  227   5.183   2.444  10.600 -0.0129  0.0010  0.0960
    4CHL1   H4A  228   5.289   2.423  10.624 -0.4304  0.0828  2.1431
    4CHL1   H4B  229   5.116   2.365  10.641  0.3749  0.2079  1.1582
    4CHL1    C5  230   5.163   2.454  10.453  0.3005 -1.0648  0.1395
    4CHL1    C6  231   5.080   2.381  10.385  0.7100  0.4795  0.5525
    4CHL1    H6  232   5.038   2.292  10.435 -1.2173  1.5265  0.8904
    4CHL1    C7  233   5.042   2.385  10.242  0.1578 -0.5171  0.6641
    4CHL1   H7A  234   5.069   2.293  10.186  3.1525  0.1027  0.8740
    4CHL1   H7B  235   4.935   2.412  10.232  0.4226 -0.0331 -1.5260
    4CHL1    C8  236   5.128   2.493  10.171 -0.0884  0.3687 -0.3261
    4CHL1    H8  237   5.216   2.428  10.150 -0.0570 -0.0547  1.0170
    4CHL1   C14  238   5.063   2.539  10.041 -0.0107  0.0295 -0.4073
    4CHL1   H14  239   4.976   2.601  10.074  0.5867 -0.7573  3.0270
    4CHL1   C15  240   5.005   2.436   9.939 -0.0085 -0.3737  0.2031
    4CHL1  H15A  241   5.069   2.346   9.934  0.5206  0.0592 -1.7153
    4CHL1  H15B  242   4.904   2.401   9.968  0.2013 -0.4501  0.8570
    4CHL1   C16  243   5.005   2.502   9.801  0.4526  0.3554  1.0179
    4CHL1  H16A  244   5.049   2.439   9.720 -0.0442  1.9182 -0.5204
    4CHL1  H16B  245   4.897   2.515   9.780  0.4417 -2.7415 -1.8514
    4CHL1   C17  246   5.073   2.643   9.819  0.4673  0.2203 -0.2096
    4CHL1   H17  247   4.987   2.712   9.833 -1.0207 -1.5493 -0.2211
    4CHL1   C13  248   5.149   2.635   9.956 -0.3165  0.0895  0.4050
    4CHL1   C18  249   5.285   2.570   9.927  0.2397 -0.1984  0.3003
    4CHL1  H18A  250   5.344   2.546  10.018  1.0881  1.7043  0.3015
    4CHL1  H18B  251   5.269   2.477   9.869 -0.9780 -0.4117  0.9407
    4CHL1  H18C  252   5.350   2.639   9.869 -0.3509  0.3199  0.2399
    4CHL1   C12  253   5.162   2.768  10.040 -0.2430  0.4018  1.2763
    4CHL1  H12A  254   5.230   2.834   9.983 -1.4824 -0.2310 -1.0695
    4CHL1  H12B  255   5.067   2.826  10.042  0.6631  2.0685 -0.4684
    4CHL1   C11  256   5.227   2.742  10.174  0.0550  0.9600  0.1790
    4CHL1  H11A  257   5.328   2.704  10.145 -1.1783 -1.7387 -0.9459
    4CHL1  H11B  258   5.232   2.833  10.237 -2.9897  1.4353 -0.1073
    4CHL1    C9  259   5.160   2.622  10.254 -0.0586  0.0895 -0.3020
    4CHL1    H9  260   5.056   2.659  10.273  0.6694  1.2847  1.6465
    4CHL1   C10  261   5.222   2.583  10.393 -0.7233 -0.8821  0.1020
    4CHL1   C19  262   5.370   2.572  10.377 -0.2658  0.5957 -0.7664
    4CHL1  H19A  263   5.411   2.660  10.322 -1.9370  1.1812 -1.1341
    4CHL1  H19B  264   5.422   2.549  10.472 -3.8774 -3.0830  0.6078
    4CHL1  H19C  265   5.396   2.482  10.318 -0.7934 -0.8585  1.1407
    4CHL1    C1  266   5.203   2.715  10.485 -0.1417 -0.4290  0.3610
    4CHL1   H1A  267   5.266   2.801  10.453  1.3297 -0.7588  2.2253
    4CHL1   H1B  268   5.096   2.739  10.470 -0.3257 -2.3958 -2.0795
    4CHL1    C2  269   5.229   2.688  10.631 -0.0849  0.0414  0.3190
    4CHL1   H2A  270   5.192   2.781  10.680 -0.2041 -0.1355  0.5696
    4CHL1   H2B  271   5.335   2.665  10.657 -0.4600 -0.7358  1.2581
    4CHL1   C20  272   5.146   2.680   9.686 -0.0495  0.2714  0.8398
    4CHL1   H20  273   5.239   2.621   9.670 -1.1017 -0.7440 -2.2669
    4CHL1   C21  274   5.181   2.830   9.687  0.4906  0.5493 -0.9186
    4CHL1  H21A  275   5.093   2.895   9.704  0.7625  0.6117  0.3158
    4CHL1  H21B  276   5.234   2.856   9.592  0.3748  0.5846 -0.9738
    4CHL1  H21C  277   5.252   2.848   9.771  0.5991 -1.2148 -0.5831
    4CHL1   C22  278   5.063   2.652   9.549  0.0224  0.2384  0.1605
    4CHL1  H22A  279   5.036   2.546   9.527  2.7453 -0.5648  0.3603
    4CHL1  H22B  280   4.960   2.696   9.553 -0.3454 -0.5778 -0.2100
    4CHL1   C23  281   5.123   2.703   9.415  0.9475 -0.3672  0.1735
    4CHL1  H23A  282   5.126   2.814   9.415  0.2618 -0.3382  0.4389
    4CHL1  H23B  283   5.229   2.672   9.411  1.1597  0.3339  0.2757
    4CHL1   C24  284   5.037   2.662   9.294 -0.0818  0.0079  0.2088
    4CHL1  H24A  285   5.012   2.554   9.302  0.5593 -0.2675 -1.1098
    4CHL1  H24B  286   4.943   2.720   9.305  0.7136  1.5977 -0.9366
    4CHL1   C25  287   5.105   2.680   9.163  0.7365  0.9677  0.8344
    4CHL1   H25  288   5.205   2.633   9.158 -0.0483 -0.6723 -0.7570
    4CHL1   C26  289   5.029   2.627   9.040  0.4178 -0.1653 -0.0072
    4CHL1  H26A  290   5.080   2.639   8.943  2.6803  0.7379  1.2387
    4CHL1  H26B  291   5.000   2.521   9.056  2.5426 -0.5623  1.5432
    4CHL1  H26C  292   4.926   2.671   9.037  0.0396 -0.9694  0.7090
    4CHL1   C27  293   5.128   2.829   9.140  0.7106 -0.3442  0.6298
    4CHL1  H27A  294   5.033   2.886   9.132 -1.0034 -3.1149 -0.2679
    4CHL1  H27B  295   5.189   2.877   9.220 -0.8793  1.2024  0.9911
    4CHL1  H27C  296   5.188   2.845   9.049  2.9097 -2.1916  1.6589
    5CHL1    C3  297   5.905   0.863  10.399  0.1112  0.1601 -0.3863
    5CHL1    H3  298   5.980   0.799  10.346 -0.8209  0.0334 -1.5946
    5CHL1    O3  299   5.929   0.883  10.539 -0.4021  0.4094 -0.2162
    5CHL1   H3'  300   6.022   0.908  10.542 -0.2983  0.6419 -3.0873
    5CHL1    C4  301   5.922   0.997  10.332  0.1601 -0.0334  0.0146
    5CHL1   H4A  302   5.873   1.078  10.390  1.8602  1.0991 -0.0348
    5CHL1   H4B  303   6.031   1.017  10.341  0.4655 -1.9920  1.4353
    5CHL1    C5  304   5.869   1.013  10.189 -0.2899 -0.6014 -0.4652
    5CHL1    C6  305   5.938   1.081  10.099 -0.4479 -0.1572 -0.1591
    5CHL1    H6  306   6.032   1.132  10.125 -1.2682  1.5307 -0.4127
    5CHL1    C7  307   5.890   1.110   9.961 -0.3570  0.1667 -1.0086
    5CHL1   H7A  308   5.925   1.209   9.925 -0.3125  0.4459 -0.2025
    5CHL1   H7B  309   5.950   1.036   9.904  0.0891 -0.8430  0.7026
    5CHL1    C8  310   5.746   1.065   9.934 -0.0421  0.1771  0.1155
    5CHL1    H8  311   5.677   1.148   9.960 -1.1601 -1.6116  3.4047
    5CHL1   C14  312   5.727   1.030   9.787  0.9328 -0.4842  0.3094
    5CHL1   H14  313   5.790   0.943   9.760  1.0545 -0.1639 -0.4825
    5CHL1   C15  314   5.777   1.140   9.686 -0.3888 -1.2899 -0.3386
    5CHL1  H15A  315   5.742   1.239   9.724 -0.3411 -0.7478 -1.6472
    5CHL1  H15B  316   5.886   1.130   9.670 -0.1656 -0.7452  0.7826
    5CHL1   C16  317   5.702   1.098   9.551 -0.0729  0.4358  0.0815
    5CHL1  H16A  318   5.651   1.188   9.512 -2.0174  0.0019  1.4695
    5CHL1  H16B  319   5.779   1.065   9.478  0.5841  0.6370  0.6646
    5CHL1   C17  320   5.596   0.990   9.583 -0.2751 -1.0402  0.7724
    5CHL1   H17  321   5.653   0.896   9.569  2.5086  0.7235 -0.4359
    5CHL1   C13  322   5.581   0.992   9.740  0.1143 -0.4557 -0.5196
    5CHL1   C18  323   5.469   1.097   9.770 -0.7926  0.3186 -0.7911
    5CHL1  H18A  324   5.455   1.114   9.879 -0.6912  1.9433 -1.0104
    5CHL1  H18B  325   5.485   1.190   9.711 -0.5601  0.4033 -0.5976
    5CHL1  H18C  326   5.374   1.051   9.738 -1.2936  1.2707 -0.7165
    5CHL1   C12  327   5.551   0.861   9.811 -0.2149 -0.2756  0.2825
    5CHL1  H12A  328   5.449   0.830   9.780 -0.7056  0.3377  1.2316
    5CHL1  H12B  329   5.625   0.790   9.768 -2.0532 -0.4188 -2.9802
    5CHL1   C11  330   5.569   0.881   9.963  0.8304  0.0239 -0.5641
    5CHL1  H11A  331   5.477   0.921  10.012  1.2717 -2.8305  2.9823
    5CHL1  H11B  332   5.565   0.773   9.988 -1.6370  0.5609  1.8453
    5CHL1    C9  333   5.702   0.943  10.011  0.0159  0.2681 -0.0376
    5CHL1    H9  334   5.771   0.861   9.982 -0.8124 -1.6164  2.8997
    5CHL1   C10  335   5.728   0.955  10.165 -0.2447 -0.0127 -0.8112
    5CHL1   C19  336   5.619   1.047  10.219 -0.0824 -0.0954  0.0331
    5CHL1  H19A  337   5.626   1.143  10.163  2.9017 -0.4541 -0.3984
    5CHL1  H19B  338   5.516   1.007  10.220  0.6159 -1.9920  0.4315
    5CHL1  H19C  339   5.648   1.070  10.324  1.6967  0.3271 -0.5103
    5CHL1    C1  340   5.719   0.808  10.224  0.1206 -0.1026  0.2951
    5CHL1   H1A  341   5.613   0.777  10.212 -0.1237 -0.1773  2.2447
    5CHL1   H1B  342   5.784   0.752  10.154 -0.4259  0.3559 -0.5937
    5CHL1    C2  343   5.761   0.803  10.371  0.5434 -0.8684 -0.1334
    5CHL1   H2A  344   5.764   0.698  10.407 -0.5929 -0.7424  0.3447
    5CHL1   H2B  345   5.683   0.851  10.434  0.6893 -2.0881  1.0078
    5CHL1   C20  346   5.477   0.985   9.485  0.2608 -0.6419  0.2786
    5CHL1   H20  347   5.415   1.077   9.494  1.8017  0.2521  2.4505
    5CHL1   C21  348   5.394   0.862   9.515  0.0183 -0.9344 -0.4207
    5CHL1  H21A  349   5.322   0.847   9.431 -0.1337 -1.2891 -0.2317
    5CHL1  H21B  350   5.345   0.864   9.615  1.0003  0.0669  0.0584
    5CHL1  H21C  351   5.462   0.774   9.519 -0.9895 -1.8484 -2.0801
    5CHL1   C22  352   5.515   0.988   9.338 -0.5039  0.4422 -0.0481
    5CHL1  H22A  353   5.598   1.058   9.315  0.4633 -0.5349  0.3586
    5CHL1  H22B  354   5.557   0.891   9.304 -0.2980 -0.2966  2.1331
    5CHL1   C23  355   5.400   1.016   9.243  0.1104 -0.0398  0.4103
    5CHL1  H23A  356   5.323   0.936   9.251  1.1625 -1.1161  0.1212
    5CHL1  H23B  357   5.348   1.112   9.264 -1.1418 -0.7171  0.5383
    5CHL1   C24  358   5.447   1.029   9.096  0.1756 -0.2609 -0.2325
    5CHL1  H24A  359   5.536   1.094   9.086 -2.3348  3.3925 -0.8803
    5CHL1  H24B  360   5.471   0.925   9.065 -1.2943 -0.2245 -1.6151
    5CHL1   C25  361   5.329   1.079   9.007  0.5969  0.4590 -0.0539
    5CHL1   H25  362   5.237   1.044   9.058 -0.5467  2.0767 -0.9038
    5CHL1   C26  363   5.329   1.235   8.999 -0.7991  0.3842  0.4055
    5CHL1  H26A  364   5.423   1.274   8.953 -0.2811  0.9540  1.8917
    5CHL1  H26B  365   5.244   1.275   8.939 -3.0003 -2.2158  1.5835
    5CHL1  H26C  366   5.317   1.269   9.104 -1.3435  0.2966  0.3703
    5CHL1   C27  367   5.326   1.019   8.857  0.2558 -0.1348  0.6257
    5CHL1  H27A  368   5.419   1.036   8.798 -1.7770  1.4514 -2.3635
    5CHL1  H27B  369   5.292   0.914   8.860 -0.0695 -0.0180  1.0155
    5CHL1  H27C  370   5.246   1.074   8.803  1.3343  1.0719  0.2114
    6CHL1    C3  371   3.439   3.088  10.387 -0.0929 -0.8748  0.1625
    6CHL1    H3  372   3.499   3.000  10.357  0.0747 -0.8484  0.4191
    6CHL1    O3  373   3.444   3.104  10.529 -0.2242 -0.9982 -0.1279
    6CHL1   H3'  374   3.364   3.059  10.556 -2.1743  1.4740 -1.2867
    6CHL1    C4  375   3.490   3.213  10.315 -0.3063  0.1774  0.1642
    6CHL1   H4A  376   3.420   3.293  10.348 -1.6842 -1.7925  2.2651
    6CHL1   H4B  377   3.588   3.247  10.354  0.8850 -1.7867 -0.9471
    6CHL1    C5  378   3.489   3.184  10.166  0.2753  0.1087  0.1341
    6CHL1    C6  379   3.600   3.178  10.089 -0.6881  0.0561  0.4259
    6CHL1    H6  380   3.694   3.198  10.143  0.4959 -1.2592 -1.0769
    6CHL1    C7  381   3.606   3.147   9.942 -0.1517 -0.7450  0.1327
    6CHL1   H7A  382   3.687   3.204   9.891  1.2337  0.0240  3.0016
    6CHL1   H7B  383   3.639   3.043   9.920  1.6030 -0.7311  2.3608
    6CHL1    C8  384   3.468   3.168   9.876  0.2426  0.3254 -0.6307
    6CHL1    H8  385   3.446   3.276   9.866  0.7231  0.3633 -1.3591
    6CHL1   C14  386   3.467   3.095   9.741 -0.8941 -0.3454  0.2687
    6CHL1   H14  387   3.484   2.987   9.757 -0.7923 -0.5528 -1.1145
    6CHL1   C15  388   3.581   3.133   9.646 -0.7632 -0.1587  0.3105
    6CHL1  H15A  389   3.598   3.242   9.647  0.1724 -0.2927 -0.1184
    6CHL1  H15B  390   3.682   3.094   9.672  0.1516  1.5319 -0.5717
    6CHL1   C16  391   3.528   3.088   9.511  0.5847 -0.8053  0.9560
    6CHL1  H16A  392   3.542   3.176   9.444 -0.7093 -1.5092 -0.2894
    6CHL1  H16B  393   3.596   3.012   9.467  0.4026  0.3570 -1.5196
    6CHL1   C17  394   3.380   3.039   9.526  0.7353 -0.1414  0.3901
    6CHL1   H17  395   3.379   2.932   9.554 -1.4078  0.1018  1.4588
    6CHL1   C13  396   3.335   3.102   9.662  0.7926 -0.4158 -0.1792
    6CHL1   C18  397   3.298   3.250   9.630 -0.3583 -0.3676 -0.2266
    6CHL1  H18A  398   3.207   3.257   9.567  0.9716  0.3037 -2.1342
    6CHL1  H18B  399   3.273   3.309   9.721  1.6810  2.0176 -1.0884
    6CHL1  H18C  400   3.382   3.305   9.583 -0.1192  0.8422  1.4921
    6CHL1   C12  401   3.220   3.033   9.742 -1.0541 -0.3993 -0.1344
    6CHL1  H12A  402   3.117   3.042   9.702 -0.7173  0.4746 -0.8287
    6CHL1  H12B  403   3.251   2.926   9.744  0.0668 -0.1301 -1.3979
    6CHL1   C11  404   3.219   3.089   9.885  0.4953  0.5398 -0.3870
    6CHL1  H11A  405   3.198   3.196   9.865 -0.8355  0.3811  0.0611
    6CHL1  H11B  406   3.134   3.044   9.941 -0.0275  0.7481 -0.9946
    6CHL1    C9  407   3.358   3.096   9.956 -0.2886  0.4578 -0.7897
    6CHL1    H9  408   3.398   2.993   9.965 -1.3993  0.0782 -0.0817
    6CHL1   C10  409   3.349   3.139  10.109  0.4130 -0.1590 -0.2368
    6CHL1   C19  410   3.236   3.250  10.122 -0.2278  0.5278 -0.2883
    6CHL1  H19A  411   3.136   3.210  10.096  1.0149 -1.0425 -2.9794
    6CHL1  H19B  412   3.232   3.287  10.227  0.6158  1.8144 -0.6981
    6CHL1  H19C  413   3.264   3.335  10.057 -0.7959  2.3894  1.7790
    6CHL1    C1  414   3.309   3.019  10.193  0.4096 -0.3532 -0.0232
    6CHL1   H1A  415   3.204   2.989  10.174 -0.2725  1.2581  0.9464
    6CHL1   H1B  416   3.381   2.937  10.174  1.6839  0.2562  1.8570
    6CHL1    C2  417   3.299   3.045  10.344  0.3158  0.7288 -1.1353
    6CHL1   H2A  418   3.254   2.958  10.398  0.1081  2.7200  2.1993
    6CHL1   H2B  419   3.232   3.130  10.368 -2.0884 -1.6826  1.5489
    6CHL1   C20  420   3.299   3.061   9.399 -0.2456  0.0939  0.5680
    6CHL1   H20  421   3.297   3.170   9.377 -0.5459  0.2452  1.3427
    6CHL1   C21  422   3.153   3.003   9.426 -0.4732  0.0652  0.3640
    6CHL1  H21A  423   3.107   3.061   9.510  0.8258  1.6507  0.0333
    6CHL1  H21B  424   3.154   2.894   9.447  1.4571  0.2924  1.7129
    6CHL1  H21C  425   3.082   3.024   9.343 -0.3522 -0.4324  0.1327
    6CHL1   C22  426   3.366   2.984   9.282  0.5132  0.1082 -0.0357
    6CHL1  H22A  427   3.474   3.000   9.267  0.6471 -0.9460 -0.2886
    6CHL1  H22B  428   3.362   2.878   9.314 -0.2722  0.4915  1.2294
    6CHL1   C23  429   3.304   3.009   9.145  0.4162  0.2506  0.0927
    6CHL1  H23A  430   3.195   2.989   9.144  0.2297  1.1448  0.8935
    6CHL1  H23B  431   3.325   3.116   9.122  2.1186 -0.1641 -0.4288
    6CHL1   C24  432   3.374   2.928   9.039 -0.6865 -0.0814  0.6781
    6CHL1  H24A  433   3.478   2.965   9.030  0.1071 -2.1042  0.9719
    6CHL1  H24B  434   3.369   2.822   9.071 -0.0581 -0.6392 -0.9717
    6CHL1   C25  435   3.305   2.944   8.900 -0.0838 -0.5259  0.2279
    6CHL1   H25  436   3.302   3.052   8.873  2.4023 -0.6467 -0.7886
    6CHL1   C26  437   3.380   2.867   8.793  0.0248  0.0243 -1.0760
    6CHL1  H26A  438   3.409   2.767   8.831  0.9578  0.8843  0.5863
    6CHL1  H26B  439   3.331   2.865   8.693  1.6857  1.3599 -1.9748
    6CHL1  H26C  440   3.477   2.921   8.780 -0.7530  3.0387  3.2962
    6CHL1   C27  441   3.161   2.890   8.906 -0.4700  0.1856  0.2496
    6CHL1  H27A  442   3.090   2.955   8.961 -0.7706  1.3054 -1.3920
    6CHL1  H27B  443   3.112   2.863   8.810  1.6730 -1.8537 -0.3527
    6CHL1  H27C  444   3.168   2.792   8.957  1.2138 -0.1472 -0.5436
    7CHL1    C3  445   1.304   6.634  10.568 -1.2737 -0.2890  0.2037
    7CHL1    H3  446   1.320   6.740  10.539 -0.2871 -0.6925 -0.7780
    7CHL1    O3  447   1.316   6.610  10.711 -0.0160 -0.2435 -0.1866
    7CHL1   H3'  448   1.282   6.522  10.728 -1.6338  0.7258  2.0688
    7CHL1    C4  449   1.160   6.596  10.528 -0.1650  0.8011 -0.1666
    7CHL1   H4A  450   1.127   6.497  10.566 -0.5522  0.3131 -1.7067
    7CHL1   H4B  451   1.076   6.660  10.560 -1.0264 -1.4700  2.6439
    7CHL1    C5  452   1.145   6.583  10.379 -0.1447 -1.1499  0.3036
    7CHL1    C6  453   1.050   6.642  10.313 -0.3391 -0.4362 -0.1404
    7CHL1    H6  454   0.983   6.708  10.370 -1.3722 -0.7609 -0.9540
    7CHL1    C7  455   1.015   6.616  10.169 -0.2409 -0.0128 -0.2741
    7CHL1   H7A  456   0.906   6.591  10.173 -0.1949 -0.2596 -0.5727
    7CHL1   H7B  457   1.044   6.700  10.103 -1.0919 -0.2615 -0.9818
    7CHL1    C8  458   1.090   6.496  10.113  0.4030 -0.4945  0.4364
    7CHL1    H8  459   1.044   6.400  10.145  0.6534 -0.9421 -0.5192
    7CHL1   C14  460   1.075   6.494   9.959 -0.1018 -0.3811  0.2886
    7CHL1   H14  461   1.121   6.590   9.926 -4.0842  1.3463 -0.8642
    7CHL1   C15  462   0.931   6.492   9.896 -0.0455  0.1357  0.1067
    7CHL1  H15A  463   0.865   6.419   9.946  0.6650 -1.3087 -0.9733
    7CHL1  H15B  464   0.886   6.593   9.910  0.7308  0.3661  1.0574
    7CHL1   C16  465   0.957   6.444   9.745  0.4653  0.3116  0.4448
    7CHL1  H16A  466   0.902   6.349   9.730  0.3251  0.1957  1.6216
    7CHL1  H16B  467   0.941   6.516   9.661  2.1692  2.2001  1.6492
    7CHL1   C17  468   1.106   6.398   9.738 -0.2724  0.2837  0.8172
    7CHL1   H17  469   1.154   6.488   9.694 -0.1374  0.4047  1.2039
    7CHL1   C13  470   1.150   6.379   9.885  0.4506  0.9764  0.3971
    7CHL1   C18  471   1.084   6.241   9.925 -0.6798 -0.2533  0.0407
    7CHL1  H18A  472   1.088   6.224  10.035 -1.0088  0.3020  0.1457
    7CHL1  H18B  473   0.976   6.237   9.896 -0.4465 -1.2899 -0.7717
    7CHL1  H18C  474   1.135   6.161   9.867  0.7472 -0.7588  1.9191
    7CHL1   C12  475   1.296   6.387   9.930 -0.1299  0.4807  0.0236
    7CHL1  H12A  476   1.359   6.306   9.885 -2.2627 -0.8023 -0.8124
    7CHL1  H12B  477   1.324   6.487   9.891  1.1964  0.5817  1.1363
    7CHL1   C11  478   1.322   6.389  10.082  0.2874 -0.9456  0.1301
    7CHL1  H11A  479   1.298   6.287  10.118 -0.7041 -1.1866 -1.1713
    7CHL1  H11B  480   1.431   6.407  10.095 -0.0403  2.2514 -0.6865
    7CHL1    C9  481   1.236   6.500  10.152 -0.1397 -0.4536  0.6998
    7CHL1    H9  482   1.261   6.599  10.108 -1.0885 -0.4382  0.1842
    7CHL1   C10  483   1.247   6.494  10.307  0.1452 -0.6270 -0.0489
    7CHL1   C19  484   1.229   6.348  10.353  0.3139  0.4862  0.0897
    7CHL1  H19A  485   1.140   6.311  10.297  0.7570  3.3689 -2.8258
    7CHL1  H19B  486   1.299   6.271  10.316 -1.7838 -2.1984  1.3747
    7CHL1  H19C  487   1.210   6.345  10.462 -0.3397 -0.0390 -0.0322
    7CHL1    C1  488   1.389   6.538  10.347 -0.2947 -0.5427  0.3136
    7CHL1   H1A  489   1.474   6.486  10.297  0.1978  2.1279 -1.8118
    7CHL1   H1B  490   1.398   6.640  10.305  0.2221 -0.4487  0.6403
    7CHL1    C2  491   1.415   6.546  10.505  0.5947 -0.4290 -0.1613
    7CHL1   H2A  492   1.514   6.595  10.519  1.7136 -2.6103 -0.1068
    7CHL1   H2B  493   1.410   6.441  10.539 -1.8358 -1.1364 -2.3841
    7CHL1   C20  494   1.130   6.282   9.634  0.4948 -0.5366 -0.0372
    7CHL1   H20  495   1.102   6.180   9.669 -1.2352 -0.5511 -1.3772
    7CHL1   C21  496   1.284   6.286   9.608  0.7191  0.0680  0.4698
    7CHL1  H21A  497   1.329   6.258   9.706 -1.2310 -0.9765  1.1252
    7CHL1  H21B  498   1.317   6.387   9.575 -1.5003  0.7608  0.1901
    7CHL1  H21C  499   1.297   6.211   9.527  1.4961  2.4126 -1.7207
    7CHL1   C22  500   1.057   6.303   9.504  1.0313 -0.1277  0.4493
    7CHL1  H22A  501   0.947   6.303   9.522  1.2710  0.8834  2.1088
    7CHL1  H22B  502   1.076   6.408   9.472  0.7413 -0.3499 -0.4729
    7CHL1   C23  503   1.091   6.200   9.399  0.6189  0.5761  0.6844
    7CHL1  H23A  504   1.193   6.215   9.359  0.3551 -0.3820 -0.4014
    7CHL1  H23B  505   1.078   6.098   9.442  1.2195  0.1035 -0.2206
    7CHL1   C24  506   0.995   6.222   9.280  0.1737 -0.1716 -0.9091
    7CHL1  H24A  507   0.891   6.236   9.316  1.3903 -0.7300  3.3760
    7CHL1  H24B  508   1.010   6.325   9.241 -1.4159 -0.2377 -1.7693
    7CHL1   C25  509   1.019   6.124   9.164 -0.3368 -0.0865 -0.0674
    7CHL1   H25  510   1.023   6.023   9.210  0.3939 -1.1441 -2.3628
    7CHL1   C26  511   0.904   6.129   9.071 -0.0857  0.1972 -0.1591
    7CHL1  H26A  512   0.813   6.130   9.135 -0.6299  0.2570 -0.9264
    7CHL1  H26B  513   0.908   6.223   9.013 -0.1423 -0.2113 -0.8413
    7CHL1  H26C  514   0.895   6.044   9.000 -1.4789  0.9825 -0.9576
    7CHL1   C27  515   1.148   6.138   9.092 -0.6008  0.3736 -0.3462
    7CHL1  H27A  516   1.169   6.046   9.034  0.3427  0.4034 -0.0657
    7CHL1  H27B  517   1.145   6.231   9.030  0.6077  0.6698  0.0015
    7CHL1  H27C  518   1.234   6.146   9.162 -1.3366 -0.1161  0.6337
    8CHL1    C3  519   1.083   1.821  10.551 -0.3283  0.0977  0.4231
    8CHL1    H3  520   1.157   1.900  10.525  0.6465 -1.1069 -0.5779
    8CHL1    O3  521   1.087   1.798  10.693  0.8272 -0.2282  0.0948
    8CHL1   H3'  522   1.004   1.753  10.713  1.4555 -1.0419  0.9467
    8CHL1    C4  523   0.944   1.866  10.510  0.0355 -0.1075 -0.2055
    8CHL1   H4A  524   0.856   1.807  10.545  0.7017 -0.3079  1.1755
    8CHL1   H4B  525   0.923   1.960  10.565  0.4554 -0.2611  0.2242
    8CHL1    C5  526   0.925   1.887  10.360  0.6323  0.5423  0.7069
    8CHL1    C6  527   0.894   2.001  10.301 -0.6330  0.1915 -0.2183
    8CHL1    H6  528   0.869   2.097  10.348 -1.4683  0.9147 -2.0357
    8CHL1    C7  529   0.862   2.021  10.154 -0.2870 -0.2877 -0.3270
    8CHL1   H7A  530   0.761   2.062  10.137  0.2512  0.5222 -1.8058
    8CHL1   H7B  531   0.938   2.093  10.116  1.5004  0.4412  3.9994
    8CHL1    C8  532   0.865   1.884  10.077  0.2644  0.4320 -0.7130
    8CHL1    H8  533   0.765   1.839  10.099  0.2989  0.2406 -0.9338
    8CHL1   C14  534   0.884   1.911   9.931 -0.0649  0.1509 -0.6785
    8CHL1   H14  535   0.975   1.975   9.927 -0.1075  0.1643 -1.7058
    8CHL1   C15  536   0.784   2.007   9.865 -0.0517  0.1313  0.3584
    8CHL1  H15A  537   0.683   1.979   9.903  0.0407  2.2432  2.4025
    8CHL1  H15B  538   0.798   2.113   9.894 -0.7119  1.2160 -2.8184
    8CHL1   C16  539   0.815   1.978   9.720 -0.4344  0.4217  0.5474
    8CHL1  H16A  540   0.734   1.923   9.666  1.8273 -3.0706  0.3719
    8CHL1  H16B  541   0.839   2.071   9.665 -2.2278 -0.0903 -1.2385
    8CHL1   C17  542   0.930   1.871   9.712  0.5626  0.1113 -0.6194
    8CHL1   H17  543   1.029   1.918   9.729  0.4529 -0.2117  1.1185
    8CHL1   C13  544   0.909   1.787   9.842 -0.3564 -0.5728 -0.2639
    8CHL1   C18  545   0.770   1.704   9.838 -0.4923  0.2079  0.3411
    8CHL1  H18A  546   0.789   1.605   9.790  1.7931 -0.4043  2.2952
    8CHL1  H18B  547   0.745   1.663   9.939  1.8224 -1.5804  0.2742
    8CHL1  H18C  548   0.686   1.765   9.799  0.2696  2.1545  1.6085
    8CHL1   C12  549   1.024   1.703   9.886 -0.2180 -0.5038  0.2913
    8CHL1  H12A  550   1.036   1.612   9.823 -0.0488 -0.2061 -0.1046
    8CHL1  H12B  551   1.118   1.762   9.879 -0.9482  0.6838  0.3151
    8CHL1   C11  552   1.001   1.667  10.038 -0.6672  0.0864  1.2401
    8CHL1  H11A  553   0.914   1.599  10.042 -2.0960  1.4038 -2.9763
    8CHL1  H11B  554   1.084   1.599  10.068  0.8643  0.1101 -2.4094
    8CHL1    C9  555   0.982   1.791  10.132  0.3328 -0.0765  0.3805
    8CHL1    H9  556   1.080   1.842  10.123  1.1567 -1.8328 -1.5266
    8CHL1   C10  557   0.964   1.756  10.283  0.0654  0.4772  0.4020
    8CHL1   C19  558   0.845   1.648  10.296  0.1488 -0.1141  0.1064
    8CHL1  H19A  559   0.822   1.628  10.403  0.7998  0.1087  0.2914
    8CHL1  H19B  560   0.759   1.689  10.239  0.2899 -1.5899 -1.2157
    8CHL1  H19C  561   0.877   1.550  10.256 -1.3802 -0.5203 -0.1935
    8CHL1    C1  562   1.107   1.706  10.335 -0.4936  0.6458  0.3147
    8CHL1   H1A  563   1.133   1.611  10.284 -0.9895 -0.4810  2.0723
    8CHL1   H1B  564   1.179   1.786  10.309 -1.9702  2.3539  1.2909
    8CHL1    C2  565   1.109   1.685  10.480  0.3221 -0.0142 -0.9076
    8CHL1   H2A  566   1.209   1.647  10.512 -0.5947 -2.7587 -1.0601
    8CHL1   H2B  567   1.030   1.619  10.522  0.6596  0.0819 -0.0924
    8CHL1   C20  568   0.935   1.795   9.579 -0.5732 -0.0660  0.3389
    8CHL1   H20  569   0.854   1.719   9.571  1.1961 -1.9445 -1.0465
    8CHL1   C21  570   1.070   1.721   9.566 -0.2674  0.5782 -0.2499
    8CHL1  H21A  571   1.076   1.631   9.631  4.4060  1.7048  1.2366
    8CHL1  H21B  572   1.160   1.773   9.605 -0.1011  0.4295 -0.4294
    8CHL1  H21C  573   1.093   1.685   9.463  1.9792  2.4507 -0.4938
    8CHL1   C22  574   0.928   1.890   9.463  0.2514 -0.4069 -0.4979
    8CHL1  H22A  575   0.835   1.950   9.473 -0.5109 -1.6508  0.0385
    8CHL1  H22B  576   1.013   1.962   9.469 -0.9076  0.8808  1.9368
    8CHL1   C23  577   0.908   1.837   9.315  0.3208 -0.8912 -0.1975
    8CHL1  H23A  578   1.002   1.823   9.257  0.7632  4.0504 -1.0808
    8CHL1  H23B  579   0.835   1.754   9.304 -3.0571  1.6428  1.2609
    8CHL1   C24  580   0.849   1.955   9.229  0.5786  0.7673 -0.3059
    8CHL1  H24A  581   0.748   1.984   9.265  0.6693 -0.0105  0.5928
    8CHL1  H24B  582   0.904   2.047   9.258  0.0986  0.3497  2.1228
    8CHL1   C25  583   0.853   1.928   9.076 -0.0599 -0.3391 -0.2183
    8CHL1   H25  584   0.942   1.872   9.041  0.2404  0.7705 -1.3000
    8CHL1   C26  585   0.743   1.830   9.038 -0.3115  0.5552 -0.4255
    8CHL1  H26A  586   0.643   1.874   9.058 -1.2274 -2.3156  2.0074
    8CHL1  H26B  587   0.750   1.794   8.934 -0.8970 -3.5055  0.7741
    8CHL1  H26C  588   0.754   1.734   9.093 -0.5323  1.5593  1.4809
    8CHL1   C27  589   0.842   2.060   8.998  0.0402 -0.3890 -0.1270
    8CHL1  H27A  590   0.826   2.052   8.888 -1.3924  0.4215 -0.0062
    8CHL1  H27B  591   0.762   2.121   9.045  0.7661  0.2999  0.2259
    8CHL1  H27C  592   0.937   2.115   9.012  0.0874  0.2174 -2.4064
    9CHL1    C3  593   3.736   4.476  10.200  0.7942  0.1414 -0.0504
    9CHL1    H3  594   3.645   4.420  10.232  0.6389 -0.3076 -1.2249
    9CHL1    O3  595   3.790   4.538  10.316  0.0737  0.3070 -0.0981
    9CHL1   H3'  596   3.825   4.470  10.373  0.6624  2.7452  2.6752
    9CHL1    C4  597   3.841   4.375  10.141  0.4285  0.2178  0.0391
    9CHL1   H4A  598   3.935   4.435  10.130 -0.0879  1.0381  0.0249
    9CHL1   H4B  599   3.868   4.293  10.211 -0.1381 -0.1332 -0.1504
    9CHL1    C5  600   3.807   4.303  10.009 -0.6962 -0.2932  0.8090
    9CHL1    C6  601   3.804   4.167   9.997  0.8138 -0.1960 -0.2792
    9CHL1    H6  602   3.834   4.112  10.087 -0.4333  0.0466  0.2954
    9CHL1    C7  603   3.766   4.084   9.878 -0.2737 -0.3652 -0.1848
    9CHL1   H7A  604   3.830   3.994   9.874  1.5471  0.9038 -1.1157
    9CHL1   H7B  605   3.661   4.058   9.902  0.8704 -2.1834  3.8172
    9CHL1    C8  606   3.766   4.180   9.753 -0.1307 -0.2054  0.2237
    9CHL1    H8  607   3.874   4.196   9.735 -0.3027  2.3534  1.0859
    9CHL1   C14  608   3.703   4.112   9.634  0.1533  0.1669 -0.1274
    9CHL1   H14  609   3.595   4.097   9.655  0.3244 -3.2193 -1.0225
    9CHL1   C15  610   3.759   3.971   9.598 -0.7333 -0.2131 -0.8157
    9CHL1  H15A  611   3.869   3.977   9.588 -0.9286  2.5703 -2.4850
    9CHL1  H15B  612   3.724   3.899   9.674  1.6391 -0.2265  0.3538
    9CHL1   C16  613   3.711   3.944   9.452 -0.6221  0.1596 -0.1558
    9CHL1  H16A  614   3.796   3.907   9.391  0.1233  0.4597  0.6679
    9CHL1  H16B  615   3.634   3.866   9.464 -1.6240  1.4639  2.9725
    9CHL1   C17  616   3.650   4.081   9.398 -0.4411 -0.9373  0.2201
    9CHL1   H17  617   3.540   4.082   9.410 -0.4972 -0.8641 -0.3120
    9CHL1   C13  618   3.703   4.193   9.500 -0.3329 -0.3220  0.1288
    9CHL1   C18  619   3.854   4.218   9.466  0.3578  0.0631 -0.1562
    9CHL1  H18A  620   3.899   4.259   9.559 -0.1590 -1.4798  0.8214
    9CHL1  H18B  621   3.905   4.125   9.433  1.1591  0.1891  0.6677
    9CHL1  H18C  622   3.869   4.293   9.386 -1.3334  0.5080 -0.0877
    9CHL1   C12  623   3.622   4.310   9.521  0.6732  0.2916  0.1787
    9CHL1  H12A  624   3.618   4.377   9.433  1.3576 -0.2234 -0.2520
    9CHL1  H12B  625   3.518   4.282   9.547  0.0283  1.6965 -0.7768
    9CHL1   C11  626   3.678   4.390   9.641  0.0489 -0.9218  0.8072
    9CHL1  H11A  627   3.774   4.439   9.613  1.3019 -3.5070  0.2056
    9CHL1  H11B  628   3.603   4.468   9.666  0.5990  0.1417 -0.7088
    9CHL1    C9  629   3.693   4.309   9.779 -1.0420  0.7600  0.0932
    9CHL1    H9  630   3.588   4.284   9.804 -0.4779  0.0884  1.9174
    9CHL1   C10  631   3.756   4.392   9.893 -0.3968 -1.0379 -0.1823
    9CHL1   C19  632   3.883   4.477   9.847  0.3246  0.6134 -0.2264
    9CHL1  H19A  633   3.945   4.513   9.931 -1.1726  1.6258  0.5028
    9CHL1  H19B  634   3.945   4.412   9.782 -0.9461 -1.8802  0.9158
    9CHL1  H19C  635   3.854   4.564   9.783  1.6124 -0.7811 -2.8772
    9CHL1    C1  636   3.659   4.496   9.952  0.5809 -0.5879  0.6395
    9CHL1   H1A  637   3.638   4.569   9.871  1.2925 -0.7175  0.3312
    9CHL1   H1B  638   3.555   4.459   9.963 -1.1050  2.6346 -2.3141
    9CHL1    C2  639   3.695   4.568  10.082 -0.4227 -0.8074  0.0935
    9CHL1   H2A  640   3.605   4.623  10.117 -0.3567 -0.8607  0.3524
    9CHL1   H2B  641   3.786   4.630  10.070 -0.1902 -1.1938 -0.1423
    9CHL1   C20  642   3.679   4.103   9.253  0.9158 -0.2132 -0.1178
    9CHL1   H20  643   3.785   4.097   9.219  0.7211  0.5598 -0.8950
    9CHL1   C21  644   3.614   4.237   9.219  0.0107  0.2565  0.0088
    9CHL1  H21A  645   3.668   4.330   9.244  0.0880  0.3241 -0.3952
    9CHL1  H21B  646   3.518   4.241   9.275 -1.9155  2.9119 -3.1097
    9CHL1  H21C  647   3.598   4.247   9.109 -0.8679  0.8678  0.1872
    9CHL1   C22  648   3.599   3.995   9.169 -1.0047 -0.1743  0.1000
    9CHL1  H22A  649   3.623   3.897   9.215  0.5659  0.5909  1.0078
    9CHL1  H22B  650   3.491   4.017   9.184 -0.7876  0.9927  0.0849
    9CHL1   C23  651   3.643   3.993   9.021 -0.1348  0.0317 -0.8239
    9CHL1  H23A  652   3.592   4.082   8.979  0.4300  1.1201  0.7212
    9CHL1  H23B  653   3.754   4.004   9.018 -0.1388  0.1332 -0.6162
    9CHL1   C24  654   3.603   3.872   8.946  0.2974 -0.8127  0.3613
    9CHL1  H24A  655   3.672   3.790   8.975  1.6326 -0.0969 -0.6975
    9CHL1  H24B  656   3.498   3.843   8.969 -0.6167  0.9531 -1.3128
    9CHL1   C25  657   3.617   3.871   8.791 -0.0193 -0.2679 -0.2752
    9CHL1   H25  658   3.559   3.947   8.735 -1.0228 -0.8097 -0.0111
    9CHL1   C26  659   3.768   3.878   8.758  0.0624 -0.5567  0.2617
    9CHL1  H26A  660   3.796   3.864   8.652 -0.2365  0.9787 -0.0313
    9CHL1  H26B  661   3.801   3.982   8.780  0.1264 -0.8361  1.5824
    9CHL1  H26C  662   3.827   3.817   8.830 -1.7575 -0.3594  2.0218
    9CHL1   C27  663   3.562   3.735   8.745  0.7538  0.7392 -0.0724
    9CHL1  H27A  664   3.637   3.653   8.753 -1.1211 -0.8642  2.8026
    9CHL1  H27B  665   3.470   3.699   8.796  0.5113 -1.4468 -1.8835
    9CHL1  H27C  666   3.520   3.735   8.643 -3.4057 -0.8343  1.4099
   10CHL1    C3  667   3.330   1.024  10.337 -0.0601 -0.9281 -0.4364
   10CHL1    H3  668   3.436   1.039  10.308  0.3469 -1.1149  0.9010
   10CHL1    O3  669   3.311   1.062  10.473  0.6901 -0.2041  0.5331
   10CHL1   H3'  670   3.338   0.986  10.526  0.2142 -1.9736 -1.6096
   10CHL1    C4  671   3.226   1.097  10.255  0.1211 -0.3048  0.1149
   10CHL1   H4A  672   3.126   1.091  10.303  0.7370 -0.7224  1.3879
   10CHL1   H4B  673   3.248   1.206  10.259 -1.9434  0.3404 -2.8247
   10CHL1    C5  674   3.217   1.052  10.111  0.8024  0.6516 -0.1755
   10CHL1    C6  675   3.220   1.135  10.009 -0.7750  0.0849 -0.3290
   10CHL1    H6  676   3.246   1.239  10.033  1.2532 -0.5116  0.2270
   10CHL1    C7  677   3.197   1.088   9.867 -0.4119 -0.4339 -0.2772
   10CHL1   H7A  678   3.137   1.164   9.812 -0.1079 -1.6148 -2.3433
   10CHL1   H7B  679   3.295   1.087   9.814 -0.1979 -0.5251  0.1136
   10CHL1    C8  680   3.145   0.946   9.844 -0.7458 -0.2599 -0.2986
   10CHL1    H8  681   3.039   0.954   9.878 -0.2961 -1.0729  1.4055
   10CHL1   C14  682   3.158   0.898   9.695 -0.0660  0.0433 -0.1411
   10CHL1   H14  683   3.268   0.895   9.679  0.0082 -1.4046  0.4285
   10CHL1   C15  684   3.105   0.982   9.579 -0.1422 -0.9531  0.0791
   10CHL1  H15A  685   3.001   0.999   9.613  0.0083 -1.2184  0.6902
   10CHL1  H15B  686   3.168   1.071   9.559  0.1947 -1.2277 -0.1063
   10CHL1   C16  687   3.105   0.880   9.466 -0.3861 -0.2593  0.2874
   10CHL1  H16A  688   3.008   0.856   9.419 -1.5832 -0.3080  2.6325
   10CHL1  H16B  689   3.186   0.910   9.396 -0.1657 -0.1020  0.6031
   10CHL1   C17  690   3.144   0.737   9.528 -0.0724  0.5117 -0.0538
   10CHL1   H17  691   3.255   0.728   9.523 -0.1984 -1.1495 -0.2318
   10CHL1   C13  692   3.109   0.757   9.675 -0.0752  0.4343  0.1337
   10CHL1   C18  693   2.951   0.755   9.699 -0.0361 -0.0812 -0.1632
   10CHL1  H18A  694   2.901   0.804   9.613  0.8719 -0.8402 -1.1468
   10CHL1  H18B  695   2.905   0.654   9.696 -3.8058  1.3992  1.3699
   10CHL1  H18C  696   2.918   0.802   9.794  0.5265 -3.5731  1.9395
   10CHL1   C12  697   3.183   0.667   9.781 -0.0047  0.3233 -0.2803
   10CHL1  H12A  698   3.159   0.559   9.773  4.1113 -0.7858 -0.0109
   10CHL1  H12B  699   3.289   0.657   9.749  0.8919  1.0072  2.2227
   10CHL1   C11  700   3.173   0.707   9.923 -0.5997 -0.0104 -0.9039
   10CHL1  H11A  701   3.066   0.690   9.947 -0.0794 -1.1042  0.8440
   10CHL1  H11B  702   3.248   0.641   9.972  2.5011  2.7383 -1.6362
   10CHL1    C9  703   3.215   0.851   9.943  0.1255 -0.1761  0.4024
   10CHL1    H9  704   3.323   0.856   9.918  0.3748 -0.0836  1.4518
   10CHL1   C10  705   3.203   0.899  10.092 -0.2022 -0.1748 -0.1601
   10CHL1   C19  706   3.062   0.854  10.139  0.1578 -0.3069  0.2709
   10CHL1  H19A  707   2.981   0.880  10.068 -0.7741  2.1105  2.0678
   10CHL1  H19B  708   3.056   0.744  10.152  0.1830 -0.3498 -0.0608
   10CHL1  H19C  709   3.032   0.897  10.237 -1.5030 -0.1397 -0.2861
   10CHL1    C1  710   3.310   0.834  10.189  0.3284  0.2186  0.7172
   10CHL1   H1A  711   3.271   0.730  10.186  1.1247 -0.0733  0.2375
   10CHL1   H1B  712   3.411   0.841  10.143 -1.5085 -1.7440 -4.2739
   10CHL1    C2  713   3.303   0.879  10.331  0.2334  0.7739  0.1225
   10CHL1   H2A  714   3.386   0.834  10.389  1.5930  0.8630 -1.6536
   10CHL1   H2B  715   3.207   0.842  10.372  0.4583  0.6522  0.5457
   10CHL1   C20  716   3.076   0.622   9.458  0.0847  0.5433  0.3308
   10CHL1   H20  717   2.967   0.639   9.461 -0.1789 -1.0235  2.1007
   10CHL1   C21  718   3.098   0.484   9.519  0.0243  0.7065 -0.1408
   10CHL1  H21A  719   3.057   0.472   9.621  0.1957 -1.2947 -0.2684
   10CHL1  H21B  720   3.206   0.460   9.513 -0.1110  0.0378  0.0589
   10CHL1  H21C  721   3.047   0.408   9.456  0.7193 -1.9754  2.3559
   10CHL1   C22  722   3.114   0.606   9.305  0.0443 -0.5204  0.1870
   10CHL1  H22A  723   3.053   0.521   9.267 -0.6937  0.3560 -0.6616
   10CHL1  H22B  724   3.074   0.691   9.245 -0.5003 -0.5581  0.4889
   10CHL1   C23  725   3.266   0.605   9.266  0.6599 -0.3030  0.4544
   10CHL1  H23A  726   3.312   0.694   9.313  1.5689 -1.5852  2.1080
   10CHL1  H23B  727   3.310   0.515   9.314  0.1609 -0.2577  1.0085
   10CHL1   C24  728   3.288   0.615   9.113  0.6637 -0.5413  0.5236
   10CHL1  H24A  729   3.237   0.529   9.065  1.2862 -1.1169  0.8707
   10CHL1  H24B  730   3.239   0.707   9.075  0.6174 -0.6680  0.2727
   10CHL1   C25  731   3.435   0.636   9.062 -0.0898  0.5828 -0.5583
   10CHL1   H25  732   3.438   0.646   8.951  1.3177  0.1744 -0.5767
   10CHL1   C26  733   3.484   0.768   9.130  0.5829  0.1289 -0.5388
   10CHL1  H26A  734   3.576   0.797   9.076 -0.9317  2.9706 -1.8470
   10CHL1  H26B  735   3.425   0.861   9.113 -0.0668 -0.1203  0.2727
   10CHL1  H26C  736   3.503   0.757   9.239 -0.0199  0.2869 -0.4107
   10CHL1   C27  737   3.542   0.530   9.085  0.2566 -0.1793  0.0797
   10CHL1  H27A  738   3.566   0.505   9.190  1.6069  1.5254  0.2085
   10CHL1  H27B  739   3.502   0.436   9.040 -1.9935 -0.5666  2.6412
   10CHL1  H27C  740   3.643   0.556   9.048  0.0488  0.3102 -0.1536
   11CHL1    C3  741   4.970   5.479  10.031 -0.1981 -0.0251 -0.3987
   11CHL1    H3  742   5.031   5.572  10.032  0.4915 -0.3923 -2.5047
   11CHL1    O3  743   4.990   5.424  10.162 -0.2468 -0.3489  0.0706
   11CHL1   H3'  744   4.955   5.336  10.169  1.0814 -0.8454  1.0064
   11CHL1    C4  745   4.821   5.500  10.003  0.0606  0.1188 -0.2557
   11CHL1   H4A  746   4.756   5.415  10.035  0.6607 -0.4164 -0.4360
   11CHL1   H4B  747   4.805   5.584  10.075 -2.0160 -0.4570  0.0305
   11CHL1    C5  748   4.789   5.550   9.862 -0.4147 -0.1969  0.2616
   11CHL1    C6  749   4.713   5.658   9.834 -0.0093  0.3154 -0.4549
   11CHL1    H6  750   4.667   5.717   9.915 -0.4849 -1.9964  1.0716
   11CHL1    C7  751   4.689   5.695   9.691 -0.0675  0.1713  0.2330
   11CHL1   H7A  752   4.585   5.733   9.682 -0.1454 -0.0719  0.1054
   11CHL1   H7B  753   4.752   5.784   9.670 -1.3471  1.1947  0.5806
   11CHL1    C8  754   4.706   5.584   9.583 -0.8629  0.1079 -1.1804
   11CHL1    H8  755   4.631   5.506   9.609 -0.2295 -0.8099 -2.0283
   11CHL1   C14  756   4.691   5.622   9.435  0.3968 -0.1111 -0.4587
   11CHL1   H14  757   4.775   5.692   9.418 -0.5773  1.1070 -0.4551
   11CHL1   C15  758   4.563   5.703   9.397 -0.1294 -0.7833  0.4482
   11CHL1  H15A  759   4.475   5.647   9.436  0.3701 -1.2003  0.9957
   11CHL1  H15B  760   4.560   5.808   9.433  0.8149 -1.3212  2.2065
   11CHL1   C16  761   4.569   5.699   9.245  0.6780  0.2940  0.3620
   11CHL1  H16A  762   4.466   5.698   9.205  1.7907  1.0675 -2.7725
   11CHL1  H16B  763   4.614   5.793   9.206 -0.1030  0.0028 -1.3362
   11CHL1   C17  764   4.665   5.583   9.205  0.0066 -0.2867 -0.0984
   11CHL1   H17  765   4.764   5.634   9.199  1.9914 -2.9347  4.5055
   11CHL1   C13  766   4.701   5.505   9.336 -0.3118  0.2511  0.0308
   11CHL1   C18  767   4.590   5.395   9.357 -0.0195  0.2460 -0.5313
   11CHL1  H18A  768   4.492   5.443   9.334  0.0987 -0.0367 -1.6972
   11CHL1  H18B  769   4.603   5.305   9.293 -0.7382 -0.8080  0.7438
   11CHL1  H18C  770   4.599   5.355   9.460  2.3575 -1.0680 -1.1828
   11CHL1   C12  771   4.844   5.453   9.348 -0.4876 -0.2587  0.4321
   11CHL1  H12A  772   4.863   5.369   9.278 -2.2619  0.9777 -1.6455
   11CHL1  H12B  773   4.919   5.533   9.326  0.0964 -0.9509 -0.1233
   11CHL1   C11  774   4.874   5.408   9.495  0.1074  0.0271  0.3235
   11CHL1  H11A  775   4.808   5.320   9.506 -2.0189  1.3761 -0.8325
   11CHL1  H11B  776   4.980   5.376   9.503  0.7098  1.6339 -0.5370
   11CHL1    C9  777   4.846   5.514   9.608  0.0959 -0.0934 -1.2537
   11CHL1    H9  778   4.926   5.592   9.602 -0.2006  0.2385 -0.9529
   11CHL1   C10  779   4.854   5.459   9.755 -0.1006  0.8268 -0.3256
   11CHL1   C19  780   4.778   5.323   9.759  0.7664 -0.3032  0.2796
   11CHL1  H19A  781   4.824   5.257   9.681  1.4831  0.7924 -0.2559
   11CHL1  H19B  782   4.777   5.282   9.862 -0.0180  1.8992  1.1986
   11CHL1  H19C  783   4.671   5.340   9.736  1.1579  1.8594 -0.1071
   11CHL1    C1  784   5.003   5.438   9.793 -1.0646  0.2871 -0.4164
   11CHL1   H1A  785   5.039   5.360   9.724 -1.0889 -0.6462  0.6025
   11CHL1   H1B  786   5.060   5.533   9.784  2.2645 -1.6011 -0.7948
   11CHL1    C2  787   5.023   5.376   9.933 -0.0538  0.0917 -0.0953
   11CHL1   H2A  788   5.131   5.361   9.954  0.2456  2.9275  0.8382
   11CHL1   H2B  789   4.965   5.283   9.945 -0.9060  0.2527 -2.4666
   11CHL1   C20  790   4.632   5.521   9.076 -0.2981  0.3993  0.0199
   11CHL1   H20  791   4.681   5.421   9.076 -0.9569  0.0481 -1.3732
   11CHL1   C21  792   4.706   5.596   8.965  0.0112 -0.3820  0.3019
   11CHL1  H21A  793   4.697   5.549   8.865  0.0354 -0.7141  0.4519
   11CHL1  H21B  794   4.815   5.593   8.986  0.0570 -0.4557  0.0543
   11CHL1  H21C  795   4.661   5.697   8.956 -0.4745 -0.5962  0.2903
   11CHL1   C22  796   4.481   5.490   9.045 -0.9925 -0.2806 -0.6359
   11CHL1  H22A  797   4.437   5.437   9.132 -1.0146 -0.2512 -0.6285
   11CHL1  H22B  798   4.437   5.590   9.025 -0.9894 -0.2196 -0.3413
   11CHL1   C23  799   4.460   5.396   8.922 -0.5963 -0.0275  0.3240
   11CHL1  H23A  800   4.514   5.427   8.830  0.2408 -0.5929  0.6175
   11CHL1  H23B  801   4.513   5.305   8.957 -2.0180 -1.2255 -0.5669
   11CHL1   C24  802   4.329   5.336   8.896 -0.4011 -0.7771  0.6910
   11CHL1  H24A  803   4.294   5.283   8.987 -2.9240 -1.3231 -0.4971
   11CHL1  H24B  804   4.253   5.410   8.862 -0.5922 -1.1715  0.2424
   11CHL1   C25  805   4.321   5.233   8.777  0.7030 -0.6669 -0.2795
   11CHL1   H25  806   4.344   5.291   8.685  0.5324 -1.3669 -0.7714
   11CHL1   C26  807   4.420   5.116   8.787  0.6838  0.9449  0.3383
   11CHL1  H26A  808   4.392   5.047   8.704  1.7752  0.9281 -0.0293
   11CHL1  H26B  809   4.523   5.155   8.782  2.0829 -2.2735  1.2957
   11CHL1  H26C  810   4.414   5.058   8.882 -1.3448 -0.2525 -0.4521
   11CHL1   C27  811   4.178   5.172   8.788  0.0139 -0.4791  0.2295
   11CHL1  H27A  812   4.166   5.099   8.871  0.3285 -1.4247 -0.5427
   11CHL1  H27B  813   4.109   5.256   8.809  1.1971  0.0848  2.2112
   11CHL1  H27C  814   4.147   5.136   8.688  2.3285 -0.1661 -0.6560
   12CHL1    C3  815   1.048   2.577  10.381  0.4346 -0.3440  0.0531
   12CHL1    H3  816   1.157   2.590  10.369  0.3715 -0.7271 -1.0351
   12CHL1    O3  817   1.022   2.602  10.517  0.1040 -0.2329  0.0881
   12CHL1   H3'  818   0.929   2.588  10.538  0.0093 -0.5152 -0.4997
   12CHL1    C4  819   0.971   2.680  10.303  0.1175  0.5668  0.7408
   12CHL1   H4A  820   0.864   2.668  10.328  0.0137 -1.9552 -0.6071
   12CHL1   H4B  821   1.008   2.779  10.339  0.4887  0.2104  1.3452
   12CHL1    C5  822   0.995   2.667  10.157  0.1742 -0.0867 -0.4942
   12CHL1    C6  823   1.047   2.756  10.075 -0.3634 -0.2615 -0.4365
   12CHL1    H6  824   1.075   2.853  10.120  1.1982 -0.8476 -0.0661
   12CHL1    C7  825   1.069   2.740   9.922 -0.5758 -0.2697 -0.0857
   12CHL1   H7A  826   1.026   2.830   9.872  1.5325  0.0015 -1.5782
   12CHL1   H7B  827   1.177   2.727   9.902 -0.6402 -2.7509  0.7777
   12CHL1    C8  828   1.012   2.613   9.861  0.4686  0.0277  0.2643
   12CHL1    H8  829   0.904   2.632   9.840  0.1003  0.0183  2.0409
   12CHL1   C14  830   1.090   2.576   9.734  0.5220  0.4434  0.1077
   12CHL1   H14  831   1.195   2.559   9.768  0.3570  1.7802  1.4078
   12CHL1   C15  832   1.117   2.678   9.618  0.1109  0.3165  0.3358
   12CHL1  H15A  833   1.027   2.731   9.579 -0.8383 -1.2399  0.3232
   12CHL1  H15B  834   1.196   2.750   9.645 -0.7584  1.3080  0.3078
   12CHL1   C16  835   1.167   2.583   9.508 -0.1810 -0.1530  0.0379
   12CHL1  H16A  836   1.127   2.610   9.407 -0.7434  1.0304  0.5593
   12CHL1  H16B  837   1.276   2.602   9.501 -0.6086  3.6136  1.3068
   12CHL1   C17  838   1.147   2.436   9.554 -0.8551  0.2868  0.4370
   12CHL1   H17  839   1.243   2.401   9.598 -0.4741 -0.1375 -0.6934
   12CHL1   C13  840   1.047   2.446   9.670 -0.6516  1.0318 -0.0232
   12CHL1   C18  841   0.908   2.449   9.609  0.1168 -0.8457 -0.2076
   12CHL1  H18A  842   0.886   2.357   9.551 -1.0197 -0.4643 -0.4009
   12CHL1  H18B  843   0.833   2.458   9.690  0.6333  0.7939  0.1273
   12CHL1  H18C  844   0.903   2.545   9.552 -2.2800 -1.2374 -0.7677
   12CHL1   C12  845   1.057   2.327   9.773  0.9637  0.2869 -0.3310
   12CHL1  H12A  846   1.019   2.233   9.729  0.3723  0.0866  0.5751
   12CHL1  H12B  847   1.164   2.317   9.800  1.1811  0.0351 -1.2845
   12CHL1   C11  848   0.979   2.357   9.908  0.4792 -0.6494  0.4723
   12CHL1  H11A  849   0.873   2.359   9.876  0.8901  0.9118 -0.8787
   12CHL1  H11B  850   0.992   2.280   9.988 -1.8202 -1.4827  0.1151
   12CHL1    C9  851   1.013   2.496   9.964 -0.4126  0.5662 -1.0938
   12CHL1    H9  852   1.122   2.496   9.982 -0.7836  2.5396  1.8743
   12CHL1   C10  853   0.951   2.521  10.109  0.5015 -0.5353 -0.3596
   12CHL1   C19  854   0.799   2.513  10.103 -0.6516 -0.1404 -0.3200
   12CHL1  H19A  855   0.762   2.526   9.999 -1.3025  2.0451  0.1434
   12CHL1  H19B  856   0.761   2.418  10.146 -1.5271 -0.1844 -1.1452
   12CHL1  H19C  857   0.751   2.602  10.148 -2.3529  0.1648 -2.5515
   12CHL1    C1  858   0.998   2.405  10.205 -0.2243 -0.1404 -0.1088
   12CHL1   H1A  859   0.934   2.317  10.181  0.4909 -0.6145 -0.3318
   12CHL1   H1B  860   1.100   2.380  10.167  1.1674  0.7356  2.8101
   12CHL1    C2  861   1.001   2.434  10.354 -0.1555  0.0097 -0.0514
   12CHL1   H2A  862   1.056   2.361  10.417 -0.1653  0.8045  0.9054
   12CHL1   H2B  863   0.896   2.437  10.389  0.3872  0.8276  1.6162
   12CHL1   C20  864   1.124   2.341   9.429 -0.1157 -0.0401 -0.0339
   12CHL1   H20  865   1.027   2.370   9.384  0.3582  2.1322  0.2559
   12CHL1   C21  866   1.114   2.195   9.473  0.4838  0.0269  0.1774
   12CHL1  H21A  867   1.090   2.133   9.383 -2.6806 -1.0127  1.5666
   12CHL1  H21B  868   1.017   2.193   9.528 -1.8280 -1.7927 -3.4961
   12CHL1  H21C  869   1.199   2.170   9.540  1.5483  3.2299  0.1949
   12CHL1   C22  870   1.229   2.359   9.319  0.2021  0.0660  0.9304
   12CHL1  H22A  871   1.234   2.469   9.299 -0.5711 -0.1500 -0.6593
   12CHL1  H22B  872   1.332   2.342   9.358 -1.1307 -1.0293  4.2935
   12CHL1   C23  873   1.198   2.299   9.179 -0.6629  0.5618 -0.3250
   12CHL1  H23A  874   1.166   2.194   9.194  1.0232  0.0683 -0.0192
   12CHL1  H23B  875   1.120   2.366   9.136 -1.1723  0.2090  0.0403
   12CHL1   C24  876   1.316   2.303   9.082  0.1993  0.0596 -0.4207
   12CHL1  H24A  877   1.388   2.381   9.112  2.7240 -2.9719  2.0971
   12CHL1  H24B  878   1.367   2.206   9.101  1.1813  0.7139  0.4165
   12CHL1   C25  879   1.282   2.319   8.934  0.0702  0.2495  0.7204
   12CHL1   H25  880   1.220   2.409   8.913  2.0577  1.3095 -0.9786
   12CHL1   C26  881   1.400   2.344   8.848 -0.6060 -0.1056  0.9461
   12CHL1  H26A  882   1.359   2.375   8.749 -0.2606  1.3564  1.2400
   12CHL1  H26B  883   1.468   2.424   8.885 -0.1232  0.2229 -0.5751
   12CHL1  H26C  884   1.464   2.255   8.830 -0.0689  0.1741  1.4458
   12CHL1   C27  885   1.196   2.202   8.888 -0.6932  0.4273 -0.2476
   12CHL1  H27A  886   1.208   2.185   8.779  0.2080  0.0034 -0.0898
   12CHL1  H27B  887   1.226   2.105   8.933 -1.6364  0.0965 -0.3034
   12CHL1  H27C  888   1.089   2.222   8.913 -0.1866  1.8864  0.9587
   13CHL1    C3  889   6.527   3.626   9.832 -0.0225  0.6650 -0.3579
   13CHL1    H3  890   6.435   3.685   9.813  1.2674  2.6035 -0.9012
   13CHL1    O3  891   6.579   3.647   9.963  0.1045 -0.0627  0.4449
   13CHL1   H3'  892   6.672   3.626   9.968  0.1862  0.2851  5.3779
   13CHL1    C4  893   6.532   3.471   9.809 -0.6205 -0.3117  0.6378
   13CHL1   H4A  894   6.642   3.453   9.813 -0.5409  0.3044  1.4543
   13CHL1   H4B  895   6.492   3.411   9.893  0.0686 -0.8169  0.6210
   13CHL1    C5  896   6.477   3.440   9.672  0.0467  0.7414 -0.1760
   13CHL1    C6  897   6.376   3.358   9.672  0.4000 -0.2227 -0.3946
   13CHL1    H6  898   6.331   3.327   9.768 -2.6735  1.8792 -0.9833
   13CHL1    C7  899   6.304   3.313   9.547 -0.2894 -0.3498 -0.0664
   13CHL1   H7A  900   6.286   3.203   9.551  1.5786 -0.6771  3.4922
   13CHL1   H7B  901   6.200   3.351   9.551 -0.1228  0.0384  1.2336
   13CHL1    C8  902   6.382   3.350   9.420 -0.3801  0.0477 -0.2439
   13CHL1    H8  903   6.461   3.273   9.408 -0.5026  0.1103 -1.6761
   13CHL1   C14  904   6.297   3.344   9.294 -0.4406  0.2633 -0.0155
   13CHL1   H14  905   6.210   3.413   9.303 -0.2765  0.1638  3.4379
   13CHL1   C15  906   6.226   3.213   9.267  0.1810  1.2378 -0.3837
   13CHL1  H15A  907   6.286   3.123   9.291 -1.4186  0.1207 -0.4705
   13CHL1  H15B  908   6.131   3.190   9.319 -0.4729  0.9761 -1.6640
   13CHL1   C16  909   6.205   3.217   9.115 -0.2540  0.6950  0.5510
   13CHL1  H16A  910   6.246   3.122   9.074 -2.0706  0.2972 -0.4557
   13CHL1  H16B  911   6.098   3.210   9.085 -0.0554 -2.1273  0.1874
   13CHL1   C17  912   6.281   3.335   9.052  0.7050  0.8922 -0.7841
   13CHL1   H17  913   6.201   3.413   9.045 -0.3222 -0.1501 -0.9399
   13CHL1   C13  914   6.373   3.381   9.165 -0.4896 -0.2250 -0.6986
   13CHL1   C18  915   6.506   3.295   9.153 -0.0326  0.9068 -1.3311
   13CHL1  H18A  916   6.550   3.330   9.057  1.4993  0.6824 -0.7228
   13CHL1  H18B  917   6.580   3.309   9.234  1.6413 -1.4309 -2.3477
   13CHL1  H18C  918   6.488   3.185   9.150 -1.1223  0.8931  1.8659
   13CHL1   C12  919   6.391   3.528   9.174 -0.4668  0.0141  0.3648
   13CHL1  H12A  920   6.461   3.571   9.099  0.5483  1.5316  2.0667
   13CHL1  H12B  921   6.298   3.588   9.177  0.7066  1.9375  0.8720
   13CHL1   C11  922   6.471   3.566   9.302  0.2240 -0.1564  0.0284
   13CHL1  H11A  923   6.577   3.535   9.291  0.3096 -0.9539  2.4889
   13CHL1  H11B  924   6.470   3.677   9.309 -2.2278 -0.1915  1.7738
   13CHL1    C9  925   6.421   3.495   9.434 -0.5756 -0.3725 -0.1309
   13CHL1    H9  926   6.332   3.553   9.467  0.2649  0.0316  1.5574
   13CHL1   C10  927   6.532   3.514   9.550 -0.5357 -0.0538 -0.0008
   13CHL1   C19  928   6.673   3.449   9.511  0.1550 -0.1104 -0.3185
   13CHL1  H19A  929   6.744   3.440   9.595  0.6499  2.1368 -0.4250
   13CHL1  H19B  930   6.661   3.353   9.457  2.6686 -0.5095 -0.2602
   13CHL1  H19C  931   6.720   3.521   9.441 -1.3219  1.5000  0.2679
   13CHL1    C1  932   6.555   3.660   9.588 -0.0806 -0.5320  0.1045
   13CHL1   H1A  933   6.625   3.710   9.517 -0.7702  1.1760  0.5613
   13CHL1   H1B  934   6.459   3.717   9.584  0.1499 -0.1807 -0.6370
   13CHL1    C2  935   6.613   3.686   9.726 -0.1907  0.1115  0.5085
   13CHL1   H2A  936   6.604   3.796   9.740  0.3674  0.3140 -0.6359
   13CHL1   H2B  937   6.717   3.648   9.720 -0.5675 -0.7634 -0.8004
   13CHL1   C20  938   6.325   3.320   8.905  0.7865  0.6274  0.3018
   13CHL1   H20  939   6.406   3.244   8.902 -1.2597 -1.6634 -0.8301
   13CHL1   C21  940   6.396   3.446   8.850 -0.3629  0.0825 -0.4942
   13CHL1  H21A  941   6.442   3.426   8.751 -1.9264 -0.0391 -1.2248
   13CHL1  H21B  942   6.481   3.475   8.915  2.9285 -2.2052 -3.4136
   13CHL1  H21C  943   6.335   3.536   8.828  0.6436  0.5705 -1.3906
   13CHL1   C22  944   6.196   3.278   8.816 -0.3845  0.1582  0.1078
   13CHL1  H22A  945   6.147   3.185   8.849 -2.2594  0.0714 -2.5599
   13CHL1  H22B  946   6.125   3.363   8.823 -0.0110  0.3416  2.0738
   13CHL1   C23  947   6.222   3.267   8.658 -0.5717  0.5883  0.6865
   13CHL1  H23A  948   6.231   3.360   8.598  1.5337 -1.2738 -2.1912
   13CHL1  H23B  949   6.322   3.220   8.643  1.0556  2.3721  4.4889
   13CHL1   C24  950   6.114   3.172   8.598  0.3462  0.3005  1.0610
   13CHL1  H24A  951   6.125   3.081   8.661  0.8005 -0.1589  0.3338
   13CHL1  H24B  952   6.007   3.203   8.603 -0.2143 -1.4356  0.6473
   13CHL1   C25  953   6.142   3.122   8.450 -0.4828 -0.0538  0.3331
   13CHL1   H25  954   6.248   3.093   8.436 -1.0271 -2.1537  0.2069
   13CHL1   C26  955   6.071   2.998   8.404  0.3021  0.7131 -0.3065
   13CHL1  H26A  956   6.065   2.923   8.486 -1.8514  1.1610  0.0081
   13CHL1  H26B  957   5.968   3.035   8.383 -0.1257  2.6913  4.0122
   13CHL1  H26C  958   6.122   2.951   8.317  0.0571  1.4571 -0.8675
   13CHL1   C27  959   6.104   3.241   8.356  0.2584  0.4374  0.1518
   13CHL1  H27A  960   6.164   3.223   8.264 -0.5600 -1.0271 -0.1290
   13CHL1  H27B  961   5.996   3.236   8.332  0.4092 -2.7403 -0.3519
   13CHL1  H27C  962   6.137   3.338   8.398 -0.2648  1.4661 -1.7243
   14CHL1    C3  963   1.544   6.106  10.405  0.3879 -0.6711 -0.9295
   14CHL1    H3  964   1.476   6.193  10.412  2.7398  1.1410  2.1862
   14CHL1    O3  965   1.639   6.129  10.508  0.2417  0.2235  0.1383
   14CHL1   H3'  966   1.679   6.043  10.525 -0.2688 -0.3731 -1.4505
   14CHL1    C4  967   1.472   5.969  10.419  0.3238  0.1298  0.9165
   14CHL1   H4A  968   1.541   5.884  10.439 -0.9685 -1.1017  0.3436
   14CHL1   H4B  969   1.409   5.987  10.509 -4.7025 -1.7803 -1.8499
   14CHL1    C5  970   1.388   5.921  10.301 -0.1088  0.8720 -0.5720
   14CHL1    C6  971   1.265   5.889  10.316 -0.1621  0.2081  0.7645
   14CHL1    H6  972   1.214   5.887  10.413 -2.3875  1.0966 -0.3092
   14CHL1    C7  973   1.170   5.863  10.199 -0.2099  0.6361  0.0817
   14CHL1   H7A  974   1.107   5.773  10.218  0.0220  0.5915  0.6573
   14CHL1   H7B  975   1.100   5.949  10.190  1.3571  2.1448  1.6764
   14CHL1    C8  976   1.244   5.830  10.069  0.1401 -0.5958 -0.5239
   14CHL1    H8  977   1.284   5.727  10.083 -0.8571 -0.7838  1.2837
   14CHL1   C14  978   1.153   5.819   9.955  0.0366  0.3434  0.1258
   14CHL1   H14  979   1.119   5.925   9.953  2.1477  1.0599 -1.4851
   14CHL1   C15  980   1.027   5.732   9.968  0.9258  0.1550 -0.1474
   14CHL1  H15A  981   1.045   5.628  10.003  0.0394 -0.6300 -1.8696
   14CHL1  H15B  982   0.951   5.787  10.027  1.2620  0.7393 -0.2513
   14CHL1   C16  983   0.969   5.734   9.822 -0.6378  0.3687  0.1251
   14CHL1  H16A  984   0.939   5.630   9.797 -0.7613  0.2484  0.7625
   14CHL1  H16B  985   0.880   5.801   9.822 -1.2045 -0.3748 -0.0975
   14CHL1   C17  986   1.088   5.793   9.734 -0.3521  0.2337  0.2812
   14CHL1   H17  987   1.065   5.900   9.717  1.5134  0.7010  0.5160
   14CHL1   C13  988   1.214   5.784   9.818  0.7165  0.0315 -0.0307
   14CHL1   C18  989   1.263   5.645   9.816 -0.8841  0.2652 -0.7670
   14CHL1  H18A  990   1.185   5.566   9.807  0.0686 -0.7773 -0.1364
   14CHL1  H18B  991   1.337   5.613   9.740  0.5596 -2.1222  1.4889
   14CHL1  H18C  992   1.320   5.618   9.907 -1.2129 -1.2124 -0.9735
   14CHL1   C12  993   1.317   5.890   9.786  0.0232  0.1560  0.7115
   14CHL1  H12A  994   1.381   5.860   9.700  1.0028 -1.3991  1.9150
   14CHL1  H12B  995   1.265   5.985   9.762  0.5084  0.9195  2.5075
   14CHL1   C11  996   1.420   5.908   9.902 -0.4163  0.3420 -0.6713
   14CHL1  H11A  997   1.489   5.821   9.889 -0.2959  0.1386  1.0728
   14CHL1  H11B  998   1.474   6.002   9.876  0.8608 -0.9732 -3.2392
   14CHL1    C9  999   1.358   5.921  10.043  0.1508 -0.5222 -0.6656
   14CHL1    H9 1000   1.320   6.025  10.046 -0.0049 -0.5979  0.6675
   14CHL1   C10 1001   1.459   5.933  10.162 -0.7143 -0.1660  0.7280
   14CHL1   C19 1002   1.579   5.828  10.142 -0.0258  0.8796 -0.0959
   14CHL1  H19A 1003   1.653   5.825  10.225  0.9028  2.7839 -0.7896
   14CHL1  H19B 1004   1.538   5.725  10.136 -1.2017  1.3551 -0.4452
   14CHL1  H19C 1005   1.646   5.842  10.054 -1.0111 -1.9943 -1.4184
   14CHL1    C1 1006   1.528   6.073  10.157 -0.4962 -0.2073  0.5860
   14CHL1   H1A 1007   1.590   6.066  10.066  0.4920 -0.1691  1.2435
   14CHL1   H1B 1008   1.443   6.144  10.148 -0.3959 -0.0769  0.6566
   14CHL1    C2 1009   1.623   6.110  10.272  0.6577 -0.1013  0.1511
   14CHL1   H2A 1010   1.671   6.208  10.251  1.1675  0.3713  3.0838
   14CHL1   H2B 1011   1.708   6.039  10.279  0.8395  0.0902 -0.0944
   14CHL1   C20 1012   1.083   5.724   9.594 -0.6239 -0.4969  0.3150
   14CHL1   H20 1013   1.110   5.617   9.605  0.7132 -0.0988  1.1411
   14CHL1   C21 1014   1.177   5.793   9.498  0.1884 -0.9100  0.2403
   14CHL1  H21A 1015   1.148   5.890   9.453  0.7697 -0.8452  0.0016
   14CHL1  H21B 1016   1.201   5.721   9.417 -1.9495 -1.6948  0.2290
   14CHL1  H21C 1017   1.276   5.811   9.545 -0.0243 -0.2657  0.4501
   14CHL1   C22 1018   0.940   5.709   9.522 -0.2488  0.1725 -0.4401
   14CHL1  H22A 1019   0.955   5.636   9.439  0.6043  0.7111 -0.7771
   14CHL1  H22B 1020   0.860   5.663   9.584  0.0003  0.3137 -0.0092
   14CHL1   C23 1021   0.884   5.844   9.481  0.1204 -0.2380 -0.2387
   14CHL1  H23A 1022   0.899   5.926   9.554  0.8160  1.8942 -2.6334
   14CHL1  H23B 1023   0.934   5.888   9.392 -1.3725  1.5732 -0.2437
   14CHL1   C24 1024   0.739   5.827   9.443  0.0638 -0.9990 -0.4224
   14CHL1  H24A 1025   0.737   5.768   9.349  2.5799 -1.7106 -0.1025
   14CHL1  H24B 1026   0.676   5.780   9.522  0.4442 -0.9024 -0.0580
   14CHL1   C25 1027   0.668   5.961   9.399 -0.4561  0.2441 -0.2894
   14CHL1   H25 1028   0.719   5.993   9.306 -0.4299 -2.1327 -1.1391
   14CHL1   C26 1029   0.530   5.932   9.363  0.0861  0.5470  1.1397
   14CHL1  H26A 1030   0.534   5.876   9.267  0.8579  2.4159  0.0328
   14CHL1  H26B 1031   0.480   5.873   9.443 -2.0218  0.4642 -0.1619
   14CHL1  H26C 1032   0.481   6.030   9.347 -0.8254  0.2030  1.7007
   14CHL1   C27 1033   0.671   6.069   9.509 -1.2518  0.0422  0.0758
   14CHL1  H27A 1034   0.619   6.020   9.594 -2.3545  1.7603  0.4504
   14CHL1  H27B 1035   0.774   6.092   9.544 -1.2697 -2.2836  1.9193
   14CHL1  H27C 1036   0.611   6.157   9.476 -2.8536 -1.7303 -1.9867
   15CHL1    C3 1037   0.528   5.353  10.239 -0.1573 -1.0413 -0.4845
   15CHL1    H3 1038   0.472   5.449  10.248 -1.6399 -2.0072  1.3025
   15CHL1    O3 1039   0.576   5.306  10.365  0.2223 -0.1339  0.4998
   15CHL1   H3' 1040   0.502   5.269  10.414 -0.0413  1.0353  1.0180
   15CHL1    C4 1041   0.430   5.252  10.178 -0.0463 -0.7447  0.2663
   15CHL1   H4A 1042   0.476   5.151  10.165  0.5659 -0.4344 -0.0221
   15CHL1   H4B 1043   0.348   5.235  10.251 -2.8270  0.0392 -2.4630
   15CHL1    C5 1044   0.367   5.295  10.048 -0.5723 -0.5626 -0.1583
   15CHL1    C6 1045   0.240   5.291  10.012 -0.4714  0.6085 -0.6853
   15CHL1    H6 1046   0.170   5.249  10.086  1.3961 -0.4448  0.5574
   15CHL1    C7 1047   0.182   5.330   9.873 -0.1469  0.0374  0.1945
   15CHL1   H7A 1048   0.110   5.255   9.835 -0.0412  0.5339 -1.0131
   15CHL1   H7B 1049   0.123   5.425   9.878  0.5086  0.4069  1.2499
   15CHL1    C8 1050   0.291   5.332   9.762  0.7410  0.0910  0.0546
   15CHL1    H8 1051   0.310   5.224   9.744 -1.3382 -0.9432  3.1090
   15CHL1   C14 1052   0.235   5.389   9.631 -0.6791 -0.6152  0.0023
   15CHL1   H14 1053   0.224   5.497   9.652  1.1985 -0.8507  2.7336
   15CHL1   C15 1054   0.093   5.353   9.585  0.3389 -0.9115  0.1554
   15CHL1  H15A 1055   0.079   5.243   9.595  0.8253 -1.1167 -1.1362
   15CHL1  H15B 1056   0.003   5.406   9.622  0.4639 -1.2913  1.0356
   15CHL1   C16 1057   0.092   5.397   9.441  0.1590  0.2470  0.0847
   15CHL1  H16A 1058   0.060   5.307   9.383 -0.1733  0.6933 -0.4333
   15CHL1  H16B 1059   0.026   5.477   9.401  0.1721  0.5791  0.7237
   15CHL1   C17 1060   0.240   5.443   9.400 -0.1173  0.5046 -0.4978
   15CHL1   H17 1061   0.235   5.554   9.408 -0.7709  0.5769 -1.6487
   15CHL1   C13 1062   0.332   5.386   9.514  0.7847  0.6506  0.2679
   15CHL1   C18 1063   0.360   5.243   9.474  0.5086 -0.1121  0.0487
   15CHL1  H18A 1064   0.265   5.191   9.445  1.1937 -1.6157  0.3870
   15CHL1  H18B 1065   0.427   5.253   9.387  0.5360  1.9834  0.2586
   15CHL1  H18C 1066   0.409   5.179   9.550  1.5747  0.5073 -0.0981
   15CHL1   C12 1067   0.457   5.467   9.561 -0.1219  0.2098  1.1102
   15CHL1  H12A 1068   0.531   5.475   9.479 -0.8075  0.8576  0.5332
   15CHL1  H12B 1069   0.423   5.569   9.589  1.2767  0.8573  0.5170
   15CHL1   C11 1070   0.516   5.412   9.690 -0.5494 -0.0990  0.3496
   15CHL1  H11A 1071   0.560   5.310   9.680 -0.0220  0.0029  1.4772
   15CHL1  H11B 1072   0.602   5.479   9.710  0.0604  0.2000 -2.7458
   15CHL1    C9 1073   0.419   5.402   9.808  0.3994  0.0090 -0.0523
   15CHL1    H9 1074   0.385   5.502   9.843  0.5805  0.2844 -0.6320
   15CHL1   C10 1075   0.476   5.334   9.939 -0.7815  0.6728 -0.1712
   15CHL1   C19 1076   0.539   5.191   9.895 -0.3846 -0.2040  0.0049
   15CHL1  H19A 1077   0.572   5.135   9.985  0.3773  0.0182 -0.1259
   15CHL1  H19B 1078   0.474   5.138   9.823 -0.8662  0.4835 -0.0823
   15CHL1  H19C 1079   0.631   5.222   9.841 -0.2356  0.2777  0.5197
   15CHL1    C1 1080   0.595   5.422  10.006  0.2143  0.0573 -0.1589
   15CHL1   H1A 1081   0.679   5.445   9.938 -1.4965  0.3260 -2.3049
   15CHL1   H1B 1082   0.540   5.516  10.028  0.1128 -0.6252  2.8983
   15CHL1    C2 1083   0.647   5.367  10.143  0.4130 -0.5051 -0.5431
   15CHL1   H2A 1084   0.724   5.442  10.170 -0.6906  1.6986 -2.9706
   15CHL1   H2B 1085   0.697   5.268  10.138  1.4426 -0.0034 -0.4634
   15CHL1   C20 1086   0.277   5.416   9.256 -0.0234 -0.8738  0.8611
   15CHL1   H20 1087   0.307   5.312   9.231 -0.8516 -1.1570  1.0031
   15CHL1   C21 1088   0.395   5.517   9.216  0.7327 -0.2471  0.3642
   15CHL1  H21A 1089   0.424   5.508   9.109 -1.9359  2.8590 -0.8005
   15CHL1  H21B 1090   0.477   5.521   9.292  0.0277  0.7787  1.1028
   15CHL1  H21C 1091   0.353   5.620   9.211 -2.6660 -1.5522 -0.1992
   15CHL1   C22 1092   0.161   5.440   9.153 -0.8091  0.4281  0.7687
   15CHL1  H22A 1093   0.064   5.397   9.185 -1.2818  0.9810  0.0890
   15CHL1  H22B 1094   0.149   5.550   9.148  0.2711  0.6147  1.7946
   15CHL1   C23 1095   0.188   5.384   9.009 -0.1275  0.3308  0.5230
   15CHL1  H23A 1096   0.258   5.452   8.956 -2.1354  2.8239  0.8915
   15CHL1  H23B 1097   0.228   5.280   9.008  0.7009  0.6455  0.5902
   15CHL1   C24 1098   0.060   5.377   8.927  0.3684 -0.9690  0.0961
   15CHL1  H24A 1099   0.075   5.346   8.821 -2.6212 -2.8453  0.1156
   15CHL1  H24B 1100  -0.002   5.296   8.970  0.6585 -1.1676  0.1414
   15CHL1   C25 1101  -0.013   5.510   8.922  0.3333 -0.4765  0.8231
   15CHL1   H25 1102  -0.023   5.537   9.029 -2.2264 -1.8733  1.0344
   15CHL1   C26 1103   0.063   5.618   8.835 -0.4724  0.1487 -0.7542
   15CHL1  H26A 1104   0.169   5.627   8.866 -0.6502 -0.6624  0.1155
   15CHL1  H26B 1105   0.065   5.581   8.730  2.6498 -4.0405  0.5122
   15CHL1  H26C 1106   0.023   5.722   8.834 -3.8640 -1.0099 -1.4383
   15CHL1   C27 1107  -0.152   5.496   8.862  0.2652  0.0300 -0.1604
   15CHL1  H27A 1108  -0.189   5.599   8.845  2.0974  0.9656  1.1640
   15CHL1  H27B 1109  -0.154   5.435   8.769  0.0742  1.5199 -1.1638
   15CHL1  H27C 1110  -0.221   5.454   8.938  1.8224  0.0394  1.3211
   16CHL1    C3 1111   2.270   6.040  10.273  0.1494 -0.2000  0.2103
   16CHL1    H3 1112   2.340   5.985  10.207 -1.6198 -1.0269 -1.0509
   16CHL1    O3 1113   2.331   6.044  10.404  0.7049  0.1251  0.0004
   16CHL1   H3' 1114   2.275   6.105  10.454 -0.5380 -0.9411 -0.0255
   16CHL1    C4 1115   2.259   6.178  10.210  0.5425 -0.0326 -0.0422
   16CHL1   H4A 1116   2.201   6.247  10.274  1.6570 -0.3441  1.3534
   16CHL1   H4B 1117   2.361   6.222  10.204  0.3088  0.5933  0.5332
   16CHL1    C5 1118   2.195   6.184  10.074  0.2005  0.0338 -0.1638
   16CHL1    C6 1119   2.249   6.258   9.973  1.4140  1.1732  0.2062
   16CHL1    H6 1120   2.346   6.308   9.985  1.1111  1.6619  0.6512
   16CHL1    C7 1121   2.177   6.281   9.844  1.3734  0.0366  0.1642
   16CHL1   H7A 1122   2.169   6.387   9.813  3.2045 -0.1365 -1.0136
   16CHL1   H7B 1123   2.230   6.227   9.763 -2.1400 -1.7350 -1.1889
   16CHL1    C8 1124   2.031   6.231   9.848  0.3369  0.6511 -0.6065
   16CHL1    H8 1125   1.977   6.318   9.889  1.6666  0.2129  2.3173
   16CHL1   C14 1126   1.977   6.205   9.706 -0.2415 -0.2407 -1.2151
   16CHL1   H14 1127   2.027   6.114   9.666 -0.8486 -0.7486 -0.8452
   16CHL1   C15 1128   1.997   6.315   9.608 -0.2357 -0.6736 -0.2637
   16CHL1  H15A 1129   1.969   6.410   9.658 -2.3493 -0.6898 -1.3102
   16CHL1  H15B 1130   2.102   6.334   9.581  0.0652 -2.8150 -0.8393
   16CHL1   C16 1131   1.904   6.289   9.493 -0.2683 -0.2143 -0.0241
   16CHL1  H16A 1132   1.842   6.376   9.463  1.9692  1.1233 -0.9455
   16CHL1  H16B 1133   1.954   6.252   9.400 -1.0372  0.6738 -0.8109
   16CHL1   C17 1134   1.804   6.176   9.548 -0.4345 -0.0298  0.2833
   16CHL1   H17 1135   1.853   6.085   9.506 -1.8157 -0.0074 -1.4707
   16CHL1   C13 1136   1.825   6.168   9.697 -1.0261 -0.2915  0.6334
   16CHL1   C18 1137   1.740   6.280   9.774 -0.4924  0.1148  0.5679
   16CHL1  H18A 1138   1.633   6.252   9.773  0.2556 -3.3056 -1.6537
   16CHL1  H18B 1139   1.771   6.293   9.880  0.0164 -2.3946  0.7887
   16CHL1  H18C 1140   1.756   6.379   9.726  2.7554  0.2229  1.6056
   16CHL1   C12 1141   1.822   6.031   9.772  0.3443  0.6987  0.2510
   16CHL1  H12A 1142   1.725   5.976   9.768  0.7658 -0.1088  0.7939
   16CHL1  H12B 1143   1.890   5.953   9.731 -1.7046 -0.7502 -0.5593
   16CHL1   C11 1144   1.864   6.044   9.919 -0.0067 -0.0012 -0.7831
   16CHL1  H11A 1145   1.792   6.114   9.966  1.8808  1.8035 -0.4345
   16CHL1  H11B 1146   1.866   5.945   9.969 -0.2135  0.7433  0.7579
   16CHL1    C9 1147   2.007   6.100   9.931 -0.1530  0.0978  0.8151
   16CHL1    H9 1148   2.077   6.023   9.892 -1.0469 -0.9897  1.2965
   16CHL1   C10 1149   2.054   6.121  10.080 -0.0474 -0.3426  0.0476
   16CHL1   C19 1150   1.971   6.224  10.151  0.3396  0.0378 -1.2043
   16CHL1  H19A 1151   2.009   6.328  10.142  3.2036 -0.5599  1.8705
   16CHL1  H19B 1152   1.864   6.219  10.124 -0.0293  1.0826 -0.0233
   16CHL1  H19C 1153   1.980   6.199  10.259  0.5506 -1.5398 -1.5670
   16CHL1    C1 1154   2.061   5.981  10.147 -0.2132 -0.3739 -0.4710
   16CHL1   H1A 1155   1.955   5.947  10.158 -0.7863  1.5088  0.3791
   16CHL1   H1B 1156   2.102   5.918  10.066  1.3893  2.2166 -1.7946
   16CHL1    C2 1157   2.134   5.970  10.278  0.5616 -1.1349  0.0535
   16CHL1   H2A 1158   2.157   5.868  10.315  1.7335 -0.6223  0.8016
   16CHL1   H2B 1159   2.081   6.033  10.353  1.7429  2.1426 -1.6229
   16CHL1   C20 1160   1.657   6.179   9.498  0.0107  0.1010  0.0514
   16CHL1   H20 1161   1.608   6.262   9.553  1.0360  0.0810  1.0383
   16CHL1   C21 1162   1.575   6.051   9.543 -0.0770  0.0833 -1.0202
   16CHL1  H21A 1163   1.469   6.064   9.511 -0.5657  0.6145  0.7194
   16CHL1  H21B 1164   1.569   6.038   9.653 -2.6090  2.4339 -0.7735
   16CHL1  H21C 1165   1.614   5.961   9.490  0.8812 -0.4132  0.4676
   16CHL1   C22 1166   1.641   6.206   9.344  0.2897  1.0804 -0.4153
   16CHL1  H22A 1167   1.536   6.180   9.318  0.5658 -0.5861  0.0163
   16CHL1  H22B 1168   1.663   6.314   9.330 -0.2219  1.7109  2.7850
   16CHL1   C23 1169   1.725   6.122   9.245 -0.0576 -0.1823 -0.1801
   16CHL1  H23A 1170   1.834   6.127   9.268 -0.6160  0.9622  2.7188
   16CHL1  H23B 1171   1.695   6.016   9.254 -0.8687  0.1094  0.9143
   16CHL1   C24 1172   1.684   6.175   9.104  0.2608  0.3787  0.1039
   16CHL1  H24A 1173   1.586   6.134   9.073 -0.7824  1.6170  1.5780
   16CHL1  H24B 1174   1.666   6.283   9.120 -2.9320 -0.1929  1.0486
   16CHL1   C25 1175   1.786   6.146   8.992  0.1354  0.4276  0.1864
   16CHL1   H25 1176   1.728   6.159   8.898  1.8538 -1.1989 -1.1722
   16CHL1   C26 1177   1.890   6.252   8.994  0.8871  0.4307  0.2758
   16CHL1  H26A 1178   1.950   6.243   8.901  1.9299  0.6269  0.9091
   16CHL1  H26B 1179   1.850   6.355   9.001 -0.3505 -0.0762  0.9168
   16CHL1  H26C 1180   1.959   6.228   9.078 -0.6919 -0.1008  1.4603
   16CHL1   C27 1181   1.844   6.003   8.979  0.6072 -0.2447 -0.3156
   16CHL1  H27A 1182   1.906   6.007   8.887  0.2143  1.5514 -0.5408
   16CHL1  H27B 1183   1.899   5.973   9.070 -0.4046 -1.5082 -0.0897
   16CHL1  H27C 1184   1.762   5.929   8.965  0.6818 -0.1158 -1.6329
   17CHL1    C3 1185   3.432   1.587  10.509 -0.6947  0.2027 -0.2013
   17CHL1    H3 1186   3.540   1.561  10.501 -0.3998  1.4749 -0.6366
   17CHL1    O3 1187   3.389   1.585  10.645  0.6769 -0.3094 -0.2501
   17CHL1   H3' 1188   3.321   1.652  10.638 -0.8714 -1.5749  1.5370
   17CHL1    C4 1189   3.396   1.725  10.457 -0.2858  0.0906 -0.1438
   17CHL1   H4A 1190   3.289   1.746  10.480 -0.8452 -1.5136 -1.1007
   17CHL1   H4B 1191   3.461   1.786  10.523 -0.4437 -0.3382  0.4181
   17CHL1    C5 1192   3.427   1.747  10.310 -0.4223 -0.5152 -0.3325
   17CHL1    C6 1193   3.512   1.839  10.258 -0.4453  0.2535 -0.6869
   17CHL1    H6 1194   3.566   1.907  10.325 -2.7687  1.3401  0.1829
   17CHL1    C7 1195   3.546   1.854  10.114 -0.1574 -0.2716  0.2567
   17CHL1   H7A 1196   3.533   1.962  10.093 -0.7259 -0.3711  0.0731
   17CHL1   H7B 1197   3.646   1.823  10.077  0.0313  1.8528 -1.2347
   17CHL1    C8 1198   3.439   1.773  10.025  0.4700 -0.4671  0.0426
   17CHL1    H8 1199   3.344   1.829  10.038  0.7983  0.2967 -0.7808
   17CHL1   C14 1200   3.485   1.764   9.882 -0.0406 -0.6209  0.0581
   17CHL1   H14 1201   3.583   1.710   9.886  0.9958  1.2219  0.8239
   17CHL1   C15 1202   3.527   1.885   9.798 -0.2896 -0.2617 -0.5994
   17CHL1  H15A 1203   3.450   1.965   9.808 -0.8819 -0.9074  0.2079
   17CHL1  H15B 1204   3.629   1.923   9.817 -0.3439 -0.5226  0.2879
   17CHL1   C16 1205   3.523   1.845   9.652  0.1801  0.2817  0.3343
   17CHL1  H16A 1206   3.458   1.914   9.593  0.3697  1.7797  1.8030
   17CHL1  H16B 1207   3.628   1.843   9.616  0.5079 -2.2824  1.2422
   17CHL1   C17 1208   3.461   1.697   9.652  0.1803 -0.0622 -0.5262
   17CHL1   H17 1209   3.547   1.627   9.652 -1.7444 -2.5565  0.0108
   17CHL1   C13 1210   3.389   1.683   9.793 -0.4879  0.6536 -0.6969
   17CHL1   C18 1211   3.250   1.754   9.793 -0.4607 -0.0093 -0.2856
   17CHL1  H18A 1212   3.184   1.722   9.709  2.6559 -1.9065 -2.2575
   17CHL1  H18B 1213   3.196   1.750   9.890 -0.9395 -2.1439 -0.5713
   17CHL1  H18C 1214   3.281   1.860   9.782  2.1252 -0.7724 -1.2097
   17CHL1   C12 1215   3.379   1.542   9.843  0.2191  0.2594  0.0352
   17CHL1  H12A 1216   3.310   1.481   9.781 -0.3473  2.2347 -1.3910
   17CHL1  H12B 1217   3.482   1.501   9.837  0.8210  1.7551 -0.2776
   17CHL1   C11 1218   3.336   1.537   9.991  0.3993  0.0741 -0.3986
   17CHL1  H11A 1219   3.230   1.569   9.987  0.8626  1.6300 -0.6311
   17CHL1  H11B 1220   3.337   1.435  10.037 -0.1976 -0.2955 -1.1757
   17CHL1    C9 1221   3.416   1.637  10.083 -0.0085  0.3990 -0.4224
   17CHL1    H9 1222   3.518   1.593  10.096 -0.9579 -1.9018 -0.1582
   17CHL1   C10 1223   3.363   1.639  10.227  0.3748  0.7101 -0.5224
   17CHL1   C19 1224   3.210   1.664  10.232  0.4214  0.3899 -0.0208
   17CHL1  H19A 1225   3.199   1.756  10.170  0.8179  2.1462  2.3754
   17CHL1  H19B 1226   3.162   1.578  10.181 -1.0158  1.4162 -0.4768
   17CHL1  H19C 1227   3.163   1.658  10.332  1.8723 -0.7628  0.6315
   17CHL1    C1 1228   3.383   1.489  10.285 -0.3817  0.4547  1.4759
   17CHL1   H1A 1229   3.320   1.415  10.232 -0.6268  1.4619  0.3251
   17CHL1   H1B 1230   3.490   1.461  10.275 -0.8173 -0.5244 -1.1787
   17CHL1    C2 1231   3.359   1.476  10.432 -1.3050  0.3978 -0.9600
   17CHL1   H2A 1232   3.401   1.382  10.473 -0.1590  0.4095 -2.0410
   17CHL1   H2B 1233   3.251   1.492  10.455 -1.8895 -1.8631 -1.8415
   17CHL1   C20 1234   3.371   1.678   9.526 -0.7355  0.3751 -0.4360
   17CHL1   H20 1235   3.291   1.754   9.514  0.1510  1.3551 -0.2558
   17CHL1   C21 1236   3.309   1.530   9.521  0.3787  0.7011 -0.4430
   17CHL1  H21A 1237   3.223   1.526   9.591  0.3851 -0.5620 -0.4901
   17CHL1  H21B 1238   3.385   1.453   9.548  0.4965  0.6429 -0.9285
   17CHL1  H21C 1239   3.265   1.496   9.425  1.4412  0.0945 -0.7312
   17CHL1   C22 1240   3.451   1.699   9.399 -0.0069  0.1903 -0.6860
   17CHL1  H22A 1241   3.547   1.752   9.415  0.6972 -1.4612  1.0062
   17CHL1  H22B 1242   3.486   1.596   9.374  0.7991 -0.0437  1.1897
   17CHL1   C23 1243   3.355   1.763   9.298 -0.9018  0.9078  0.0972
   17CHL1  H23A 1244   3.261   1.705   9.290 -0.1191 -0.0848 -3.4462
   17CHL1  H23B 1245   3.309   1.852   9.346 -1.7831  0.4911  0.0348
   17CHL1   C24 1246   3.427   1.781   9.164  0.2179 -1.1616 -0.2792
   17CHL1  H24A 1247   3.502   1.861   9.178 -0.9769  0.5268 -2.7751
   17CHL1  H24B 1248   3.480   1.689   9.130  0.8284  0.1104 -3.0801
   17CHL1   C25 1249   3.322   1.818   9.051  0.6080  0.6425  0.1212
   17CHL1   H25 1250   3.241   1.882   9.094  0.5581  1.2440 -0.8222
   17CHL1   C26 1251   3.403   1.899   8.941  0.1497 -0.1021  0.3096
   17CHL1  H26A 1252   3.450   1.986   8.990 -1.2732 -0.2057  1.9760
   17CHL1  H26B 1253   3.466   1.828   8.883 -1.5051 -0.9059 -0.5846
   17CHL1  H26C 1254   3.329   1.941   8.869  1.5229  0.9728 -0.5239
   17CHL1   C27 1255   3.264   1.695   8.986  0.2116  0.2928 -0.1043
   17CHL1  H27A 1256   3.333   1.649   8.912 -0.7839 -0.2235 -0.7399
   17CHL1  H27B 1257   3.211   1.628   9.056 -1.0140  0.2341 -1.0438
   17CHL1  H27C 1258   3.183   1.723   8.914 -1.2566  3.4178  2.5308
   18CHL1    C3 1259   2.281   1.054  10.372 -0.4116  0.3068  0.7070
   18CHL1    H3 1260   2.381   1.032  10.330 -1.6180 -1.9690 -1.2050
   18CHL1    O3 1261   2.297   1.059  10.512 -0.2345 -0.1596  0.1795
   18CHL1   H3' 1262   2.213   1.077  10.554  0.0645  0.7051  0.4347
   18CHL1    C4 1263   2.224   1.184  10.310  0.0475 -0.8385  0.3214
   18CHL1   H4A 1264   2.120   1.202  10.345 -0.2206  2.3551 -1.7438
   18CHL1   H4B 1265   2.292   1.269  10.332 -3.1699  2.2208 -0.7347
   18CHL1    C5 1266   2.207   1.176  10.159 -0.4641  0.6754 -0.2152
   18CHL1    C6 1267   2.260   1.262  10.078 -0.5732  0.9969  0.0598
   18CHL1    H6 1268   2.330   1.334  10.123 -0.4183  1.6527 -1.2006
   18CHL1    C7 1269   2.253   1.263   9.927  0.5259 -0.0791 -0.3366
   18CHL1   H7A 1270   2.218   1.363   9.893 -0.4451  0.0766  1.0031
   18CHL1   H7B 1271   2.357   1.249   9.889  0.4323  0.8160 -0.9574
   18CHL1    C8 1272   2.161   1.160   9.863 -0.9616 -0.2724 -0.2330
   18CHL1    H8 1273   2.058   1.201   9.866 -0.8353  0.0069  1.4101
   18CHL1   C14 1274   2.209   1.124   9.724  0.4716  0.6128 -0.2508
   18CHL1   H14 1275   2.311   1.082   9.740 -0.2758 -2.2117 -2.1669
   18CHL1   C15 1276   2.210   1.241   9.629 -0.2491 -0.6320 -0.1599
   18CHL1  H15A 1277   2.127   1.305   9.664  0.0686 -0.0873 -0.3897
   18CHL1  H15B 1278   2.310   1.289   9.640 -0.3774 -0.3806 -0.0896
   18CHL1   C16 1279   2.196   1.174   9.493 -0.5317  0.5115  0.4708
   18CHL1  H16A 1280   2.098   1.215   9.461 -1.2839 -0.4947  1.3986
   18CHL1  H16B 1281   2.282   1.190   9.425  0.4950 -2.5831  0.8526
   18CHL1   C17 1282   2.178   1.020   9.517 -0.7670  0.3003  0.5871
   18CHL1   H17 1283   2.283   0.984   9.510 -1.0247 -0.3323 -0.3612
   18CHL1   C13 1284   2.120   1.011   9.658 -0.1690  0.3578 -0.6864
   18CHL1   C18 1285   1.974   1.052   9.662 -0.0208 -0.1775 -0.6906
   18CHL1  H18A 1286   1.934   1.076   9.763 -0.9541  0.9946 -1.2974
   18CHL1  H18B 1287   1.957   1.151   9.614 -0.9442  0.0949  0.1490
   18CHL1  H18C 1288   1.922   0.961   9.624  0.4354 -1.2660  1.2234
   18CHL1   C12 1289   2.140   0.885   9.740 -0.6516  0.1738 -0.1341
   18CHL1  H12A 1290   2.078   0.801   9.702 -0.6761  0.8887 -1.7786
   18CHL1  H12B 1291   2.248   0.862   9.726 -0.3497  0.5335  1.4006
   18CHL1   C11 1292   2.099   0.907   9.885  0.2805 -0.0726  0.3897
   18CHL1  H11A 1293   1.990   0.926   9.890  0.2892 -0.2372  1.6656
   18CHL1  H11B 1294   2.124   0.814   9.941  1.8148  0.0654  0.0008
   18CHL1    C9 1295   2.166   1.032   9.949 -0.2702 -0.1103 -0.3757
   18CHL1    H9 1296   2.274   1.006   9.950 -0.6179 -1.6728  0.6486
   18CHL1   C10 1297   2.130   1.048  10.102  0.4976 -0.4996 -0.2799
   18CHL1   C19 1298   1.974   1.071  10.111 -0.9556  0.8692 -0.2714
   18CHL1  H19A 1299   1.938   0.971  10.076  0.4540  0.3860 -0.4011
   18CHL1  H19B 1300   1.949   1.079  10.219  0.7198 -3.5589  0.6874
   18CHL1  H19C 1301   1.946   1.149  10.037 -0.9932  0.7071 -0.4281
   18CHL1    C1 1302   2.188   0.923  10.176 -0.4886  0.3777  0.2354
   18CHL1   H1A 1303   2.121   0.839  10.147 -1.3447  0.9793  0.4243
   18CHL1   H1B 1304   2.291   0.908  10.137  0.9433 -0.3105  3.9016
   18CHL1    C2 1305   2.194   0.929  10.332  0.3970 -0.1566 -0.1186
   18CHL1   H2A 1306   2.240   0.836  10.371 -2.5148 -0.8393  2.0214
   18CHL1   H2B 1307   2.087   0.948  10.352 -0.6624 -2.8775 -2.5581
   18CHL1   C20 1308   2.087   0.959   9.409 -0.3673 -0.8459  0.6180
   18CHL1   H20 1309   1.990   1.013   9.416 -0.2533  0.2274 -3.4554
   18CHL1   C21 1310   2.071   0.811   9.435 -0.3522  0.1246  0.1374
   18CHL1  H21A 1311   2.020   0.799   9.533  2.6547  1.4174  1.9845
   18CHL1  H21B 1312   2.171   0.764   9.438 -0.3272 -0.0994 -2.1131
   18CHL1  H21C 1313   2.010   0.767   9.353  0.4705  2.4424 -1.8318
   18CHL1   C22 1314   2.127   0.976   9.260  0.0104  0.2932 -0.0174
   18CHL1  H22A 1315   2.039   0.955   9.195 -0.5721  0.8328  0.5839
   18CHL1  H22B 1316   2.142   1.086   9.258  0.6455  0.2496  1.2134
   18CHL1   C23 1317   2.264   0.925   9.215 -0.3401 -0.1623 -0.3491
   18CHL1  H23A 1318   2.347   0.968   9.275  0.8730 -0.5466 -1.6913
   18CHL1  H23B 1319   2.271   0.817   9.236 -0.0286 -0.2797 -1.0113
   18CHL1   C24 1320   2.294   0.948   9.062  0.5340  0.1956  0.8880
   18CHL1  H24A 1321   2.315   1.055   9.044  1.0681 -0.3016 -1.8455
   18CHL1  H24B 1322   2.384   0.885   9.046 -0.8981 -2.0633  1.1797
   18CHL1   C25 1323   2.192   0.924   8.951  0.2311 -0.2696  0.0911
   18CHL1   H25 1324   2.109   0.997   8.965 -1.3209 -2.0806  0.7839
   18CHL1   C26 1325   2.264   0.938   8.817 -0.7860 -0.2593  0.8197
   18CHL1  H26A 1326   2.303   1.041   8.807  0.7643 -0.9043 -0.1458
   18CHL1  H26B 1327   2.349   0.868   8.803 -1.1909 -0.5497 -0.3209
   18CHL1  H26C 1328   2.186   0.922   8.739 -0.7112 -1.1601  0.9209
   18CHL1   C27 1329   2.130   0.785   8.963 -0.6307 -0.4338  0.2433
   18CHL1  H27A 1330   2.059   0.764   8.881  0.3743 -0.5676 -0.6168
   18CHL1  H27B 1331   2.207   0.706   8.979 -0.2017 -0.0470  0.1178
   18CHL1  H27C 1332   2.068   0.781   9.055 -0.5350 -1.1217  0.2801
   19CHL1    C3 1333   1.360   4.778  10.116  0.0847  0.2221 -0.0835
   19CHL1    H3 1334   1.433   4.695  10.118 -0.1446  0.0176 -0.1856
   19CHL1    O3 1335   1.310   4.821  10.245 -0.1381  0.1448 -0.2585
   19CHL1   H3' 1336   1.370   4.887  10.283 -1.2451  0.1455  1.5907
   19CHL1    C4 1337   1.417   4.908  10.042  0.3749 -0.2342  0.5772
   19CHL1   H4A 1338   1.341   4.990  10.048  2.0093  1.5644 -1.3981
   19CHL1   H4B 1339   1.511   4.927  10.097  0.3562 -1.3589  1.0069
   19CHL1    C5 1340   1.445   4.877   9.896  0.1358 -1.0249 -0.8189
   19CHL1    C6 1341   1.563   4.906   9.839 -0.7570 -0.4161 -0.2751
   19CHL1    H6 1342   1.647   4.939   9.903 -2.1732 -1.2861  2.1676
   19CHL1    C7 1343   1.598   4.894   9.691 -0.1019 -0.1547 -0.2345
   19CHL1   H7A 1344   1.637   4.996   9.670 -1.3603  0.8702  2.0413
   19CHL1   H7B 1345   1.671   4.811   9.678  0.2755 -0.5374  3.2662
   19CHL1    C8 1346   1.468   4.867   9.612 -0.7412 -0.1117 -0.1838
   19CHL1    H8 1347   1.425   4.969   9.605  1.0075  0.7784  1.3254
   19CHL1   C14 1348   1.506   4.823   9.466  0.3689  0.2966  0.2129
   19CHL1   H14 1349   1.566   4.730   9.469  0.3813  0.3258  0.8507
   19CHL1   C15 1350   1.599   4.923   9.394  0.8574 -0.2963  0.1333
   19CHL1  H15A 1351   1.565   5.028   9.410  0.0199 -0.6750  0.9684
   19CHL1  H15B 1352   1.705   4.921   9.426  1.6024  1.1412 -2.0436
   19CHL1   C16 1353   1.579   4.881   9.247  0.3499 -0.9610  0.3556
   19CHL1  H16A 1354   1.555   4.973   9.189 -1.8904 -2.3303 -1.0166
   19CHL1  H16B 1355   1.679   4.854   9.206  0.3964  0.9146 -0.9124
   19CHL1   C17 1356   1.455   4.781   9.238 -0.0647 -0.7892  1.0349
   19CHL1   H17 1357   1.487   4.675   9.232 -0.7351 -0.9075 -1.2141
   19CHL1   C13 1358   1.387   4.797   9.370  0.5022 -0.6422 -0.4142
   19CHL1   C18 1359   1.294   4.927   9.363  0.4002 -0.2615  0.1354
   19CHL1  H18A 1360   1.348   5.017   9.325 -1.2911  0.4892 -0.5684
   19CHL1  H18B 1361   1.209   4.911   9.295 -1.7092 -0.8366  2.7479
   19CHL1  H18C 1362   1.255   4.951   9.464  0.9129 -1.5226  0.6515
   19CHL1   C12 1363   1.322   4.669   9.439  0.1349 -0.1814  0.4719
   19CHL1  H12A 1364   1.239   4.637   9.373  1.8110 -1.0758 -1.3030
   19CHL1  H12B 1365   1.401   4.591   9.437  1.2096  0.8346  1.3623
   19CHL1   C11 1366   1.268   4.708   9.581  0.1515  0.8311  0.2272
   19CHL1  H11A 1367   1.182   4.775   9.563 -1.9488 -1.5480  0.7884
   19CHL1  H11B 1368   1.217   4.619   9.624 -0.0709  1.4439  1.2586
   19CHL1    C9 1369   1.370   4.769   9.678 -0.2493 -1.0676 -0.1255
   19CHL1    H9 1370   1.431   4.680   9.704 -0.6432 -1.4316 -0.4481
   19CHL1   C10 1371   1.324   4.820   9.816 -0.7064  0.1925 -0.3080
   19CHL1   C19 1372   1.233   4.943   9.803 -1.1012  0.2824  0.5535
   19CHL1  H19A 1373   1.178   4.960   9.898  0.2560 -1.4365  1.6864
   19CHL1  H19B 1374   1.297   5.028   9.773 -0.5847 -0.1403  0.4536
   19CHL1  H19C 1375   1.160   4.928   9.720  0.7615 -1.4716 -0.8704
   19CHL1    C1 1376   1.269   4.699   9.886 -0.7508  0.0873 -0.3174
   19CHL1   H1A 1377   1.180   4.661   9.832 -0.0603  1.7544 -2.8252
   19CHL1   H1B 1378   1.350   4.623   9.879 -1.3201 -0.6994  1.2926
   19CHL1    C2 1379   1.239   4.726  10.032  0.7823  0.0633  0.0515
   19CHL1   H2A 1380   1.199   4.628  10.065 -0.8665  0.4284 -0.7497
   19CHL1   H2B 1381   1.162   4.805  10.044 -0.4469 -1.2437  1.0658
   19CHL1   C20 1382   1.374   4.790   9.109 -0.1961 -0.1832  0.1459
   19CHL1   H20 1383   1.335   4.894   9.106  0.7321  0.2178  1.3276
   19CHL1   C21 1384   1.264   4.684   9.099 -0.2869 -0.1038  0.1767
   19CHL1  H21A 1385   1.189   4.701   9.019 -0.9373 -0.5312  0.6889
   19CHL1  H21B 1386   1.194   4.685   9.185 -2.9593  1.5299 -1.8464
   19CHL1  H21C 1387   1.303   4.580   9.098  0.7449  0.2406  1.3241
   19CHL1   C22 1388   1.455   4.774   8.981 -0.0751 -0.4557 -0.6380
   19CHL1  H22A 1389   1.558   4.807   9.009 -0.2691 -0.3797 -0.0099
   19CHL1  H22B 1390   1.467   4.664   8.969 -1.2013 -0.6533 -0.0030
   19CHL1   C23 1391   1.394   4.836   8.857  0.0270 -0.1613  0.1318
   19CHL1  H23A 1392   1.307   4.771   8.833  0.7369 -0.8336 -0.6904
   19CHL1  H23B 1393   1.350   4.933   8.888  0.6856  0.2888 -0.3321
   19CHL1   C24 1394   1.494   4.860   8.746  0.5343 -0.5413 -0.4948
   19CHL1  H24A 1395   1.436   4.918   8.671  1.6571 -1.1936 -1.9325
   19CHL1  H24B 1396   1.576   4.919   8.793 -0.7783 -2.0453  4.2713
   19CHL1   C25 1397   1.552   4.731   8.680  0.1986  0.6080  0.0732
   19CHL1   H25 1398   1.594   4.671   8.763  0.4672  1.6136  0.6734
   19CHL1   C26 1399   1.461   4.651   8.600  0.7032  0.2014 -0.2385
   19CHL1  H26A 1400   1.375   4.609   8.656  2.4390 -2.8338  0.3589
   19CHL1  H26B 1401   1.435   4.714   8.512 -0.9808  0.5190  0.4485
   19CHL1  H26C 1402   1.507   4.559   8.559 -2.4323 -2.1684  1.1509
   19CHL1   C27 1403   1.674   4.784   8.603 -0.2045  0.1490 -0.6607
   19CHL1  H27A 1404   1.738   4.703   8.560 -0.4416 -1.5965  2.0470
   19CHL1  H27B 1405   1.652   4.860   8.526  1.9147  0.6328 -0.8471
   19CHL1  H27C 1406   1.750   4.834   8.668  1.3174 -0.7366 -1.6867
   20CHL1    C3 1407   2.234   4.767  10.460  0.4163  0.0876  0.5951
   20CHL1    H3 1408   2.211   4.659  10.449  0.2116  0.1941 -0.0887
   20CHL1    O3 1409   2.236   4.803  10.594  0.3096 -0.2163 -0.1595
   20CHL1   H3' 1410   2.146   4.796  10.628 -0.3038  0.5292 -1.5745
   20CHL1    C4 1411   2.376   4.792  10.399 -0.1219 -0.1251  0.0626
   20CHL1   H4A 1412   2.401   4.898  10.419  0.7509 -0.3831  0.3829
   20CHL1   H4B 1413   2.450   4.729  10.453  0.5931 -1.0753 -1.9320
   20CHL1    C5 1414   2.383   4.773  10.249  0.1943 -0.0739  0.7601
   20CHL1    C6 1415   2.480   4.698  10.193  0.3073 -0.2904 -0.6891
   20CHL1    H6 1416   2.549   4.650  10.263  0.9356  0.7680 -0.5656
   20CHL1    C7 1417   2.495   4.668  10.048 -0.0756  0.1406 -0.5671
   20CHL1   H7A 1418   2.597   4.691  10.010  0.8634  0.0179  1.7276
   20CHL1   H7B 1419   2.487   4.558  10.035  2.2048 -0.3924  1.7573
   20CHL1    C8 1420   2.399   4.750   9.956  0.4891 -0.0257  0.1298
   20CHL1    H8 1421   2.434   4.854   9.939  1.2014 -0.4107 -0.8392
   20CHL1   C14 1422   2.388   4.679   9.824 -0.1939  0.6018 -0.4503
   20CHL1   H14 1423   2.356   4.576   9.848  0.7297  0.5508  0.6212
   20CHL1   C15 1424   2.522   4.660   9.747  0.3401  0.1872  0.6167
   20CHL1  H15A 1425   2.579   4.752   9.773  1.9806 -0.9478  1.2294
   20CHL1  H15B 1426   2.574   4.575   9.796  0.2136 -1.5420 -2.0819
   20CHL1   C16 1427   2.471   4.636   9.601 -0.1992  0.3580  0.1982
   20CHL1  H16A 1428   2.493   4.719   9.531 -0.1608  0.2337  0.0624
   20CHL1  H16B 1429   2.509   4.541   9.557  0.5461  0.7825 -0.0744
   20CHL1   C17 1430   2.314   4.653   9.604  0.1502  0.1903  0.6492
   20CHL1   H17 1431   2.273   4.554   9.634  0.4815 -0.8152 -1.9536
   20CHL1   C13 1432   2.282   4.739   9.731  0.6673  0.5046  0.0314
   20CHL1   C18 1433   2.318   4.889   9.695  0.3667  0.2342 -0.5252
   20CHL1  H18A 1434   2.255   4.932   9.614  0.3996 -0.1239 -0.7425
   20CHL1  H18B 1435   2.302   4.951   9.786  1.1310 -1.6840  0.9666
   20CHL1  H18C 1436   2.427   4.891   9.674  0.2154  0.3838 -1.3122
   20CHL1   C12 1437   2.145   4.730   9.804  0.8322 -0.6008 -0.6807
   20CHL1  H12A 1438   2.066   4.774   9.740  0.5731 -0.4493 -0.2609
   20CHL1  H12B 1439   2.117   4.623   9.817 -0.4963 -0.4670 -2.1095
   20CHL1   C11 1440   2.143   4.801   9.939 -0.4679 -0.2758 -0.0407
   20CHL1  H11A 1441   2.149   4.911   9.927 -1.2287 -0.2920 -0.7174
   20CHL1  H11B 1442   2.044   4.780   9.985 -0.4054 -0.1552  0.1458
   20CHL1    C9 1443   2.263   4.757  10.026  0.1131  0.6314 -0.0718
   20CHL1    H9 1444   2.241   4.653  10.059  0.2263  1.3334  2.4081
   20CHL1   C10 1445   2.271   4.831  10.164  0.2379 -0.2714 -0.3451
   20CHL1   C19 1446   2.297   4.986  10.143  0.2929  0.4627 -0.8988
   20CHL1  H19A 1447   2.385   4.997  10.076 -0.3471 -2.1577 -2.3052
   20CHL1  H19B 1448   2.215   5.031  10.082  1.0055  2.3543 -0.5320
   20CHL1  H19C 1449   2.321   5.030  10.242  0.0273 -1.0687 -0.1283
   20CHL1    C1 1450   2.136   4.808  10.233  0.2756 -0.0333  0.2066
   20CHL1   H1A 1451   2.071   4.878  10.176  1.4991 -0.2349 -1.5352
   20CHL1   H1B 1452   2.105   4.703  10.216 -0.7555  0.2719  0.1107
   20CHL1    C2 1453   2.130   4.845  10.383 -0.0549  0.1270 -1.0805
   20CHL1   H2A 1454   2.028   4.812  10.412  0.3249  0.2919  0.5339
   20CHL1   H2B 1455   2.134   4.955  10.400  0.7490 -0.0780  0.2325
   20CHL1   C20 1456   2.255   4.694   9.468  0.0028 -0.4521 -0.6295
   20CHL1   H20 1457   2.302   4.790   9.439 -0.9790  0.3067  0.2334
   20CHL1   C21 1458   2.097   4.701   9.459  0.2189  0.8584 -0.4928
   20CHL1  H21A 1459   2.047   4.743   9.550 -0.9414  1.0586 -1.2013
   20CHL1  H21B 1460   2.055   4.600   9.440 -1.2430  1.4060 -0.3100
   20CHL1  H21C 1461   2.075   4.773   9.377  0.4191 -0.7697 -2.0253
   20CHL1   C22 1462   2.293   4.599   9.345 -1.0606 -0.3910 -1.2219
   20CHL1  H22A 1463   2.403   4.586   9.343 -1.1834 -1.6031 -1.2256
   20CHL1  H22B 1464   2.242   4.503   9.368 -0.6392 -0.2847  0.2566
   20CHL1   C23 1465   2.242   4.641   9.207 -0.1569  0.4570 -0.2402
   20CHL1  H23A 1466   2.132   4.650   9.208 -0.1477  0.5418  0.0446
   20CHL1  H23B 1467   2.304   4.728   9.176 -1.8519  1.6109 -0.5281
   20CHL1   C24 1468   2.277   4.517   9.119  0.2794  0.0143  0.0171
   20CHL1  H24A 1469   2.374   4.473   9.151 -0.3785 -1.9304 -0.5466
   20CHL1  H24B 1470   2.213   4.427   9.132  0.0970  0.0000 -0.9383
   20CHL1   C25 1471   2.257   4.547   8.975  0.1158 -0.1182  0.2167
   20CHL1   H25 1472   2.311   4.637   8.937  0.4520 -0.8213 -1.0350
   20CHL1   C26 1473   2.307   4.425   8.882  0.2977  0.2769  0.1166
   20CHL1  H26A 1474   2.229   4.345   8.884  0.6359 -0.0432  0.9090
   20CHL1  H26B 1475   2.320   4.466   8.780 -0.8994  1.2898  0.3391
   20CHL1  H26C 1476   2.405   4.384   8.912  1.0049  0.8081 -1.3760
   20CHL1   C27 1477   2.106   4.567   8.947 -0.2411 -0.4120  0.9742
   20CHL1  H27A 1478   2.087   4.559   8.837  1.1872  0.0345  0.6680
   20CHL1  H27B 1479   2.059   4.477   8.992 -0.4475 -0.6683  0.2605
   20CHL1  H27C 1480   2.050   4.650   8.993  1.5235  1.8650 -0.7529
   21CHL1    C3 1481   1.264   3.245  10.387 -0.0145 -0.0668  0.8401
   21CHL1    H3 1482   1.258   3.135  10.398 -1.6828 -0.2969 -1.5031
   21CHL1    O3 1483   1.311   3.293  10.513 -0.2410 -0.2329  0.2457
   21CHL1   H3' 1484   1.292   3.386  10.503  3.5950  0.7522  0.2886
   21CHL1    C4 1485   1.371   3.274  10.279 -0.7184 -1.1038  0.6281
   21CHL1   H4A 1486   1.404   3.379  10.295 -1.1667 -0.9607  0.6448
   21CHL1   H4B 1487   1.465   3.218  10.297 -0.5050 -1.4391 -1.2906
   21CHL1    C5 1488   1.325   3.242  10.138 -0.5724 -0.1668 -0.1064
   21CHL1    C6 1489   1.384   3.155  10.053 -0.0476  0.5241  0.0575
   21CHL1    H6 1490   1.477   3.100  10.073  0.2326  0.8369 -0.3561
   21CHL1    C7 1491   1.338   3.117   9.913 -0.3537 -0.3820 -0.5026
   21CHL1   H7A 1492   1.420   3.136   9.840 -0.3726 -2.4026 -1.1047
   21CHL1   H7B 1493   1.297   3.014   9.906  0.2016 -0.5295 -1.8099
   21CHL1    C8 1494   1.213   3.199   9.863 -0.1150  0.1441  0.2299
   21CHL1    H8 1495   1.257   3.299   9.839  0.4488 -0.2355 -0.3738
   21CHL1   C14 1496   1.155   3.132   9.749  0.1264  0.0017 -0.2718
   21CHL1   H14 1497   1.097   3.046   9.790 -1.1159  1.5111  1.3145
   21CHL1   C15 1498   1.255   3.085   9.640 -0.7808 -0.1620  0.9842
   21CHL1  H15A 1499   1.316   3.177   9.627  0.3262 -1.0158  0.0086
   21CHL1  H15B 1500   1.320   2.997   9.659 -0.8155 -0.6837 -1.0646
   21CHL1   C16 1501   1.163   3.067   9.516  0.5227  0.0773  0.3856
   21CHL1  H16A 1502   1.206   3.108   9.422 -2.1331 -0.9807 -1.3919
   21CHL1  H16B 1503   1.156   2.957   9.511  1.3631 -0.0640  1.8205
   21CHL1   C17 1504   1.019   3.120   9.563 -0.0698  0.0988 -0.3986
   21CHL1   H17 1505   0.966   3.032   9.605  2.0686 -2.3107 -2.4187
   21CHL1   C13 1506   1.046   3.213   9.683  0.8495  0.0248 -0.2586
   21CHL1   C18 1507   1.095   3.349   9.638  0.1737  0.0789  1.0217
   21CHL1  H18A 1508   1.188   3.340   9.578 -1.6517  2.9272 -2.6699
   21CHL1  H18B 1509   1.015   3.394   9.574  0.6804 -0.8287 -0.2787
   21CHL1  H18C 1510   1.101   3.416   9.727  0.6208  0.4379  0.7223
   21CHL1   C12 1511   0.932   3.224   9.789  0.0778  0.7060  0.1571
   21CHL1  H12A 1512   0.848   3.281   9.744  0.4926  1.2583  0.0650
   21CHL1  H12B 1513   0.887   3.122   9.789 -1.1119  1.1508 -2.4718
   21CHL1   C11 1514   0.980   3.274   9.923 -0.2522 -0.2486  0.7816
   21CHL1  H11A 1515   0.985   3.385   9.921  1.7771 -0.3098 -0.9608
   21CHL1  H11B 1516   0.893   3.259   9.991 -1.4102  2.4087 -0.0127
   21CHL1    C9 1517   1.117   3.213   9.980  0.7464 -0.0851  1.0322
   21CHL1    H9 1518   1.084   3.113  10.016 -1.5676  0.0195 -0.5707
   21CHL1   C10 1519   1.184   3.286  10.102  0.3626  0.4227 -0.0156
   21CHL1   C19 1520   1.187   3.441  10.081  0.4645  0.3748 -0.5280
   21CHL1  H19A 1521   1.085   3.483  10.092  0.1155 -0.7674  0.8681
   21CHL1  H19B 1522   1.255   3.490  10.153 -0.1159  1.1084 -0.4683
   21CHL1  H19C 1523   1.217   3.464   9.976  0.2683 -1.0652 -0.9273
   21CHL1    C1 1524   1.087   3.251  10.221 -1.0587  0.2439 -0.3571
   21CHL1   H1A 1525   0.990   3.302  10.202 -1.0714  0.3737  0.0497
   21CHL1   H1B 1526   1.090   3.141  10.239 -0.2951  0.2030 -0.7394
   21CHL1    C2 1527   1.124   3.306  10.363  0.8709 -0.2469  0.3287
   21CHL1   H2A 1528   1.043   3.280  10.434  0.9465 -1.7495 -0.1040
   21CHL1   H2B 1529   1.137   3.417  10.367 -1.4886  0.0653  1.0212
   21CHL1   C20 1530   0.936   3.173   9.441 -0.5286  0.2374 -0.4547
   21CHL1   H20 1531   1.006   3.245   9.395 -0.0641 -0.3409 -0.6725
   21CHL1   C21 1532   0.790   3.219   9.475 -0.3576 -0.2735  0.4483
   21CHL1  H21A 1533   0.782   3.304   9.547  1.9995 -0.5606  1.1479
   21CHL1  H21B 1534   0.726   3.138   9.514 -0.2540 -1.6854 -2.1146
   21CHL1  H21C 1535   0.749   3.260   9.380 -0.5961  0.8341  1.0132
   21CHL1   C22 1536   0.919   3.067   9.331  0.1168  0.3632  0.7965
   21CHL1  H22A 1537   0.991   2.983   9.337 -0.4396 -0.0622  1.7842
   21CHL1  H22B 1538   0.824   3.012   9.347  1.0507 -1.2484  0.9366
   21CHL1   C23 1539   0.925   3.133   9.194  0.1903 -0.0303 -0.5040
   21CHL1  H23A 1540   0.896   3.240   9.202  3.4051  0.9183  0.1214
   21CHL1  H23B 1541   1.026   3.118   9.150 -0.9675 -1.7203 -2.7442
   21CHL1   C24 1542   0.843   3.058   9.090  0.2564  0.4387  0.5042
   21CHL1  H24A 1543   0.886   2.957   9.073 -1.4205  0.1003 -2.4424
   21CHL1  H24B 1544   0.745   3.029   9.134  1.3513 -1.2770  1.9195
   21CHL1   C25 1545   0.824   3.116   8.952 -0.5249  0.2189  0.1459
   21CHL1   H25 1546   0.762   3.206   8.974 -2.7080 -1.7343  2.7952
   21CHL1   C26 1547   0.955   3.142   8.876 -0.4398 -0.7096 -0.7937
   21CHL1  H26A 1548   1.015   3.218   8.930  1.4571 -1.8160 -1.2715
   21CHL1  H26B 1549   1.002   3.043   8.859 -0.6710 -0.7459 -1.2585
   21CHL1  H26C 1550   0.942   3.179   8.772  2.5747 -0.1695 -1.0554
   21CHL1   C27 1551   0.723   3.027   8.858 -0.4642 -0.4258  0.3432
   21CHL1  H27A 1552   0.689   3.098   8.780  2.8518  0.0099 -0.8965
   21CHL1  H27B 1553   0.787   2.961   8.797  3.3387  1.3233  2.0652
   21CHL1  H27C 1554   0.644   2.977   8.917 -0.3076  1.0179  1.8712
   22CHL1    C3 1555   1.822   3.452  10.297 -1.1227  0.5859 -0.4065
   22CHL1    H3 1556   1.822   3.341  10.296  0.4297  0.4834  2.2095
   22CHL1    O3 1557   1.874   3.478  10.426 -0.5352  0.3099 -0.6677
   22CHL1   H3' 1558   1.871   3.574  10.427  0.6046  0.3589  0.3191
   22CHL1    C4 1559   1.927   3.506  10.199  0.1612 -0.0492  0.0234
   22CHL1   H4A 1560   1.947   3.615  10.210 -2.2753  0.5020 -0.5654
   22CHL1   H4B 1561   2.019   3.451  10.229  0.8163  2.0756  2.1971
   22CHL1    C5 1562   1.883   3.475  10.057 -0.0954 -0.1320  0.3315
   22CHL1    C6 1563   1.956   3.393   9.986  0.0877  0.5411 -0.2754
   22CHL1    H6 1564   2.053   3.359  10.024  0.7555  1.7147 -0.8460
   22CHL1    C7 1565   1.920   3.347   9.850  0.4656 -0.5404  0.2239
   22CHL1   H7A 1566   2.010   3.357   9.785  0.3009 -1.9082 -0.2469
   22CHL1   H7B 1567   1.893   3.239   9.852  0.1998 -0.4639  0.7226
   22CHL1    C8 1568   1.817   3.435   9.785  0.9108  0.2066  0.4083
   22CHL1    H8 1569   1.867   3.529   9.752  1.6993 -0.8552 -1.6002
   22CHL1   C14 1570   1.755   3.368   9.658  0.0009 -0.4183 -0.6601
   22CHL1   H14 1571   1.702   3.280   9.699 -2.1628  1.5809  1.2007
   22CHL1   C15 1572   1.850   3.340   9.536  0.3226 -0.5473 -0.2921
   22CHL1  H15A 1573   1.941   3.403   9.528 -0.7606  1.1514  0.2365
   22CHL1  H15B 1574   1.901   3.243   9.554 -0.5136 -0.9926 -0.2548
   22CHL1   C16 1575   1.759   3.341   9.411 -0.6942  0.4137  0.0103
   22CHL1  H16A 1576   1.786   3.430   9.349 -0.0722  2.4435  2.9993
   22CHL1  H16B 1577   1.767   3.245   9.356 -1.6281 -0.5876  1.5569
   22CHL1   C17 1578   1.616   3.355   9.461 -0.4623  0.1685  0.3152
   22CHL1   H17 1579   1.577   3.258   9.499 -0.1990 -0.1736 -0.2701
   22CHL1   C13 1580   1.638   3.443   9.591 -0.0990 -1.0872  0.8255
   22CHL1   C18 1581   1.683   3.576   9.544 -0.1878  0.4125 -0.0262
   22CHL1  H18A 1582   1.766   3.581   9.471 -0.9699 -3.0754 -1.3295
   22CHL1  H18B 1583   1.600   3.645   9.518  0.2398  1.4320  1.2186
   22CHL1  H18C 1584   1.728   3.634   9.628 -1.3360  3.0360 -1.0863
   22CHL1   C12 1585   1.524   3.452   9.696  0.7017 -0.3724 -0.4141
   22CHL1  H12A 1586   1.441   3.508   9.648  0.2481  0.6077  1.4176
   22CHL1  H12B 1587   1.484   3.352   9.721  0.4652 -0.4513 -1.0814
   22CHL1   C11 1588   1.570   3.523   9.822  0.4794 -0.2396  0.0099
   22CHL1  H11A 1589   1.593   3.627   9.788  0.4098 -1.2825 -3.6149
   22CHL1  H11B 1590   1.488   3.517   9.896  0.0271  0.2868 -0.4323
   22CHL1    C9 1591   1.696   3.453   9.884  0.5411 -0.0093  0.5260
   22CHL1    H9 1592   1.683   3.343   9.899  2.5938 -0.5255 -1.0334
   22CHL1   C10 1593   1.736   3.520  10.022  0.3599 -0.2369  0.5485
   22CHL1   C19 1594   1.726   3.677  10.012 -0.1771 -0.0098  0.1268
   22CHL1  H19A 1595   1.790   3.715   9.929 -0.2635  2.6570  1.1743
   22CHL1  H19B 1596   1.627   3.720   9.989 -0.1191 -0.1843 -0.4592
   22CHL1  H19C 1597   1.768   3.716  10.107 -1.8045 -1.9910  1.7392
   22CHL1    C1 1598   1.640   3.473  10.136  0.6689 -0.3208  0.5332
   22CHL1   H1A 1599   1.538   3.505  10.107  0.9311 -1.3021 -1.7004
   22CHL1   H1B 1600   1.633   3.362  10.127 -0.1164 -0.3128  0.9598
   22CHL1    C2 1601   1.683   3.513  10.275  0.1690  0.5388  0.3319
   22CHL1   H2A 1602   1.623   3.460  10.352  0.0318 -2.0113 -1.4180
   22CHL1   H2B 1603   1.686   3.621  10.302  1.1985  0.0622  2.3757
   22CHL1   C20 1604   1.520   3.397   9.351 -0.1347 -0.5420  0.7036
   22CHL1   H20 1605   1.547   3.502   9.327 -2.0006 -0.6421 -2.4916
   22CHL1   C21 1606   1.376   3.389   9.405  0.4935 -0.4859  0.4809
   22CHL1  H21A 1607   1.359   3.475   9.474 -1.9037 -1.4665  1.1906
   22CHL1  H21B 1608   1.364   3.297   9.464  1.3721  2.0770  5.1355
   22CHL1  H21C 1609   1.299   3.393   9.325  1.2679  0.0895 -0.2605
   22CHL1   C22 1610   1.531   3.314   9.220  0.4271 -0.2985  0.3609
   22CHL1  H22A 1611   1.634   3.308   9.178 -0.6265 -1.2280 -2.2909
   22CHL1  H22B 1612   1.506   3.209   9.246  2.0796 -0.7727  0.1372
   22CHL1   C23 1613   1.447   3.370   9.108  0.3751 -0.5388 -0.0890
   22CHL1  H23A 1614   1.342   3.381   9.142  0.4627 -1.2819  0.4530
   22CHL1  H23B 1615   1.486   3.474   9.101 -1.4442  0.0537 -2.7238
   22CHL1   C24 1616   1.468   3.306   8.969 -0.1041  0.5123 -1.0305
   22CHL1  H24A 1617   1.577   3.314   8.953  0.0244  1.0345  0.0146
   22CHL1  H24B 1618   1.441   3.199   8.979 -0.5581  0.5244 -2.0078
   22CHL1   C25 1619   1.389   3.361   8.855  0.0291  0.3285  0.4774
   22CHL1   H25 1620   1.403   3.299   8.764  0.6477  1.1878 -0.0224
   22CHL1   C26 1621   1.245   3.361   8.899 -0.3930 -0.1445 -0.5267
   22CHL1  H26A 1622   1.225   3.454   8.956 -0.4999  0.4507 -1.5058
   22CHL1  H26B 1623   1.168   3.349   8.820 -1.3152 -0.2212  0.3686
   22CHL1  H26C 1624   1.226   3.277   8.969 -0.5649 -1.4112 -2.0265
   22CHL1   C27 1625   1.441   3.499   8.820 -0.1385 -0.0891  0.1032
   22CHL1  H27A 1626   1.437   3.567   8.908  3.3761 -1.5261  1.5883
   22CHL1  H27B 1627   1.548   3.495   8.788  0.6054  1.2743  2.1829
   22CHL1  H27C 1628   1.389   3.533   8.728  0.4258  0.2766 -0.0859
   23CHL1    C3 1629   3.959   2.725  10.268  1.0528 -0.6338 -0.2492
   23CHL1    H3 1630   3.935   2.619  10.291  0.2412 -0.0536  1.8150
   23CHL1    O3 1631   4.004   2.786  10.392  0.0885 -0.4882 -0.0648
   23CHL1   H3' 1632   4.087   2.746  10.418  0.2753 -1.5218 -2.0183
   23CHL1    C4 1633   4.076   2.732  10.164 -0.2329  0.2166  0.8004
   23CHL1   H4A 1634   4.110   2.837  10.155  2.5688 -0.7093 -0.8530
   23CHL1   H4B 1635   4.169   2.684  10.201  0.2402  0.4429 -0.0605
   23CHL1    C5 1636   4.036   2.704  10.019 -0.0209  0.3437  0.2607
   23CHL1    C6 1637   4.105   2.614   9.954  0.2369  0.1319 -0.3818
   23CHL1    H6 1638   4.194   2.557   9.987  0.5588  0.3410 -0.8724
   23CHL1    C7 1639   4.076   2.571   9.813  0.4678  0.6346 -0.4184
   23CHL1   H7A 1640   4.176   2.552   9.770  0.4049 -0.9498  0.0454
   23CHL1   H7B 1641   4.010   2.481   9.816  0.2669  0.7943  0.0952
   23CHL1    C8 1642   3.990   2.671   9.737  0.5645 -0.0539  0.0739
   23CHL1    H8 1643   4.043   2.767   9.721 -2.3246  1.8349  0.9588
   23CHL1   C14 1644   3.947   2.617   9.598 -0.0018 -0.8045 -0.4485
   23CHL1   H14 1645   3.883   2.532   9.630 -0.8860 -0.1836 -0.5278
   23CHL1   C15 1646   4.057   2.575   9.499 -0.2817  0.3220 -0.2351
   23CHL1  H15A 1647   4.119   2.667   9.493 -1.9031  1.3933 -1.4048
   23CHL1  H15B 1648   4.103   2.476   9.517 -1.3407 -0.3153 -0.9073
   23CHL1   C16 1649   3.981   2.567   9.372 -0.2191 -0.1592 -0.6610
   23CHL1  H16A 1650   4.042   2.621   9.297 -0.2569 -0.2570 -0.7628
   23CHL1  H16B 1651   3.974   2.463   9.334  1.9942 -1.6066  2.4713
   23CHL1   C17 1652   3.838   2.631   9.388 -0.3319  0.0348  0.5059
   23CHL1   H17 1653   3.773   2.542   9.401  1.7958 -1.7917 -0.6451
   23CHL1   C13 1654   3.852   2.711   9.520  0.0094  0.4191 -0.0298
   23CHL1   C18 1655   3.910   2.852   9.494 -0.2906 -1.0215  0.3357
   23CHL1  H18A 1656   3.849   2.914   9.425 -0.1337 -0.3823  0.7592
   23CHL1  H18B 1657   3.917   2.904   9.592 -0.1128  0.9490 -0.6777
   23CHL1  H18C 1658   4.014   2.852   9.456 -0.5881 -1.2010 -0.5037
   23CHL1   C12 1659   3.732   2.722   9.608  0.1071  0.8627  0.1083
   23CHL1  H12A 1660   3.666   2.796   9.559 -2.1651 -0.5964  0.8342
   23CHL1  H12B 1661   3.690   2.620   9.615  1.3755  0.3964  1.4462
   23CHL1   C11 1662   3.757   2.777   9.746 -0.6767 -0.1382  0.1342
   23CHL1  H11A 1663   3.763   2.888   9.754 -2.0889 -0.0743  0.6567
   23CHL1  H11B 1664   3.664   2.745   9.798 -0.7211 -1.6929 -0.8245
   23CHL1    C9 1665   3.872   2.706   9.825  0.0260 -0.4128 -0.0913
   23CHL1    H9 1666   3.828   2.607   9.850  2.1961 -1.1369  1.0609
   23CHL1   C10 1667   3.912   2.769   9.961  0.3854 -0.2819  0.0269
   23CHL1   C19 1668   3.934   2.924   9.935  0.0667  0.1312 -0.2085
   23CHL1  H19A 1669   4.012   2.941   9.857  0.7071  1.1415  0.6159
   23CHL1  H19B 1670   3.844   2.981   9.906 -0.8258  1.4939  4.3402
   23CHL1  H19C 1671   3.968   2.967  10.032 -0.4958  0.8171 -0.3050
   23CHL1    C1 1672   3.795   2.754  10.063  0.1662 -0.2373 -0.8823
   23CHL1   H1A 1673   3.704   2.812  10.037  0.1141  1.0445  1.7967
   23CHL1   H1B 1674   3.770   2.646  10.073 -0.8837  0.0533 -0.2807
   23CHL1    C2 1675   3.828   2.793  10.216 -0.0317 -0.1089  0.9486
   23CHL1   H2A 1676   3.752   2.766  10.293 -0.8400 -0.8117 -0.0669
   23CHL1   H2B 1677   3.851   2.902  10.220  0.6594 -0.1561 -1.0461
   23CHL1   C20 1678   3.788   2.699   9.257 -0.0987  0.2494 -0.6262
   23CHL1   H20 1679   3.838   2.796   9.239 -1.5358  1.2235  0.3155
   23CHL1   C21 1680   3.637   2.728   9.278  0.0580 -0.0931  0.1672
   23CHL1  H21A 1681   3.597   2.755   9.178  2.1429 -0.7598 -0.9079
   23CHL1  H21B 1682   3.626   2.816   9.345 -3.1637 -0.0073 -0.3462
   23CHL1  H21C 1683   3.578   2.643   9.318  0.9657  0.0958  2.0205
   23CHL1   C22 1684   3.799   2.612   9.131  0.4128  0.0828 -0.6036
   23CHL1  H22A 1685   3.888   2.547   9.116 -0.5662 -0.9063 -2.4868
   23CHL1  H22B 1686   3.708   2.548   9.129  1.2586 -1.1376 -2.6831
   23CHL1   C23 1687   3.792   2.692   9.002  0.1340  0.2352  0.2544
   23CHL1  H23A 1688   3.740   2.634   8.923 -1.0566  1.2750  0.2391
   23CHL1  H23B 1689   3.725   2.778   9.021 -0.2296  0.2127 -0.8810
   23CHL1   C24 1690   3.922   2.752   8.965 -0.2629  0.5571 -0.2164
   23CHL1  H24A 1691   3.941   2.850   9.015 -0.3486  0.4947 -0.0623
   23CHL1  H24B 1692   4.005   2.683   8.989  0.0415  0.4646 -1.4715
   23CHL1   C25 1693   3.926   2.811   8.825  0.4632  0.0958 -0.0989
   23CHL1   H25 1694   3.897   2.732   8.752 -2.1570 -0.5836  1.5340
   23CHL1   C26 1695   3.819   2.912   8.797  0.7659 -0.8042  0.2679
   23CHL1  H26A 1696   3.828   2.998   8.866  1.7148  0.4804 -1.3794
   23CHL1  H26B 1697   3.823   2.960   8.697  0.1742 -0.0006  0.6225
   23CHL1  H26C 1698   3.723   2.857   8.806 -0.1773 -0.0645 -3.4907
   23CHL1   C27 1699   4.061   2.860   8.778 -0.0066 -0.2449  0.7780
   23CHL1  H27A 1700   4.126   2.770   8.772  1.1581  0.4754  1.8364
   23CHL1  H27B 1701   4.056   2.892   8.672  1.0543 -1.8503  0.2138
   23CHL1  H27C 1702   4.116   2.936   8.838  0.5697  0.6867 -0.8788
   24CHL1    C3 1703   0.404   4.565  10.196 -0.2087  0.4202 -0.0585
   24CHL1    H3 1704   0.479   4.647  10.190  1.8192 -1.3939 -0.2958
   24CHL1    O3 1705   0.391   4.520  10.326 -0.5693 -0.3047 -0.0596
   24CHL1   H3' 1706   0.301   4.540  10.353  0.1433  0.3292  2.0846
   24CHL1    C4 1707   0.267   4.622  10.162  0.4515 -0.2863  0.0276
   24CHL1   H4A 1708   0.184   4.551  10.176  1.4167 -1.3757  0.3998
   24CHL1   H4B 1709   0.245   4.712  10.224 -2.8160 -0.2102 -1.0663
   24CHL1    C5 1710   0.261   4.673  10.027  0.5406  0.4417 -0.3793
   24CHL1    C6 1711   0.241   4.807   9.996 -0.0598  0.3874  0.5191
   24CHL1    H6 1712   0.225   4.883  10.073 -0.6280  0.2186  0.5725
   24CHL1    C7 1713   0.232   4.854   9.855 -0.4172 -0.2888 -0.5163
   24CHL1   H7A 1714   0.135   4.909   9.849 -0.4798 -0.3197  0.1726
   24CHL1   H7B 1715   0.319   4.919   9.833 -0.9594  0.0427 -1.7905
   24CHL1    C8 1716   0.234   4.737   9.749 -0.5211  0.6544  0.0392
   24CHL1    H8 1717   0.132   4.694   9.755  0.9021 -3.0764  0.4108
   24CHL1   C14 1718   0.266   4.791   9.610 -0.0672  0.2515 -0.2840
   24CHL1   H14 1719   0.373   4.818   9.608  0.4274 -1.5245  0.4138
   24CHL1   C15 1720   0.193   4.920   9.566  0.0560 -0.6812 -0.5113
   24CHL1  H15A 1721   0.083   4.929   9.581  0.3875 -0.2534  2.3449
   24CHL1  H15B 1722   0.236   5.011   9.612 -0.7339  0.6068 -2.2170
   24CHL1   C16 1723   0.229   4.910   9.416  0.5644  0.2133 -0.4526
   24CHL1  H16A 1724   0.154   4.948   9.343 -0.3435 -1.0692 -0.2238
   24CHL1  H16B 1725   0.309   4.987   9.407 -0.8701  1.6202 -1.9858
   24CHL1   C17 1726   0.297   4.777   9.374 -0.9636 -0.0168 -0.2560
   24CHL1   H17 1727   0.407   4.794   9.381 -1.3000  2.1724  0.8302
   24CHL1   C13 1728   0.261   4.689   9.498 -0.5530 -0.7520  0.7505
   24CHL1   C18 1729   0.123   4.629   9.484  0.5383 -0.4813  0.2380
   24CHL1  H18A 1730   0.047   4.704   9.452  1.2979 -0.1722 -0.8653
   24CHL1  H18B 1731   0.117   4.540   9.418 -0.8945 -0.5821  0.4786
   24CHL1  H18C 1732   0.076   4.598   9.580  1.2712  0.1592  0.8209
   24CHL1   C12 1733   0.364   4.579   9.533  0.6179 -0.5274 -0.9295
   24CHL1  H12A 1734   0.369   4.499   9.456  0.1829 -0.3849 -1.1142
   24CHL1  H12B 1735   0.467   4.620   9.530  0.1291  0.7561 -0.8304
   24CHL1   C11 1736   0.341   4.510   9.671  0.1361 -0.1640  0.3606
   24CHL1  H11A 1737   0.256   4.440   9.655  1.2485 -1.4689  0.0284
   24CHL1  H11B 1738   0.430   4.452   9.703  1.0946  1.3945  0.6249
   24CHL1    C9 1739   0.328   4.617   9.781  0.3899 -0.5390 -0.1747
   24CHL1    H9 1740   0.432   4.658   9.784 -0.3936  1.5931 -0.4058
   24CHL1   C10 1741   0.305   4.558   9.921 -0.1531  0.4442 -0.2682
   24CHL1   C19 1742   0.187   4.455   9.909 -0.4345 -0.1001  0.5891
   24CHL1  H19A 1743   0.228   4.360   9.869 -1.5658 -0.5378  0.4198
   24CHL1  H19B 1744   0.139   4.438  10.007  0.0687 -0.2322  0.8148
   24CHL1  H19C 1745   0.105   4.485   9.840 -0.5416 -2.6003 -0.4521
   24CHL1    C1 1746   0.441   4.492   9.963 -0.0782 -0.4811  0.4818
   24CHL1   H1A 1747   0.466   4.403   9.902 -1.2675 -0.0702 -0.6408
   24CHL1   H1B 1748   0.519   4.571   9.958  0.1308 -0.5007  2.3947
   24CHL1    C2 1749   0.426   4.442  10.108 -0.8417  0.1847  0.0113
   24CHL1   H2A 1750   0.531   4.407  10.117 -0.8550  0.4649  1.5972
   24CHL1   H2B 1751   0.351   4.361  10.120 -0.7511  0.2113  0.8789
   24CHL1   C20 1752   0.268   4.720   9.234 -0.6712 -0.3464  0.5042
   24CHL1   H20 1753   0.163   4.684   9.224 -0.6951 -0.4532  1.0706
   24CHL1   C21 1754   0.355   4.592   9.206  0.0190 -0.2774 -0.4586
   24CHL1  H21A 1755   0.306   4.511   9.264 -1.4540  0.0866 -1.1323
   24CHL1  H21B 1756   0.463   4.618   9.201  0.1502 -1.0538 -2.3417
   24CHL1  H21C 1757   0.333   4.552   9.105  1.0502  0.6147 -1.0533
   24CHL1   C22 1758   0.287   4.838   9.129 -0.1030  0.1413 -0.4579
   24CHL1  H22A 1759   0.235   4.931   9.162  0.4480  0.1474  0.4276
   24CHL1  H22B 1760   0.393   4.870   9.128 -0.9220  3.1909 -0.5039
   24CHL1   C23 1761   0.243   4.805   8.988 -0.5608  0.2744  0.6554
   24CHL1  H23A 1762   0.287   4.710   8.952 -0.8408 -0.0126  1.0713
   24CHL1  H23B 1763   0.133   4.793   8.993 -0.5386 -0.6192 -0.5858
   24CHL1   C24 1764   0.276   4.922   8.898  0.5287  0.0891  1.1186
   24CHL1  H24A 1765   0.263   5.021   8.947  2.9435  1.1311 -0.1809
   24CHL1  H24B 1766   0.380   4.915   8.859  0.3867 -0.1215  0.7694
   24CHL1   C25 1767   0.190   4.932   8.771  0.2035 -0.0442 -0.8078
   24CHL1   H25 1768   0.086   4.950   8.806  0.7375  1.4413  0.0955
   24CHL1   C26 1769   0.240   5.037   8.672 -0.6465 -0.2919  0.0309
   24CHL1  H26A 1770   0.247   5.135   8.723 -2.0252  0.9506 -2.0265
   24CHL1  H26B 1771   0.335   5.001   8.627  1.3783  3.0243  1.2647
   24CHL1  H26C 1772   0.166   5.053   8.590 -3.0388 -1.1577  1.9096
   24CHL1   C27 1773   0.187   4.797   8.705 -0.7909 -0.3327  0.3269
   24CHL1  H27A 1774   0.130   4.709   8.741 -0.7045 -0.8891 -0.8494
   24CHL1  H27B 1775   0.154   4.805   8.599 -2.2720  1.0502  0.8577
   24CHL1  H27C 1776   0.296   4.778   8.694 -0.1442  1.9747  1.9196
   25CHL1    C3 1777   1.984   6.520  10.413  0.7796 -0.3223 -0.0991
   25CHL1    H3 1778   2.026   6.428  10.367 -1.8883 -0.3033 -2.8621
   25CHL1    O3 1779   2.027   6.538  10.549  0.1701  0.2928  0.0432
   25CHL1   H3' 1780   1.994   6.624  10.578  3.3233  1.9586 -0.8342
   25CHL1    C4 1781   2.036   6.634  10.333 -0.0925  0.4319  0.0270
   25CHL1   H4A 1782   2.015   6.733  10.378 -1.9120  0.4012 -0.6501
   25CHL1   H4B 1783   2.145   6.614  10.337 -0.1460  0.1655  0.2199
   25CHL1    C5 1784   1.980   6.632  10.192  0.1858 -0.3913  0.3100
   25CHL1    C6 1785   2.050   6.626  10.077  0.7441 -0.2594  0.4150
   25CHL1    H6 1786   2.160   6.618  10.079  0.8366  0.7726  0.1865
   25CHL1    C7 1787   1.981   6.650   9.942  0.1915 -0.4378  0.2502
   25CHL1   H7A 1788   2.047   6.720   9.887  0.5299 -0.1455  1.0195
   25CHL1   H7B 1789   1.977   6.556   9.883 -3.7727 -1.0906  1.2718
   25CHL1    C8 1790   1.842   6.709   9.940 -0.0016 -0.6483 -0.2729
   25CHL1    H8 1791   1.836   6.816   9.971 -1.5298 -0.5130 -0.9636
   25CHL1   C14 1792   1.780   6.693   9.802 -0.1621  0.4048 -0.3996
   25CHL1   H14 1793   1.772   6.584   9.782  0.9342  0.0589  0.8869
   25CHL1   C15 1794   1.853   6.742   9.680  0.3898 -1.0679  0.3566
   25CHL1  H15A 1795   1.892   6.845   9.678  1.1050 -1.3338  0.4596
   25CHL1  H15B 1796   1.944   6.683   9.655  0.2957 -1.1380  0.1744
   25CHL1   C16 1797   1.737   6.729   9.571 -0.3785 -0.4464  0.0940
   25CHL1  H16A 1798   1.739   6.821   9.508  0.3386 -1.2941 -1.1743
   25CHL1  H16B 1799   1.764   6.655   9.492 -1.1659 -0.7389  0.0925
   25CHL1   C17 1800   1.607   6.702   9.639  0.1488 -0.4828  0.3367
   25CHL1   H17 1801   1.595   6.592   9.639  0.6065 -0.5345  0.7229
   25CHL1   C13 1802   1.633   6.736   9.784 -0.2394 -0.0870 -0.6452
   25CHL1   C18 1803   1.624   6.895   9.801 -0.6387 -0.2064  0.5784
   25CHL1  H18A 1804   1.670   6.944   9.890  1.5160 -0.8135 -0.1308
   25CHL1  H18B 1805   1.664   6.944   9.710  0.8962 -1.6961  0.3887
   25CHL1  H18C 1806   1.519   6.930   9.803 -0.7914 -0.6672  1.3676
   25CHL1   C12 1807   1.546   6.667   9.896 -0.4560  0.1114  0.6918
   25CHL1  H12A 1808   1.451   6.723   9.908  0.1887  1.9823 -1.8844
   25CHL1  H12B 1809   1.522   6.563   9.867  1.1105  0.2206 -1.2489
   25CHL1   C11 1810   1.612   6.681  10.035  0.0119  0.3104 -0.5187
   25CHL1  H11A 1811   1.611   6.783  10.080  1.5599 -1.1549  3.2012
   25CHL1  H11B 1812   1.551   6.627  10.110 -0.0940 -1.0266 -1.5314
   25CHL1    C9 1813   1.761   6.638  10.043 -1.0700  1.0461 -0.0618
   25CHL1    H9 1814   1.766   6.532  10.010  0.3573  1.2110 -0.4534
   25CHL1   C10 1815   1.825   6.648  10.188 -0.8541  0.0351 -0.6332
   25CHL1   C19 1816   1.780   6.770  10.257  0.0467 -0.4038 -0.2987
   25CHL1  H19A 1817   1.670   6.776  10.270  0.1454  2.0580  0.0154
   25CHL1  H19B 1818   1.824   6.778  10.359 -0.6636 -0.7440  0.0421
   25CHL1  H19C 1819   1.808   6.854  10.189 -2.4525 -1.1985 -2.4847
   25CHL1    C1 1820   1.776   6.522  10.267 -0.2672  0.1192 -0.6130
   25CHL1   H1A 1821   1.665   6.525  10.266 -0.3981 -2.6868 -1.5292
   25CHL1   H1B 1822   1.810   6.431  10.214 -2.3236  0.2123 -2.1960
   25CHL1    C2 1823   1.825   6.506  10.414 -0.2262  0.0104 -0.3312
   25CHL1   H2A 1824   1.805   6.400  10.444 -1.9597 -1.0253 -4.4934
   25CHL1   H2B 1825   1.786   6.574  10.493  1.3998  1.7370 -0.9400
   25CHL1   C20 1826   1.478   6.757   9.574 -0.1930 -0.2618  0.3006
   25CHL1   H20 1827   1.468   6.867   9.588  0.3774 -0.1487 -0.1384
   25CHL1   C21 1828   1.358   6.696   9.648  0.2383  0.2587  0.1326
   25CHL1  H21A 1829   1.372   6.594   9.691 -0.9324 -0.4948 -1.1986
   25CHL1  H21B 1830   1.275   6.688   9.575  0.6402 -1.9441 -0.1506
   25CHL1  H21C 1831   1.327   6.769   9.726  0.1385  1.7635 -1.2595
   25CHL1   C22 1832   1.469   6.726   9.416  0.6823 -0.0221 -0.1217
   25CHL1  H22A 1833   1.385   6.783   9.370  0.8345 -0.8447 -1.4722
   25CHL1  H22B 1834   1.559   6.775   9.372 -0.4526  1.5811 -0.7561
   25CHL1   C23 1835   1.472   6.579   9.367  0.4878 -0.3418 -0.9443
   25CHL1  H23A 1836   1.549   6.520   9.421 -0.5195 -1.6194 -0.8582
   25CHL1  H23B 1837   1.375   6.543   9.409 -0.0216  1.7599 -0.2133
   25CHL1   C24 1838   1.475   6.559   9.220 -0.3073 -0.3155 -0.5236
   25CHL1  H24A 1839   1.573   6.588   9.177 -0.5938  2.2879  0.4289
   25CHL1  H24B 1840   1.459   6.451   9.196 -0.0593 -0.1628 -1.4095
   25CHL1   C25 1841   1.371   6.627   9.122  0.1337 -0.1686  0.5506
   25CHL1   H25 1842   1.374   6.738   9.125 -0.8300 -0.1153 -0.0374
   25CHL1   C26 1843   1.410   6.606   8.977  0.3497  0.0315 -0.3971
   25CHL1  H26A 1844   1.508   6.653   8.956 -0.0508 -0.6827 -4.6394
   25CHL1  H26B 1845   1.409   6.499   8.947 -2.1345 -0.2582  0.4417
   25CHL1  H26C 1846   1.346   6.656   8.901  0.7079 -1.6209 -1.8647
   25CHL1   C27 1847   1.231   6.577   9.155  0.1220 -0.0668  0.2482
   25CHL1  H27A 1848   1.228   6.466   9.159 -0.8852 -0.0400  0.5216
   25CHL1  H27B 1849   1.192   6.609   9.254 -0.6911 -0.5780  0.1024
   25CHL1  H27C 1850   1.159   6.598   9.072  1.0010  0.3864 -0.4161
   26CHL1    C3 1851   2.572   1.723  10.240 -0.0188 -0.0168 -0.1438
   26CHL1    H3 1852   2.661   1.703  10.176 -2.3891 -0.2871 -3.6188
   26CHL1    O3 1853   2.601   1.719  10.380  0.1701  0.0438  0.7342
   26CHL1   H3' 1854   2.522   1.746  10.426 -1.6645  0.1988 -2.2188
   26CHL1    C4 1855   2.521   1.851  10.190 -0.7422  0.3487  0.4734
   26CHL1   H4A 1856   2.421   1.879  10.231 -1.0167  0.1557 -0.0588
   26CHL1   H4B 1857   2.596   1.931  10.212  0.9885 -0.4871 -2.0101
   26CHL1    C5 1858   2.508   1.838  10.041 -0.2597 -0.0335  0.0838
   26CHL1    C6 1859   2.579   1.925   9.964  0.0104  0.8218 -1.2323
   26CHL1    H6 1860   2.642   2.003  10.010  1.1802 -0.2572 -0.9584
   26CHL1    C7 1861   2.584   1.912   9.815 -0.0150 -0.1758 -1.0892
   26CHL1   H7A 1862   2.587   2.015   9.774 -0.6629  0.2050 -0.2158
   26CHL1   H7B 1863   2.672   1.852   9.785 -0.5702 -1.3144 -0.5112
   26CHL1    C8 1864   2.470   1.829   9.758  0.2093  0.1529  0.4559
   26CHL1    H8 1865   2.376   1.887   9.762 -0.4115 -0.7038 -0.9729
   26CHL1   C14 1866   2.495   1.795   9.611 -0.2839 -1.1729 -0.4128
   26CHL1   H14 1867   2.586   1.732   9.613  0.3512 -0.2743  1.7550
   26CHL1   C15 1868   2.537   1.908   9.515 -0.2606  0.0452  0.4271
   26CHL1  H15A 1869   2.480   2.003   9.518 -1.6981 -0.7835  0.7030
   26CHL1  H15B 1870   2.645   1.926   9.531  0.3220 -1.8288 -0.9989
   26CHL1   C16 1871   2.517   1.842   9.378  0.3117 -0.0817  0.0733
   26CHL1  H16A 1872   2.457   1.906   9.311  0.1485  0.5618  0.8154
   26CHL1  H16B 1873   2.616   1.826   9.329 -0.2741 -2.8290 -0.4044
   26CHL1   C17 1874   2.442   1.710   9.406 -0.4756  0.9049  0.0229
   26CHL1   H17 1875   2.508   1.620   9.402 -1.9623 -0.1766 -1.9609
   26CHL1   C13 1876   2.384   1.714   9.545  0.2345  0.8770 -0.1279
   26CHL1   C18 1877   2.254   1.796   9.541  0.0925  0.3097 -0.3448
   26CHL1  H18A 1878   2.162   1.743   9.510 -0.3756  1.1556 -0.4460
   26CHL1  H18B 1879   2.235   1.833   9.644 -1.6367 -0.1008 -0.4757
   26CHL1  H18C 1880   2.270   1.890   9.484 -1.1157  0.0653 -1.1353
   26CHL1   C12 1881   2.374   1.579   9.627  0.3642  0.2270 -0.3355
   26CHL1  H12A 1882   2.307   1.501   9.586  1.4913 -0.3950 -1.0367
   26CHL1  H12B 1883   2.476   1.537   9.616 -0.0669 -0.7728 -0.5826
   26CHL1   C11 1884   2.342   1.613   9.773  0.3633  1.0939  0.2600
   26CHL1  H11A 1885   2.243   1.664   9.771 -0.5095 -0.5403  0.1064
   26CHL1  H11B 1886   2.330   1.528   9.843 -0.4292  0.3261 -0.7635
   26CHL1    C9 1887   2.445   1.700   9.837  0.4879 -0.2762 -0.2687
   26CHL1    H9 1888   2.542   1.645   9.845  0.4816 -0.1421  0.8375
   26CHL1   C10 1889   2.417   1.720   9.989  0.7849 -0.6828  0.1390
   26CHL1   C19 1890   2.274   1.772  10.013  0.3339  0.4016 -0.2291
   26CHL1  H19A 1891   2.202   1.699   9.970 -2.9272  2.7163  0.8843
   26CHL1  H19B 1892   2.246   1.782  10.120 -1.5683 -0.9314 -0.5501
   26CHL1  H19C 1893   2.266   1.867   9.955 -1.4879  1.9901  2.4122
   26CHL1    C1 1894   2.441   1.598  10.078  0.2245  0.5201  0.7598
   26CHL1   H1A 1895   2.359   1.531  10.045 -0.0201  0.0248  2.2784
   26CHL1   H1B 1896   2.536   1.558  10.035  0.3337  0.6002  0.9226
   26CHL1    C2 1897   2.473   1.608  10.219  0.2999 -1.0302 -0.5540
   26CHL1   H2A 1898   2.499   1.510  10.265  2.0058 -1.0033 -1.3599
   26CHL1   H2B 1899   2.379   1.635  10.270  1.3957  0.6451  0.6857
   26CHL1   C20 1900   2.349   1.669   9.289  0.6320  0.5155  0.2128
   26CHL1   H20 1901   2.275   1.751   9.278 -0.8708 -1.0995 -2.8478
   26CHL1   C21 1902   2.275   1.541   9.330  0.4954  0.1363  0.2743
   26CHL1  H21A 1903   2.210   1.503   9.249 -1.9168  2.8829  0.7411
   26CHL1  H21B 1904   2.203   1.564   9.411  0.0697  1.4568 -0.4391
   26CHL1  H21C 1905   2.339   1.459   9.367  1.2733 -1.1243 -3.4642
   26CHL1   C22 1906   2.425   1.653   9.166 -0.1041  0.0261  0.3427
   26CHL1  H22A 1907   2.488   1.742   9.144  1.1745 -1.1698 -1.1044
   26CHL1  H22B 1908   2.501   1.572   9.172  0.5928  0.2348 -3.2687
   26CHL1   C23 1909   2.336   1.615   9.046 -0.2132 -0.2061 -0.2431
   26CHL1  H23A 1910   2.283   1.520   9.070 -0.9966 -0.0944 -1.4713
   26CHL1  H23B 1911   2.262   1.696   9.032 -0.9934 -0.8166  0.2671
   26CHL1   C24 1912   2.404   1.593   8.913 -0.0075 -0.2547  0.0888
   26CHL1  H24A 1913   2.449   1.688   8.876  1.8484 -0.7959  0.8279
   26CHL1  H24B 1914   2.491   1.525   8.924 -0.2439 -0.8640 -1.5993
   26CHL1   C25 1915   2.308   1.535   8.802  0.2201  0.5321 -0.2262
   26CHL1   H25 1916   2.255   1.450   8.849 -0.8881  1.9113  1.1449
   26CHL1   C26 1917   2.193   1.628   8.759 -0.2271  0.7133  0.4676
   26CHL1  H26A 1918   2.227   1.716   8.700  1.4150 -0.6137 -0.6810
   26CHL1  H26B 1919   2.121   1.570   8.697 -0.8636  2.2414 -0.2853
   26CHL1  H26C 1920   2.150   1.662   8.856 -0.4187 -2.8622  1.7740
   26CHL1   C27 1921   2.401   1.482   8.693 -0.0514 -0.4586  0.1900
   26CHL1  H27A 1922   2.337   1.450   8.608  1.3682  0.7108 -1.3933
   26CHL1  H27B 1923   2.463   1.568   8.658  1.5304 -0.5050  2.6692
   26CHL1  H27C 1924   2.474   1.406   8.728  0.1502 -0.1044  0.5448
   27CHL1    C3 1925   1.537   0.475  10.370  0.0887 -0.5100  0.8961
   27CHL1    H3 1926   1.589   0.545  10.301 -0.6233 -1.2987 -0.4830
   27CHL1    O3 1927   1.588   0.490  10.507 -0.4868 -0.6461  0.4220
   27CHL1   H3' 1928   1.535   0.429  10.559 -0.3780 -1.1678 -0.0682
   27CHL1    C4 1929   1.386   0.499  10.389  0.3644 -0.1521 -0.2474
   27CHL1   H4A 1930   1.355   0.436  10.475  1.2807  1.0707  1.0279
   27CHL1   H4B 1931   1.375   0.603  10.426  1.2898 -0.4447  0.9192
   27CHL1    C5 1932   1.300   0.470  10.264 -0.1728 -0.2152  0.7451
   27CHL1    C6 1933   1.231   0.566  10.203  0.5922 -0.2944 -0.0534
   27CHL1    H6 1934   1.216   0.666  10.245 -0.6605 -0.1730 -0.7431
   27CHL1    C7 1935   1.135   0.545  10.089  0.5874 -0.1886  0.9163
   27CHL1   H7A 1936   1.029   0.564  10.114 -0.9048 -3.8545 -1.7869
   27CHL1   H7B 1937   1.163   0.620  10.011  1.8884 -0.6328  0.9263
   27CHL1    C8 1938   1.133   0.406  10.039 -0.4239  0.8105 -0.3200
   27CHL1    H8 1939   1.059   0.344  10.093 -0.0576  0.1891 -0.5217
   27CHL1   C14 1940   1.089   0.402   9.891 -0.5478  0.3522  0.0877
   27CHL1   H14 1941   1.168   0.439   9.823 -1.4512 -0.8554 -1.6718
   27CHL1   C15 1942   0.956   0.466   9.854 -0.1751 -0.1581  0.1633
   27CHL1  H15A 1943   0.881   0.435   9.930  0.6279  1.1174  1.5286
   27CHL1  H15B 1944   0.945   0.575   9.870  1.4054  0.1958 -0.9097
   27CHL1   C16 1945   0.937   0.432   9.706 -0.3150 -0.3313 -0.5130
   27CHL1  H16A 1946   0.828   0.418   9.691 -0.5587 -0.2611  1.0090
   27CHL1  H16B 1947   0.979   0.515   9.646 -0.3777 -0.3031 -0.5179
   27CHL1   C17 1948   1.016   0.297   9.690 -0.4310  0.0730  0.1613
   27CHL1   H17 1949   1.100   0.329   9.625 -0.9220 -1.1336 -1.1247
   27CHL1   C13 1950   1.065   0.262   9.831 -0.0594 -0.0666 -0.8889
   27CHL1   C18 1951   0.956   0.180   9.904 -0.1972  0.0914  0.3377
   27CHL1  H18A 1952   0.959   0.183  10.015  0.0759  0.5157  0.3191
   27CHL1  H18B 1953   0.852   0.210   9.879 -0.2174  0.0229  0.3380
   27CHL1  H18C 1954   0.969   0.072   9.882 -0.8402  0.2286 -0.7673
   27CHL1   C12 1955   1.203   0.186   9.850  0.8011 -0.0481  0.3854
   27CHL1  H12A 1956   1.180   0.079   9.830 -1.9140  0.4414  0.3963
   27CHL1  H12B 1957   1.279   0.227   9.781  0.3029 -1.1553 -0.8853
   27CHL1   C11 1958   1.248   0.182   9.999 -0.2063  0.2269 -0.0980
   27CHL1  H11A 1959   1.180   0.115  10.056 -1.4425  2.5604  1.3327
   27CHL1  H11B 1960   1.346   0.129  10.004 -0.3577  0.0527  1.5540
   27CHL1    C9 1961   1.261   0.319  10.062 -0.1462 -0.4044  0.3286
   27CHL1    H9 1962   1.328   0.373   9.991  0.9116 -2.2644 -0.1418
   27CHL1   C10 1963   1.320   0.328  10.206  0.1919  0.7515  0.0496
   27CHL1   C19 1964   1.239   0.236  10.305 -0.1900 -1.3465 -0.3967
   27CHL1  H19A 1965   1.287   0.225  10.405 -1.7750 -1.5780  0.3826
   27CHL1  H19B 1966   1.139   0.283  10.317  1.1742  1.5826  0.5523
   27CHL1  H19C 1967   1.231   0.135  10.261  0.1108 -1.8391  0.6543
   27CHL1    C1 1968   1.477   0.298  10.198 -0.1834  0.6071 -0.3485
   27CHL1   H1A 1969   1.483   0.192  10.168 -1.6482 -0.1108  1.6643
   27CHL1   H1B 1970   1.514   0.360  10.113 -0.0516  2.1070  0.7526
   27CHL1    C2 1971   1.566   0.331  10.321 -0.3693  0.2096  0.4550
   27CHL1   H2A 1972   1.674   0.318  10.296 -0.9482 -0.1759 -2.0693
   27CHL1   H2B 1973   1.542   0.267  10.408 -0.7639  1.6755  1.4560
   27CHL1   C20 1974   0.945   0.189   9.608 -0.6625  0.0860 -0.6472
   27CHL1   H20 1975   0.858   0.157   9.669 -0.0096  1.4658  1.0923
   27CHL1   C21 1976   1.030   0.062   9.574  0.1286 -0.2169  0.0790
   27CHL1  H21A 1977   1.117   0.112   9.527  0.4039 -0.5077  0.2711
   27CHL1  H21B 1978   0.983  -0.010   9.504  2.5265 -2.4373  0.6069
   27CHL1  H21C 1979   1.063   0.004   9.663  1.0309 -0.6738 -0.5385
   27CHL1   C22 1980   0.860   0.235   9.483  0.1205  0.2959 -0.7971
   27CHL1  H22A 1981   0.785   0.154   9.473  0.5359 -0.6613  2.5856
   27CHL1  H22B 1982   0.804   0.329   9.503  0.6816  0.6431 -0.8395
   27CHL1   C23 1983   0.930   0.256   9.349 -0.7749  1.4918  0.1483
   27CHL1  H23A 1984   1.030   0.301   9.367  0.2585 -0.5745 -0.1344
   27CHL1  H23B 1985   0.952   0.155   9.308 -1.7070  1.1195  0.5392
   27CHL1   C24 1986   0.843   0.333   9.245  0.3083  0.2674 -0.7952
   27CHL1  H24A 1987   0.879   0.324   9.141  0.5576  2.1111 -0.8996
   27CHL1  H24B 1988   0.740   0.290   9.247  0.0879  0.8042 -0.3371
   27CHL1   C25 1989   0.844   0.485   9.269  0.6418  0.0324 -0.3666
   27CHL1   H25 1990   0.837   0.498   9.379 -1.5542  0.6096 -0.5214
   27CHL1   C26 1991   0.970   0.556   9.216 -0.8966  0.6585 -0.1415
   27CHL1  H26A 1992   0.990   0.545   9.108  1.8742  1.1933  0.2503
   27CHL1  H26B 1993   0.963   0.661   9.251 -2.0176  0.4584  0.2748
   27CHL1  H26C 1994   1.057   0.511   9.269 -0.1967 -0.7128 -2.3192
   27CHL1   C27 1995   0.730   0.552   9.188 -1.1158 -0.6258 -0.1853
   27CHL1  H27A 1996   0.715   0.659   9.213  1.4219 -0.5741  1.5155
   27CHL1  H27B 1997   0.766   0.548   9.083  2.1260 -1.1577  0.8278
   27CHL1  H27C 1998   0.629   0.509   9.199 -1.4195  0.3895  1.3090
   28CHL1    C3 1999   6.309   4.248  10.167  0.1859 -0.3075 -0.2689
   28CHL1    H3 2000   6.299   4.358  10.153  3.6952  0.1012 -0.5410
   28CHL1    O3 2001   6.272   4.215  10.299  0.6070  0.1716  0.9797
   28CHL1   H3' 2002   6.282   4.119  10.297  3.5775  0.3880 -0.6508
   28CHL1    C4 2003   6.223   4.170  10.058 -0.6500 -0.0682 -0.3947
   28CHL1   H4A 2004   6.232   4.062  10.083 -2.4521 -0.2752 -0.5151
   28CHL1   H4B 2005   6.117   4.200  10.071 -0.9685 -0.8837 -1.0387
   28CHL1    C5 2006   6.276   4.191   9.915 -0.1968 -0.0103  0.8417
   28CHL1    C6 2007   6.203   4.248   9.815  0.0376  0.1775 -0.1046
   28CHL1    H6 2008   6.095   4.268   9.824 -0.4449 -1.5580 -1.6830
   28CHL1    C7 2009   6.261   4.271   9.675 -0.7391 -0.1281 -0.1492
   28CHL1   H7A 2010   6.184   4.241   9.601 -0.6490  1.1970 -0.8108
   28CHL1   H7B 2011   6.291   4.375   9.650  1.2235 -1.1223 -2.2419
   28CHL1    C8 2012   6.400   4.200   9.650 -0.2622 -0.0473  0.2996
   28CHL1    H8 2013   6.363   4.097   9.630  0.9086 -0.4951  0.3912
   28CHL1   C14 2014   6.466   4.266   9.525  0.3500  0.2167  0.0427
   28CHL1   H14 2015   6.490   4.364   9.572  2.4124  0.3300 -1.1396
   28CHL1   C15 2016   6.376   4.299   9.403 -0.0591 -0.5164  0.3892
   28CHL1  H15A 2017   6.310   4.210   9.399  2.0792 -2.2900  1.8859
   28CHL1  H15B 2018   6.327   4.398   9.416  2.8627  1.3279 -1.2772
   28CHL1   C16 2019   6.476   4.296   9.291  0.1877 -0.7583  0.3355
   28CHL1  H16A 2020   6.447   4.215   9.221 -0.5389  0.9536 -1.4156
   28CHL1  H16B 2021   6.462   4.390   9.235 -0.7906 -0.1256  1.5800
   28CHL1   C17 2022   6.624   4.276   9.347  0.3688 -0.5882  0.0426
   28CHL1   H17 2023   6.648   4.382   9.370 -0.5125 -0.4646  0.4300
   28CHL1   C13 2024   6.600   4.208   9.485  0.5083 -0.1918  0.6870
   28CHL1   C18 2025   6.586   4.056   9.446  0.3257 -0.7851  0.6743
   28CHL1  H18A 2026   6.548   3.993   9.530  1.1243 -0.4247  1.3163
   28CHL1  H18B 2027   6.509   4.050   9.366  0.0952  2.7971  0.4856
   28CHL1  H18C 2028   6.683   4.016   9.410 -1.0739 -2.3096 -1.6526
   28CHL1   C12 2029   6.697   4.228   9.600  0.3918 -0.5994  0.4586
   28CHL1  H12A 2030   6.802   4.194   9.588  0.2328 -1.0275  0.2555
   28CHL1  H12B 2031   6.715   4.338   9.597 -0.5030 -0.4473  0.1095
   28CHL1   C11 2032   6.629   4.184   9.734 -0.0488 -1.0002  0.3529
   28CHL1  H11A 2033   6.647   4.075   9.743 -0.0323 -0.8998  1.8452
   28CHL1  H11B 2034   6.689   4.229   9.816  0.5969 -1.3788  0.1031
   28CHL1    C9 2035   6.485   4.214   9.770 -0.8439  0.0754 -0.0653
   28CHL1    H9 2036   6.488   4.321   9.797  0.2818  0.1277 -0.3413
   28CHL1   C10 2037   6.428   4.159   9.900 -0.2019 -0.5778 -0.1588
   28CHL1   C19 2038   6.437   4.006   9.894 -0.0055 -0.3837  0.6373
   28CHL1  H19A 2039   6.373   3.973   9.809  1.8586 -2.6611 -0.0190
   28CHL1  H19B 2040   6.538   3.967   9.867 -0.6100 -1.8455  0.3696
   28CHL1  H19C 2041   6.396   3.951   9.981 -1.1758  0.9462  0.9587
   28CHL1    C1 2042   6.518   4.218  10.018  0.1192  0.2906  0.1522
   28CHL1   H1A 2043   6.616   4.166  10.009 -0.9527 -1.7630 -0.2920
   28CHL1   H1B 2044   6.513   4.329  10.013 -1.6361  0.1906 -1.7917
   28CHL1    C2 2045   6.451   4.192  10.160 -1.0995  0.0055 -0.2337
   28CHL1   H2A 2046   6.508   4.240  10.243 -0.8737  0.2496 -0.5261
   28CHL1   H2B 2047   6.449   4.084  10.184 -5.4671 -0.4874 -1.8320
   28CHL1   C20 2048   6.721   4.222   9.242  0.2147 -0.0712  0.5065
   28CHL1   H20 2049   6.688   4.116   9.229  0.8477 -0.3394  1.0586
   28CHL1   C21 2050   6.861   4.214   9.307  0.0176  0.0122 -0.2578
   28CHL1  H21A 2051   6.891   4.320   9.322 -2.8238  0.6279  1.7466
   28CHL1  H21B 2052   6.933   4.163   9.239 -0.2170  0.2620 -0.6995
   28CHL1  H21C 2053   6.866   4.167   9.408 -3.1768  2.5593  1.2684
   28CHL1   C22 2054   6.717   4.299   9.104 -0.0546  0.1658  0.2119
   28CHL1  H22A 2055   6.778   4.240   9.032 -2.4214 -1.2574 -0.7629
   28CHL1  H22B 2056   6.611   4.290   9.071 -0.3182 -0.0528  1.1076
   28CHL1   C23 2057   6.772   4.437   9.104 -0.3233 -0.7457 -0.2545
   28CHL1  H23A 2058   6.719   4.493   9.184 -1.3963 -1.5766 -0.3600
   28CHL1  H23B 2059   6.882   4.432   9.123 -0.7433 -0.8551  2.6751
   28CHL1   C24 2060   6.754   4.515   8.975  0.5840 -0.0581  0.2313
   28CHL1  H24A 2061   6.801   4.616   8.975 -0.4874  0.4581 -0.3582
   28CHL1  H24B 2062   6.804   4.465   8.889  0.6683 -1.9325  1.3203
   28CHL1   C25 2063   6.603   4.549   8.947  0.4519  0.0302 -0.4149
   28CHL1   H25 2064   6.541   4.460   8.969 -1.1730  1.0361 -0.8197
   28CHL1   C26 2065   6.554   4.676   9.022 -0.6402 -0.1034  0.4107
   28CHL1  H26A 2066   6.447   4.700   9.004 -1.5842 -2.1337  2.7311
   28CHL1  H26B 2067   6.568   4.671   9.132  0.8596  0.6448  0.2756
   28CHL1  H26C 2068   6.606   4.765   8.980 -1.7188  0.3434 -0.0165
   28CHL1   C27 2069   6.574   4.561   8.805  0.0434  0.0363  0.2322
   28CHL1  H27A 2070   6.595   4.658   8.756 -1.8945 -0.3690 -1.5484
   28CHL1  H27B 2071   6.616   4.477   8.744  0.3561  0.0486  0.4269
   28CHL1  H27C 2072   6.464   4.551   8.801  0.1945 -1.6611 -2.0358
   29CHL1    C3 2073   1.919   1.532   6.733 -0.0546 -0.1680 -0.5941
   29CHL1    H3 2074   1.818   1.555   6.772 -0.3408 -3.1584  0.6444
   29CHL1    O3 2075   1.926   1.509   6.594  0.3182  0.0767 -0.1251
   29CHL1   H3' 2076   1.898   1.418   6.589 -2.5534  0.6573  2.6041
   29CHL1    C4 2077   2.018   1.652   6.773 -0.3081  0.0112 -0.0125
   29CHL1   H4A 2078   2.115   1.626   6.725 -0.7997 -0.4622 -0.7699
   29CHL1   H4B 2079   1.989   1.747   6.723  0.5319  0.3898  0.2099
   29CHL1    C5 2080   2.022   1.668   6.923  0.2089 -0.0747  0.0956
   29CHL1    C6 2081   1.999   1.785   6.985 -0.4297 -0.1166  0.1352
   29CHL1    H6 2082   1.991   1.872   6.917 -1.0870 -1.7923 -2.0449
   29CHL1    C7 2083   1.993   1.804   7.134 -0.0337 -0.5397 -0.2995
   29CHL1   H7A 2084   2.047   1.900   7.152  1.1417 -1.0089 -1.2169
   29CHL1   H7B 2085   1.889   1.827   7.164  0.9706  1.9322  1.6357
   29CHL1    C8 2086   2.054   1.691   7.225  0.2893 -0.5599  0.2172
   29CHL1    H8 2087   2.165   1.690   7.218  0.2736 -0.6503 -0.0197
   29CHL1   C14 2088   2.011   1.706   7.365  0.5158 -0.2239  0.8052
   29CHL1   H14 2089   1.901   1.693   7.371  0.4809 -0.4036  0.0102
   29CHL1   C15 2090   2.035   1.844   7.433  0.0239  0.3759  0.4524
   29CHL1  H15A 2091   2.141   1.868   7.409  1.0945 -3.3714  0.7822
   29CHL1  H15B 2092   1.967   1.919   7.389  1.0171  0.7584 -0.4773
   29CHL1   C16 2093   2.029   1.815   7.586 -0.4784  0.5285  0.0793
   29CHL1  H16A 2094   2.128   1.838   7.629 -0.2273  1.6158 -1.0139
   29CHL1  H16B 2095   1.948   1.872   7.636  0.1583  0.6059  1.0345
   29CHL1   C17 2096   2.003   1.664   7.604 -0.0596  0.4645  0.0320
   29CHL1   H17 2097   1.893   1.653   7.598 -0.3552  3.3389 -1.4206
   29CHL1   C13 2098   2.068   1.598   7.470 -0.2155 -0.0408  0.1169
   29CHL1   C18 2099   2.217   1.604   7.479  0.2503 -0.1519 -0.5084
   29CHL1  H18A 2100   2.265   1.575   7.383  0.2050 -1.0846 -0.2595
   29CHL1  H18B 2101   2.255   1.704   7.509 -1.2575  0.6429 -1.1597
   29CHL1  H18C 2102   2.258   1.532   7.554 -0.5671  0.2803  0.3789
   29CHL1   C12 2103   2.017   1.466   7.416 -0.7631  0.2803  0.7909
   29CHL1  H12A 2104   2.061   1.382   7.474  1.8833 -1.0421 -2.7832
   29CHL1  H12B 2105   1.906   1.468   7.421 -0.8975  1.0532 -1.3820
   29CHL1   C11 2106   2.052   1.444   7.268 -0.1566  0.0354  0.4422
   29CHL1  H11A 2107   2.162   1.432   7.268 -0.2989 -1.9323 -1.6688
   29CHL1  H11B 2108   2.012   1.346   7.235  0.1499  0.9366 -2.9781
   29CHL1    C9 2109   2.006   1.562   7.171 -0.5949  0.6941  0.6783
   29CHL1    H9 2110   1.895   1.566   7.169 -0.6521  1.1986 -3.3638
   29CHL1   C10 2111   2.041   1.538   7.016  0.0454 -0.6534  0.1609
   29CHL1   C19 2112   2.185   1.494   7.000 -0.7807  0.4294  0.0475
   29CHL1  H19A 2113   2.201   1.397   7.050  0.9260  0.8240  0.3306
   29CHL1  H19B 2114   2.209   1.495   6.891 -0.3381 -0.8861  0.1138
   29CHL1  H19C 2115   2.248   1.563   7.061 -0.0997 -0.5225  0.4448
   29CHL1    C1 2116   1.953   1.416   6.963 -0.0914  0.0178 -0.6635
   29CHL1   H1A 2117   1.985   1.328   7.023 -2.4644  1.7389  3.5919
   29CHL1   H1B 2118   1.852   1.454   6.989  1.1926  2.4641  1.1971
   29CHL1    C2 2119   1.955   1.398   6.805 -0.8872 -0.0390 -0.3287
   29CHL1   H2A 2120   1.886   1.316   6.775 -0.0601 -1.9617  2.6591
   29CHL1   H2B 2121   2.060   1.370   6.781 -0.9860 -2.1308  1.4470
   29CHL1   C20 2122   2.045   1.607   7.739 -0.0309  0.4849 -0.1439
   29CHL1   H20 2123   2.156   1.613   7.743  0.1974 -2.2336 -0.2995
   29CHL1   C21 2124   2.026   1.458   7.744  0.3322 -0.4658 -0.2728
   29CHL1  H21A 2125   2.084   1.407   7.664  2.8232  2.1908 -0.3491
   29CHL1  H21B 2126   1.922   1.423   7.729  0.8552 -2.3170  0.1861
   29CHL1  H21C 2127   2.057   1.419   7.843 -1.1059 -1.0480 -0.0259
   29CHL1   C22 2128   1.982   1.670   7.859  0.1061 -0.6375  0.3785
   29CHL1  H22A 2129   2.010   1.777   7.864  0.7680 -0.8250  0.8963
   29CHL1  H22B 2130   1.874   1.654   7.839  0.0972  2.9202 -4.0322
   29CHL1   C23 2131   2.023   1.612   7.997  0.4733  0.3003 -0.0333
   29CHL1  H23A 2132   1.967   1.520   8.023  2.4259 -1.2476 -1.0444
   29CHL1  H23B 2133   2.132   1.588   7.996  0.2323 -0.9039  0.7459
   29CHL1   C24 2134   1.991   1.711   8.118  0.6012  0.1918  0.0688
   29CHL1  H24A 2135   2.036   1.806   8.082  0.9087 -0.9916 -2.9888
   29CHL1  H24B 2136   1.880   1.716   8.119  0.6470  2.5743 -1.0447
   29CHL1   C25 2137   2.040   1.670   8.257  0.8122 -0.1845  0.1951
   29CHL1   H25 2138   1.998   1.570   8.278  0.0700  0.5634  2.5143
   29CHL1   C26 2139   2.191   1.667   8.259 -0.5155  0.1112  0.1602
   29CHL1  H26A 2140   2.232   1.750   8.198  0.9521  0.0043  0.9403
   29CHL1  H26B 2141   2.234   1.681   8.361  0.7936 -0.4257 -0.2959
   29CHL1  H26C 2142   2.238   1.577   8.213 -2.1067  0.3010 -1.9331
   29CHL1   C27 2143   1.985   1.764   8.371 -0.0349 -0.7653 -1.1576
   29CHL1  H27A 2144   2.013   1.870   8.356 -1.4141  0.1018  1.6914
   29CHL1  H27B 2145   1.874   1.760   8.377  0.0237 -0.7200  0.2769
   29CHL1  H27C 2146   2.010   1.733   8.475 -1.5795  2.1376  0.1646
   30CHL1    C3 2147   0.223   1.004   7.328  0.0888  0.0510  0.0219
   30CHL1    H3 2148   0.294   1.087   7.306 -0.2600  0.4830  0.4976
   30CHL1    O3 2149   0.176   0.963   7.201 -0.1188 -0.0973  0.2861
   30CHL1   H3' 2150   0.213   1.031   7.144  0.3234 -0.5703  0.0087
   30CHL1    C4 2151   0.287   0.887   7.408  1.0046 -0.1828  0.4117
   30CHL1   H4A 2152   0.212   0.806   7.399  0.1722  0.6889 -0.7832
   30CHL1   H4B 2153   0.379   0.854   7.354 -0.4972 -2.3987 -0.9459
   30CHL1    C5 2154   0.306   0.904   7.555 -0.2333  0.0163 -0.0520
   30CHL1    C6 2155   0.424   0.856   7.606  0.0136  0.3585  0.3975
   30CHL1    H6 2156   0.497   0.812   7.537  1.7616  1.3765  1.5221
   30CHL1    C7 2157   0.465   0.863   7.754  0.5715  0.4275  0.3128
   30CHL1   H7A 2158   0.481   0.760   7.792  1.9907  1.4706  2.8602
   30CHL1   H7B 2159   0.564   0.913   7.760 -0.2970  2.2435  0.3406
   30CHL1    C8 2160   0.352   0.916   7.843 -0.3411 -0.4880 -0.5926
   30CHL1    H8 2161   0.277   0.838   7.866 -2.5229  1.5058 -0.5967
   30CHL1   C14 2162   0.418   0.971   7.974  0.1551 -0.0459 -0.3889
   30CHL1   H14 2163   0.491   1.045   7.934  0.4360 -1.3920 -2.5795
   30CHL1   C15 2164   0.504   0.885   8.067 -0.0127 -0.0344 -0.1385
   30CHL1  H15A 2165   0.458   0.784   8.068 -3.0897  1.2589 -0.8544
   30CHL1  H15B 2166   0.604   0.888   8.019  0.2176 -0.1067  0.3305
   30CHL1   C16 2167   0.508   0.963   8.202 -0.4790  0.3288 -0.1423
   30CHL1  H16A 2168   0.486   0.886   8.279  1.7076 -1.5124 -1.2111
   30CHL1  H16B 2169   0.613   0.999   8.211 -0.8311  1.0838  1.0799
   30CHL1   C17 2170   0.411   1.079   8.184  0.0420 -0.0069  0.1696
   30CHL1   H17 2171   0.449   1.177   8.149  3.5088 -1.3547 -0.2614
   30CHL1   C13 2172   0.318   1.033   8.065  0.3927  0.3190  0.5866
   30CHL1   C18 2173   0.212   0.931   8.115 -0.0357  0.8300  0.4961
   30CHL1  H18A 2174   0.272   0.856   8.172 -0.6069 -1.8920 -2.2161
   30CHL1  H18B 2175   0.132   0.984   8.171  1.7449  1.5121  2.5379
   30CHL1  H18C 2176   0.154   0.885   8.033 -1.4820 -3.9970  3.7744
   30CHL1   C12 2177   0.259   1.156   7.996 -0.0720  0.7183 -0.2249
   30CHL1  H12A 2178   0.180   1.179   8.071 -0.3843 -0.7221 -0.0907
   30CHL1  H12B 2179   0.327   1.243   7.979 -0.0327  0.4388 -1.6785
   30CHL1   C11 2180   0.195   1.114   7.864 -0.0727  0.3291 -0.5756
   30CHL1  H11A 2181   0.104   1.058   7.894 -0.0632  0.7177  0.2191
   30CHL1  H11B 2182   0.161   1.206   7.811 -1.6602 -0.0926 -0.3158
   30CHL1    C9 2183   0.277   1.027   7.768  0.7019  0.0715 -0.3410
   30CHL1    H9 2184   0.361   1.090   7.734  1.6327 -1.3111 -0.6515
   30CHL1   C10 2185   0.203   0.975   7.635  0.0187 -0.2549 -0.0540
   30CHL1   C19 2186   0.075   0.890   7.674 -0.7128  0.1753 -0.2019
   30CHL1  H19A 2187   0.093   0.824   7.762  0.6513  1.5682  0.6265
   30CHL1  H19B 2188  -0.018   0.951   7.680 -0.3337  0.6339  2.6317
   30CHL1  H19C 2189   0.063   0.827   7.584  2.1432  1.2794 -1.4829
   30CHL1    C1 2190   0.159   1.103   7.552 -0.3525  0.4995 -0.0325
   30CHL1   H1A 2191   0.069   1.140   7.605 -0.7424 -0.3594 -0.0811
   30CHL1   H1B 2192   0.239   1.181   7.547  2.1470 -1.9767 -2.8110
   30CHL1    C2 2193   0.117   1.071   7.407 -0.0113 -0.0041 -0.1276
   30CHL1   H2A 2194   0.078   1.164   7.359 -2.5944 -1.4413 -0.9720
   30CHL1   H2B 2195   0.035   0.997   7.415  0.1454  0.0415  2.8217
   30CHL1   C20 2196   0.337   1.126   8.316  0.6233  0.1808  0.5967
   30CHL1   H20 2197   0.239   1.163   8.278 -0.0109 -0.2630  1.7427
   30CHL1   C21 2198   0.411   1.248   8.371  0.3387  0.3807 -0.2309
   30CHL1  H21A 2199   0.346   1.310   8.435  0.0134  1.9233 -1.9654
   30CHL1  H21B 2200   0.453   1.310   8.289  2.5770  0.3345  0.8070
   30CHL1  H21C 2201   0.491   1.207   8.436  0.8281 -0.7943 -1.5137
   30CHL1   C22 2202   0.309   1.021   8.427 -0.0517  0.0967  0.0079
   30CHL1  H22A 2203   0.251   0.935   8.386  0.9737 -0.6565  0.0708
   30CHL1  H22B 2204   0.410   0.984   8.454  0.1613 -1.3028 -2.3851
   30CHL1   C23 2205   0.250   1.080   8.552  0.7850 -0.2729 -0.3393
   30CHL1  H23A 2206   0.317   1.154   8.600  1.6499 -0.0063 -1.9062
   30CHL1  H23B 2207   0.145   1.114   8.536  1.0377  1.2954  1.0436
   30CHL1   C24 2208   0.230   0.965   8.647 -0.4324  0.2721 -0.1924
   30CHL1  H24A 2209   0.145   0.911   8.602  0.2915  0.3067 -1.6689
   30CHL1  H24B 2210   0.318   0.897   8.651 -0.2499  0.5327  2.1070
   30CHL1   C25 2211   0.211   1.005   8.795  0.6431 -0.2417 -0.3711
   30CHL1   H25 2212   0.138   1.088   8.800  0.0686 -0.7230 -0.6996
   30CHL1   C26 2213   0.163   0.886   8.874  0.4918  0.6125  0.1592
   30CHL1  H26A 2214   0.236   0.807   8.846  0.7648 -0.1058  2.7132
   30CHL1  H26B 2215   0.155   0.912   8.982 -0.9130  0.7543  0.0428
   30CHL1  H26C 2216   0.061   0.851   8.846  0.7532  0.7532 -1.0494
   30CHL1   C27 2217   0.341   1.060   8.856 -0.0276 -0.6216 -0.2409
   30CHL1  H27A 2218   0.386   1.124   8.777 -2.3023  3.6767  1.6073
   30CHL1  H27B 2219   0.310   1.121   8.943 -0.7089 -2.5297  0.8968
   30CHL1  H27C 2220   0.426   0.993   8.877  1.3790  0.7694 -1.2727
   31CHL1    C3 2221   0.851   1.524   6.913 -0.1171 -0.6029 -0.0733
   31CHL1    H3 2222   0.767   1.584   6.952  2.1009  1.6971  1.5163
   31CHL1    O3 2223   0.823   1.510   6.775  0.0443  0.3480 -0.4905
   31CHL1   H3' 2224   0.744   1.456   6.770 -0.1940  0.6848 -0.4415
   31CHL1    C4 2225   0.989   1.593   6.934  1.0849 -0.0381 -0.0436
   31CHL1   H4A 2226   1.070   1.520   6.913  0.1241 -1.1757  0.1727
   31CHL1   H4B 2227   1.001   1.685   6.872 -0.0546  0.3290  0.2606
   31CHL1    C5 2228   0.996   1.635   7.079  0.5315  0.3330 -0.8304
   31CHL1    C6 2229   1.008   1.765   7.108 -0.3516 -0.0634 -0.1756
   31CHL1    H6 2230   1.015   1.831   7.021 -0.3463 -2.1261 -1.8390
   31CHL1    C7 2231   1.027   1.810   7.246 -0.3780  0.5106 -0.9801
   31CHL1   H7A 2232   1.111   1.881   7.242 -0.5437  0.9208  1.5837
   31CHL1   H7B 2233   0.935   1.866   7.275 -1.8784 -1.6445 -1.2953
   31CHL1    C8 2234   1.059   1.696   7.350  0.1904 -1.2991  0.4675
   31CHL1    H8 2235   1.167   1.672   7.336  0.9953  0.6808  2.6328
   31CHL1   C14 2236   1.037   1.742   7.498 -0.2287 -0.5379 -0.1597
   31CHL1   H14 2237   0.929   1.767   7.499  0.3980  2.4757  0.4367
   31CHL1   C15 2238   1.126   1.869   7.540 -0.6819 -0.1716  0.9601
   31CHL1  H15A 2239   1.231   1.877   7.505 -0.7254  1.9672  1.1921
   31CHL1  H15B 2240   1.082   1.959   7.493  2.5856 -0.7959 -4.1100
   31CHL1   C16 2241   1.113   1.846   7.692 -0.3137  0.0298 -0.3999
   31CHL1  H16A 2242   1.212   1.857   7.741 -0.6709 -1.7686  0.8122
   31CHL1  H16B 2243   1.048   1.929   7.727 -0.0749  0.5451 -1.1461
   31CHL1   C17 2244   1.054   1.709   7.730 -0.2417  0.5485  0.4161
   31CHL1   H17 2245   0.943   1.708   7.740 -0.4553 -2.5294 -0.9125
   31CHL1   C13 2246   1.062   1.634   7.597  0.7726  0.7705  0.5087
   31CHL1   C18 2247   1.207   1.582   7.575  0.3900 -0.0138 -0.3823
   31CHL1  H18A 2248   1.231   1.511   7.657 -0.9750  0.0955  0.1333
   31CHL1  H18B 2249   1.227   1.522   7.483  1.2154 -2.6655  1.4171
   31CHL1  H18C 2250   1.280   1.665   7.574  0.6993 -0.2755 -2.0937
   31CHL1   C12 2251   0.960   1.524   7.576 -0.4745 -0.1652 -0.4312
   31CHL1  H12A 2252   0.973   1.437   7.643 -0.4230 -0.7396 -1.1765
   31CHL1  H12B 2253   0.856   1.558   7.597  0.3828  2.7377 -0.4421
   31CHL1   C11 2254   0.968   1.467   7.436  0.1205  0.9485  0.1956
   31CHL1  H11A 2255   1.065   1.412   7.432 -1.8181 -2.7855  0.2654
   31CHL1  H11B 2256   0.894   1.386   7.416 -0.9594  2.3282 -1.6490
   31CHL1    C9 2257   0.968   1.575   7.324  0.0541  0.0764 -0.2527
   31CHL1    H9 2258   0.865   1.618   7.324 -0.8909 -2.0115 -1.9657
   31CHL1   C10 2259   0.981   1.516   7.180  0.3835  0.0201 -0.0706
   31CHL1   C19 2260   1.104   1.423   7.177  0.3849  0.3438  0.0208
   31CHL1  H19A 2261   1.082   1.332   7.238 -1.2066  0.4477 -0.3670
   31CHL1  H19B 2262   1.128   1.389   7.074 -0.2404 -1.6497  0.4881
   31CHL1  H19C 2263   1.193   1.466   7.227 -0.6237  0.7038  1.5840
   31CHL1    C1 2264   0.860   1.415   7.145  0.2230  0.4305  0.1541
   31CHL1   H1A 2265   0.872   1.320   7.202 -1.3128  2.2471  3.7725
   31CHL1   H1B 2266   0.766   1.464   7.176 -0.1821 -1.4175  2.1131
   31CHL1    C2 2267   0.852   1.391   6.996 -0.7343  1.0646  0.1540
   31CHL1   H2A 2268   0.759   1.336   6.971 -0.5019  0.0508  1.3923
   31CHL1   H2B 2269   0.927   1.321   6.954 -1.1058  0.9438 -0.3162
   31CHL1   C20 2270   1.109   1.662   7.864  0.5929  0.6326  0.6992
   31CHL1   H20 2271   1.218   1.655   7.847  0.3103 -1.2167 -0.6214
   31CHL1   C21 2272   1.048   1.528   7.914  0.3632 -0.1662  0.3886
   31CHL1  H21A 2273   1.047   1.453   7.832  1.4456 -0.1700  0.3643
   31CHL1  H21B 2274   0.939   1.549   7.922  0.5887  1.2942 -0.0925
   31CHL1  H21C 2275   1.099   1.483   8.002 -0.2567  0.4127  1.0535
   31CHL1   C22 2276   1.095   1.778   7.971  0.3068 -0.4661 -0.5316
   31CHL1  H22A 2277   1.167   1.858   7.944  0.6934 -1.2098 -1.7749
   31CHL1  H22B 2278   0.989   1.811   7.978  0.3362 -0.5598  0.5286
   31CHL1   C23 2279   1.141   1.739   8.115  1.0607  0.5627  0.5251
   31CHL1  H23A 2280   1.072   1.661   8.155  0.1106  0.0903 -1.8901
   31CHL1  H23B 2281   1.239   1.691   8.093  0.4889 -0.1322 -0.5824
   31CHL1   C24 2282   1.169   1.858   8.201 -0.2103 -0.1605 -0.5853
   31CHL1  H24A 2283   1.211   1.937   8.134 -1.5946  0.4111 -0.7975
   31CHL1  H24B 2284   1.077   1.900   8.246  0.2924  0.0888  0.2197
   31CHL1   C25 2285   1.258   1.814   8.320  0.4733 -0.0374  0.0708
   31CHL1   H25 2286   1.342   1.753   8.280  1.2882  1.7294 -1.0197
   31CHL1   C26 2287   1.329   1.930   8.384  0.2972 -0.5895 -0.7429
   31CHL1  H26A 2288   1.417   1.902   8.446  0.4812  0.1414 -0.6561
   31CHL1  H26B 2289   1.372   1.993   8.303 -0.7860  1.4403  0.1631
   31CHL1  H26C 2290   1.261   2.008   8.425  0.5910 -0.0601 -1.2395
   31CHL1   C27 2291   1.186   1.724   8.419  0.2813 -0.5953  0.7236
   31CHL1  H27A 2292   1.089   1.776   8.435  0.2570 -0.3713 -0.0836
   31CHL1  H27B 2293   1.234   1.720   8.519  1.1534 -0.8851  0.2996
   31CHL1  H27C 2294   1.183   1.621   8.376  0.4067  0.5529 -2.2669
   32CHL1    C3 2295   0.624   2.060   6.872  0.6727  0.4990 -0.0928
   32CHL1    H3 2296   0.605   2.170   6.870 -1.3300  0.2224  0.9200
   32CHL1    O3 2297   0.649   2.023   6.734  0.6449  0.4776 -0.5011
   32CHL1   H3' 2298   0.622   2.099   6.682  0.7978  1.7266  1.1625
   32CHL1    C4 2299   0.741   2.032   6.965  0.5506  0.4801 -0.0481
   32CHL1   H4A 2300   0.783   1.930   6.951 -2.7895 -0.7611 -2.2937
   32CHL1   H4B 2301   0.817   2.105   6.929  0.8215  0.8770  1.2812
   32CHL1    C5 2302   0.715   2.052   7.112 -0.0959  0.7278  0.3905
   32CHL1    C6 2303   0.796   2.137   7.178  0.4195  0.7068 -0.4886
   32CHL1    H6 2304   0.868   2.193   7.118  0.7389 -0.3018 -1.0629
   32CHL1    C7 2305   0.791   2.158   7.326 -0.2060  0.3738  0.3264
   32CHL1   H7A 2306   0.890   2.145   7.376  0.6065  0.3566 -1.2244
   32CHL1   H7B 2307   0.757   2.262   7.344 -1.0441 -0.0344  1.2281
   32CHL1    C8 2308   0.695   2.051   7.384 -0.4657  0.1651 -0.1067
   32CHL1    H8 2309   0.752   1.956   7.384 -0.7055 -0.0039  1.1729
   32CHL1   C14 2310   0.662   2.091   7.524  1.3413  0.3519 -0.0103
   32CHL1   H14 2311   0.597   2.181   7.513  0.7403  0.0160  0.7506
   32CHL1   C15 2312   0.783   2.126   7.617 -0.2073  0.5642  0.2319
   32CHL1  H15A 2313   0.867   2.054   7.601  0.0380  1.2407 -1.8532
   32CHL1  H15B 2314   0.821   2.227   7.592  0.3629 -0.4212 -3.6262
   32CHL1   C16 2315   0.724   2.115   7.761 -0.1852  0.4555  0.6686
   32CHL1  H16A 2316   0.795   2.054   7.820 -1.4041  1.6354  3.5249
   32CHL1  H16B 2317   0.722   2.215   7.810  0.3959  1.7068 -1.6893
   32CHL1   C17 2318   0.577   2.057   7.748 -0.3100 -0.1314 -0.0112
   32CHL1   H17 2319   0.510   2.144   7.738 -0.3632 -0.3169 -1.6161
   32CHL1   C13 2320   0.569   1.994   7.603 -0.2771 -0.4212  1.2088
   32CHL1   C18 2321   0.650   1.856   7.619 -0.2157  0.3549 -0.2380
   32CHL1  H18A 2322   0.598   1.776   7.677 -0.0957  1.0819  0.8837
   32CHL1  H18B 2323   0.674   1.809   7.521 -0.3026 -3.2699  1.3081
   32CHL1  H18C 2324   0.744   1.874   7.676 -1.4306  0.0958  1.9585
   32CHL1   C12 2325   0.432   1.984   7.523  0.9987  0.2349  0.2163
   32CHL1  H12A 2326   0.369   1.908   7.573  1.0567  0.1234  0.1216
   32CHL1  H12B 2327   0.380   2.081   7.535  1.1060  0.3759 -0.3891
   32CHL1   C11 2328   0.457   1.941   7.378 -0.1497 -0.3598 -0.5488
   32CHL1  H11A 2329   0.501   1.839   7.383 -0.1880 -0.3467  0.0679
   32CHL1  H11B 2330   0.362   1.947   7.321 -1.0301  0.1244  0.9260
   32CHL1    C9 2331   0.566   2.032   7.305  0.0635  0.3716  0.3389
   32CHL1    H9 2332   0.513   2.129   7.291 -2.6839 -0.9632  0.8534
   32CHL1   C10 2333   0.598   1.981   7.158  0.0918 -0.7126  0.5549
   32CHL1   C19 2334   0.634   1.827   7.158  0.0268  0.6199  1.0929
   32CHL1  H19A 2335   0.546   1.763   7.181  1.4766 -1.1291  2.0415
   32CHL1  H19B 2336   0.660   1.787   7.057 -1.0042  1.8660  0.3060
   32CHL1  H19C 2337   0.713   1.804   7.233  4.3821 -2.2987 -3.7070
   32CHL1    C1 2338   0.476   2.013   7.066 -0.2038  0.1572 -0.8402
   32CHL1   H1A 2339   0.382   1.961   7.095  1.0174 -1.3482  0.5578
   32CHL1   H1B 2340   0.443   2.118   7.082 -1.2698 -0.2152 -0.5059
   32CHL1    C2 2341   0.499   1.983   6.918 -0.8350  0.2549  0.0334
   32CHL1   H2A 2342   0.407   2.009   6.862 -2.2719 -2.0849  1.1344
   32CHL1   H2B 2343   0.524   1.875   6.907 -1.0010  0.2769 -0.5817
   32CHL1   C20 2344   0.531   1.973   7.867 -0.6645  0.3968 -0.5525
   32CHL1   H20 2345   0.586   1.877   7.875 -3.3561 -1.0967  2.0000
   32CHL1   C21 2346   0.378   1.952   7.868 -0.3201 -0.5237  0.6647
   32CHL1  H21A 2347   0.354   1.909   7.967 -0.7674 -2.1489 -0.1253
   32CHL1  H21B 2348   0.344   1.886   7.785 -0.4035 -0.4676  0.6533
   32CHL1  H21C 2349   0.322   2.048   7.873 -1.0993 -1.0255  1.9526
   32CHL1   C22 2350   0.571   2.035   8.007 -0.8362 -0.0108  0.2835
   32CHL1  H22A 2351   0.676   2.071   8.004 -0.7026  0.2150  3.5721
   32CHL1  H22B 2352   0.508   2.126   8.018  1.1276  1.6674 -1.4013
   32CHL1   C23 2353   0.553   1.937   8.124 -0.3140 -0.1200 -0.2759
   32CHL1  H23A 2354   0.447   1.912   8.147 -1.1238  2.9284 -0.2091
   32CHL1  H23B 2355   0.608   1.844   8.097 -2.3702 -1.7500  0.8519
   32CHL1   C24 2356   0.600   2.006   8.252 -0.1181  0.1039  0.0127
   32CHL1  H24A 2357   0.708   2.035   8.248 -0.6787  2.3194 -0.2738
   32CHL1  H24B 2358   0.544   2.100   8.271 -1.2230 -0.2770 -1.2765
   32CHL1   C25 2359   0.611   1.913   8.374 -0.1748 -0.1878 -0.5188
   32CHL1   H25 2360   0.643   1.966   8.466 -0.2194 -0.9664 -0.0447
   32CHL1   C26 2361   0.474   1.848   8.403 -0.7345 -0.7103 -0.3939
   32CHL1  H26A 2362   0.436   1.804   8.308  2.2806  4.7013 -4.6871
   32CHL1  H26B 2363   0.481   1.773   8.484  2.6800  0.1130  0.2112
   32CHL1  H26C 2364   0.407   1.934   8.427  0.8837  0.2355  0.8942
   32CHL1   C27 2365   0.715   1.806   8.351  0.4723 -0.5487  0.2606
   32CHL1  H27A 2366   0.730   1.746   8.443  0.9455  0.8816  1.1446
   32CHL1  H27B 2367   0.686   1.751   8.258  2.5726  0.0171 -0.7788
   32CHL1  H27C 2368   0.809   1.863   8.341  0.7703 -1.0854 -0.0540
   33CHL1    C3 2369   1.352   0.607   6.789  0.5821  0.5358  0.2089
   33CHL1    H3 2370   1.431   0.529   6.800  0.3346  0.1487 -0.6110
   33CHL1    O3 2371   1.335   0.611   6.649  0.4975 -0.4020  0.2236
   33CHL1   H3' 2372   1.322   0.518   6.631 -2.8709 -0.4670  2.1033
   33CHL1    C4 2373   1.225   0.563   6.847 -0.4062  0.4843  0.2769
   33CHL1   H4A 2374   1.138   0.630   6.825 -0.0857  0.3138 -1.6717
   33CHL1   H4B 2375   1.184   0.468   6.806  0.8713  0.5481 -1.2137
   33CHL1    C5 2376   1.234   0.547   6.998  0.5330 -0.6720 -0.1492
   33CHL1    C6 2377   1.219   0.430   7.059  0.4566 -0.4499 -0.4376
   33CHL1    H6 2378   1.205   0.337   7.002  2.1143  0.2128 -2.0408
   33CHL1    C7 2379   1.220   0.414   7.206 -0.1956 -0.6313 -0.6382
   33CHL1   H7A 2380   1.136   0.349   7.239  0.1595 -0.4521  0.6571
   33CHL1   H7B 2381   1.317   0.362   7.226 -0.4897 -0.5992  0.9270
   33CHL1    C8 2382   1.201   0.546   7.283  0.1670 -0.2992 -0.6141
   33CHL1    H8 2383   1.099   0.590   7.280  0.3894  0.7135  2.8288
   33CHL1   C14 2384   1.243   0.522   7.430 -0.2992 -0.0151 -0.2439
   33CHL1   H14 2385   1.348   0.487   7.424  0.4058  1.5999  1.5249
   33CHL1   C15 2386   1.171   0.407   7.499  0.3412  0.5360 -0.1279
   33CHL1  H15A 2387   1.064   0.434   7.508 -0.0095 -0.7496 -0.2938
   33CHL1  H15B 2388   1.179   0.301   7.467  1.4375  0.2112  1.0886
   33CHL1   C16 2389   1.232   0.416   7.641  0.1257 -0.0505  0.4361
   33CHL1  H16A 2390   1.161   0.402   7.725 -0.2418  1.4358  0.4016
   33CHL1  H16B 2391   1.317   0.344   7.638  2.9650  3.0418 -2.8597
   33CHL1   C17 2392   1.288   0.569   7.655 -0.1442 -0.1444  0.2054
   33CHL1   H17 2393   1.396   0.548   7.637 -0.0029  1.5691 -1.2175
   33CHL1   C13 2394   1.248   0.639   7.526 -0.2378 -0.2267  0.6012
   33CHL1   C18 2395   1.108   0.711   7.542  0.0469 -0.2022  0.5234
   33CHL1  H18A 2396   1.081   0.739   7.439  2.7650 -0.5196 -0.3702
   33CHL1  H18B 2397   1.043   0.648   7.607 -0.4885 -0.4717 -0.2732
   33CHL1  H18C 2398   1.129   0.801   7.604 -0.1217 -1.1566  2.0139
   33CHL1   C12 2399   1.357   0.730   7.460  0.1809  0.4621 -0.4707
   33CHL1  H12A 2400   1.366   0.824   7.518  0.6887 -0.9565  1.9313
   33CHL1  H12B 2401   1.454   0.679   7.474  1.1619  2.7364  1.8574
   33CHL1   C11 2402   1.324   0.763   7.317  0.1369 -0.1168  0.8668
   33CHL1  H11A 2403   1.231   0.822   7.302  1.1514  1.2629 -0.3517
   33CHL1  H11B 2404   1.402   0.832   7.278 -1.5366  0.3776 -1.8728
   33CHL1    C9 2405   1.299   0.643   7.224 -0.6529  0.1641  0.3863
   33CHL1    H9 2406   1.397   0.590   7.219 -1.4183 -1.2375 -3.0329
   33CHL1   C10 2407   1.270   0.677   7.076  0.6193 -0.2547  1.5187
   33CHL1   C19 2408   1.160   0.796   7.068 -0.9638 -0.1208 -0.6250
   33CHL1  H19A 2409   1.089   0.762   7.146 -0.0662  1.3882  0.9245
   33CHL1  H19B 2410   1.205   0.896   7.089 -1.7985  0.0202  0.5781
   33CHL1  H19C 2411   1.112   0.800   6.968 -2.4227  3.4104  0.0618
   33CHL1    C1 2412   1.396   0.733   7.005  0.0223 -0.7889  1.0493
   33CHL1   H1A 2413   1.419   0.834   7.048  0.6228 -0.7332  0.6072
   33CHL1   H1B 2414   1.475   0.656   7.021  0.1402 -0.8669  0.1098
   33CHL1    C2 2415   1.391   0.739   6.848  0.0194  0.3627  0.0038
   33CHL1   H2A 2416   1.490   0.775   6.811  0.4485 -1.7998 -1.1609
   33CHL1   H2B 2417   1.315   0.811   6.813  0.4678  1.2065  0.7227
   33CHL1   C20 2418   1.274   0.634   7.791  0.0390  0.9619 -0.0863
   33CHL1   H20 2419   1.171   0.648   7.830  0.1936 -3.3549  2.4743
   33CHL1   C21 2420   1.321   0.783   7.784  0.3551  0.6599  0.5309
   33CHL1  H21A 2421   1.340   0.820   7.887 -0.0749 -0.0232  0.8658
   33CHL1  H21B 2422   1.243   0.850   7.742 -0.9017 -0.8820  0.2774
   33CHL1  H21C 2423   1.411   0.788   7.719  0.4547  1.5653  0.7328
   33CHL1   C22 2424   1.365   0.560   7.893  0.8421  0.0643 -0.7837
   33CHL1  H22A 2425   1.382   0.455   7.864 -1.8490 -0.3577 -1.0257
   33CHL1  H22B 2426   1.466   0.603   7.876  1.2401  0.2520  1.5953
   33CHL1   C23 2427   1.327   0.576   8.036 -0.3228 -0.9911  0.1935
   33CHL1  H23A 2428   1.321   0.682   8.068 -1.0012 -0.9985  0.1126
   33CHL1  H23B 2429   1.225   0.533   8.047 -0.0338 -1.3917  1.5006
   33CHL1   C24 2430   1.429   0.501   8.132  0.5290  0.2574 -0.5205
   33CHL1  H24A 2431   1.388   0.398   8.125 -1.7590  1.1041 -0.7014
   33CHL1  H24B 2432   1.522   0.506   8.072  1.5473 -0.0787  1.0056
   33CHL1   C25 2433   1.433   0.554   8.277  0.2318  0.3390 -0.2629
   33CHL1   H25 2434   1.499   0.481   8.328 -1.3935 -1.1352 -0.1649
   33CHL1   C26 2435   1.488   0.691   8.296  0.7808  0.4789  0.1582
   33CHL1  H26A 2436   1.592   0.685   8.259  0.4665 -5.0431 -0.6049
   33CHL1  H26B 2437   1.419   0.763   8.247 -0.5703 -0.7425  0.1993
   33CHL1  H26C 2438   1.485   0.723   8.403 -1.4390  0.5237  0.1301
   33CHL1   C27 2439   1.299   0.529   8.343 -0.1573 -0.1858 -0.5182
   33CHL1  H27A 2440   1.254   0.429   8.328 -0.0765 -0.2279 -0.4776
   33CHL1  H27B 2441   1.299   0.542   8.454  1.6318 -1.0608 -0.3832
   33CHL1  H27C 2442   1.218   0.593   8.303  0.4896  0.3789 -0.9538
   34CHL1    C3 2443   3.952   6.381   7.177 -0.5484  0.5117 -0.2181
   34CHL1    H3 2444   3.939   6.479   7.229 -1.5238  0.1374  0.2597
   34CHL1    O3 2445   3.971   6.409   7.039  0.4740 -0.2174  0.6492
   34CHL1   H3' 2446   4.064   6.432   7.034 -0.1332  2.5115  0.2093
   34CHL1    C4 2447   4.078   6.316   7.241 -0.6360 -0.4921  0.2928
   34CHL1   H4A 2448   4.112   6.235   7.173  1.4182  0.4949  0.0506
   34CHL1   H4B 2449   4.151   6.400   7.236 -0.1007 -1.0062 -1.9704
   34CHL1    C5 2450   4.053   6.265   7.383 -0.1255 -0.1018 -0.5367
   34CHL1    C6 2451   4.140   6.300   7.482 -0.2603 -0.6251 -0.7053
   34CHL1    H6 2452   4.229   6.356   7.450 -0.0193  0.4698  1.7072
   34CHL1    C7 2453   4.129   6.249   7.627 -0.2091  0.3167 -0.5992
   34CHL1   H7A 2454   4.230   6.217   7.661 -0.2611  0.3607 -0.4026
   34CHL1   H7B 2455   4.099   6.330   7.696  0.7973 -0.2309  0.5221
   34CHL1    C8 2456   4.029   6.131   7.641  0.2337 -0.7077  0.9555
   34CHL1    H8 2457   4.080   6.045   7.592  0.3484  0.4590 -1.0622
   34CHL1   C14 2458   3.993   6.098   7.783  0.4096 -0.4682  0.3197
   34CHL1   H14 2459   3.941   6.191   7.815  2.1038 -0.0487  2.0242
   34CHL1   C15 2460   4.115   6.068   7.873 -0.2344  0.1196  0.0770
   34CHL1  H15A 2461   4.180   6.003   7.810  0.4795  1.0602 -0.1839
   34CHL1  H15B 2462   4.165   6.165   7.895  0.3267  0.5436 -2.7101
   34CHL1   C16 2463   4.056   5.982   7.986  0.6308 -0.6054 -0.2744
   34CHL1  H16A 2464   4.097   5.879   7.987  0.0072 -0.8573 -0.4496
   34CHL1  H16B 2465   4.070   6.028   8.086 -3.2584 -1.1568  0.6999
   34CHL1   C17 2466   3.900   5.979   7.961 -0.4335  0.6740 -0.2212
   34CHL1   H17 2467   3.853   6.072   8.002 -0.6900  1.6475 -2.5474
   34CHL1   C13 2468   3.895   5.988   7.808 -0.4493  0.3820  0.2828
   34CHL1   C18 2469   3.946   5.854   7.758 -0.4413 -0.0840  1.1195
   34CHL1  H18A 2470   3.896   5.759   7.788  0.0668 -0.9212 -0.5363
   34CHL1  H18B 2471   3.939   5.861   7.647  1.3286  1.4342  1.0577
   34CHL1  H18C 2472   4.054   5.840   7.780 -0.7652 -2.4927  1.4983
   34CHL1   C12 2473   3.765   6.034   7.740  0.2884 -0.4678 -0.2304
   34CHL1  H12A 2474   3.681   5.962   7.753 -0.1512  0.0800 -0.0418
   34CHL1  H12B 2475   3.731   6.130   7.784  0.6433 -0.5522  0.2461
   34CHL1   C11 2476   3.781   6.064   7.589 -0.6983  0.3358 -0.0868
   34CHL1  H11A 2477   3.791   5.968   7.535  0.9226 -0.3466  1.3382
   34CHL1  H11B 2478   3.685   6.105   7.549 -2.4250 -1.4475  1.9594
   34CHL1    C9 2479   3.897   6.164   7.563 -0.5164  0.2786  0.4914
   34CHL1    H9 2480   3.857   6.260   7.602 -1.1836  0.7196 -1.1584
   34CHL1   C10 2481   3.921   6.186   7.409  1.1723 -0.4422 -0.4065
   34CHL1   C19 2482   3.938   6.048   7.341  0.7841 -0.0009  0.3487
   34CHL1  H19A 2483   3.835   6.009   7.326  0.7803  0.3214 -0.5304
   34CHL1  H19B 2484   3.984   6.055   7.240 -1.4108 -1.0984 -0.7952
   34CHL1  H19C 2485   3.989   5.984   7.416 -1.8917 -0.3177  2.0322
   34CHL1    C1 2486   3.797   6.257   7.343 -0.1430 -0.3728  0.3367
   34CHL1   H1A 2487   3.696   6.214   7.357 -0.0801 -1.1595 -1.3791
   34CHL1   H1B 2488   3.796   6.358   7.390  0.7556  0.8624 -2.1335
   34CHL1    C2 2489   3.826   6.290   7.192  0.0711  0.7783  0.5281
   34CHL1   H2A 2490   3.750   6.361   7.155 -0.8574 -0.0302  0.8522
   34CHL1   H2B 2491   3.844   6.204   7.125 -0.0639  2.1790 -1.4025
   34CHL1   C20 2492   3.816   5.869   8.026  0.2012  0.4741  0.4668
   34CHL1   H20 2493   3.830   5.770   7.976  0.7629  1.0829 -0.6047
   34CHL1   C21 2494   3.658   5.889   8.024 -0.0979 -0.3572  0.2385
   34CHL1  H21A 2495   3.614   5.797   8.069  2.2458 -1.3586  0.6901
   34CHL1  H21B 2496   3.624   5.895   7.919 -0.2161 -2.1227  0.1357
   34CHL1  H21C 2497   3.635   5.979   8.085  2.2393  2.3505 -2.5650
   34CHL1   C22 2498   3.866   5.845   8.172  0.8986 -0.4975 -0.2400
   34CHL1  H22A 2499   3.971   5.809   8.179  1.0339  0.1845  3.1296
   34CHL1  H22B 2500   3.861   5.949   8.213 -0.1947 -0.2209 -1.0486
   34CHL1   C23 2501   3.787   5.743   8.256  0.5950  0.0246  0.3640
   34CHL1  H23A 2502   3.689   5.791   8.279  1.8490  2.8775  0.1715
   34CHL1  H23B 2503   3.773   5.648   8.201 -2.3552  0.1606  0.7411
   34CHL1   C24 2504   3.873   5.708   8.378 -0.1911 -0.0853  0.5890
   34CHL1  H24A 2505   3.972   5.664   8.352 -0.8843 -0.2623 -2.0135
   34CHL1  H24B 2506   3.895   5.802   8.433  2.1796 -0.5756  0.5935
   34CHL1   C25 2507   3.787   5.617   8.461  0.7516 -0.1322 -0.4662
   34CHL1   H25 2508   3.688   5.597   8.414 -0.0602  1.8446  0.2833
   34CHL1   C26 2509   3.862   5.488   8.495 -0.0484  0.7814  0.0808
   34CHL1  H26A 2510   3.791   5.411   8.533 -1.5382  1.0400 -1.9835
   34CHL1  H26B 2511   3.910   5.449   8.404 -1.5474 -0.3338 -0.2744
   34CHL1  H26C 2512   3.938   5.514   8.571  0.0096  0.1780  0.2309
   34CHL1   C27 2513   3.755   5.680   8.599  0.5208  0.7164  0.5208
   34CHL1  H27A 2514   3.707   5.777   8.573  0.3078  0.1294 -1.4031
   34CHL1  H27B 2515   3.676   5.618   8.648 -0.5631 -0.9213 -2.9962
   34CHL1  H27C 2516   3.844   5.702   8.661 -0.2637  2.3761  1.1326
   35CHL1    C3 2517   6.542   0.395   7.160  0.0193 -0.2014  0.0907
   35CHL1    H3 2518   6.485   0.301   7.173 -1.8800  0.8385 -0.3975
   35CHL1    O3 2519   6.582   0.403   7.028 -0.6159  0.5752 -0.7451
   35CHL1   H3' 2520   6.594   0.496   7.009 -2.5478  0.7941 -1.0855
   35CHL1    C4 2521   6.445   0.510   7.191 -0.3844 -0.0958  0.5110
   35CHL1   H4A 2522   6.492   0.607   7.165 -0.7104 -0.3225 -1.0752
   35CHL1   H4B 2523   6.366   0.485   7.117  0.6481 -1.3428 -0.2230
   35CHL1    C5 2524   6.408   0.511   7.337 -0.6366 -0.0306  0.1871
   35CHL1    C6 2525   6.283   0.504   7.381 -0.6604 -0.2426 -0.1889
   35CHL1    H6 2526   6.199   0.497   7.311 -1.8094 -1.7310  1.2570
   35CHL1    C7 2527   6.238   0.509   7.528 -0.6347  0.7946 -0.8391
   35CHL1   H7A 2528   6.148   0.572   7.546 -1.4574 -0.4780 -0.4264
   35CHL1   H7B 2529   6.212   0.404   7.552  1.0934  0.9591  2.1168
   35CHL1    C8 2530   6.352   0.556   7.619  0.0508 -0.0492 -0.5139
   35CHL1    H8 2531   6.354   0.667   7.614 -0.3694 -0.0589 -0.8747
   35CHL1   C14 2532   6.323   0.518   7.768  0.2034 -0.0788  0.6929
   35CHL1   H14 2533   6.330   0.407   7.762  0.8986  0.0078 -0.4100
   35CHL1   C15 2534   6.188   0.549   7.827 -0.4642  0.2252  0.0608
   35CHL1  H15A 2535   6.162   0.656   7.817 -0.0732  0.3292  0.1527
   35CHL1  H15B 2536   6.111   0.487   7.776 -0.2821  0.7905 -0.9123
   35CHL1   C16 2537   6.210   0.522   7.973 -0.0830  0.0969 -0.0063
   35CHL1  H16A 2538   6.155   0.582   8.048  1.1034  0.4957  0.5607
   35CHL1  H16B 2539   6.176   0.417   7.990 -1.4362  0.5757  0.3833
   35CHL1   C17 2540   6.359   0.523   8.006 -0.1231 -0.4128 -0.0302
   35CHL1   H17 2541   6.391   0.420   8.033 -1.6793 -0.4547  1.8756
   35CHL1   C13 2542   6.424   0.568   7.870 -0.6169  0.1595 -0.5964
   35CHL1   C18 2543   6.442   0.724   7.868  0.1070  0.5369  0.6235
   35CHL1  H18A 2544   6.477   0.761   7.769  2.2282  0.5821  1.3308
   35CHL1  H18B 2545   6.343   0.771   7.887  0.5595  2.3799 -1.2060
   35CHL1  H18C 2546   6.525   0.756   7.934  2.0038 -1.3338 -0.7035
   35CHL1   C12 2547   6.563   0.498   7.833 -0.0784  0.1722  0.2951
   35CHL1  H12A 2548   6.634   0.542   7.907 -0.1352  0.9078 -0.0814
   35CHL1  H12B 2549   6.555   0.388   7.846 -1.7765  0.1513 -0.6750
   35CHL1   C11 2550   6.601   0.527   7.684 -0.4405 -0.3254 -0.3861
   35CHL1  H11A 2551   6.619   0.636   7.685 -1.5018 -0.1383 -0.5509
   35CHL1  H11B 2552   6.695   0.472   7.659  1.0471  1.0852  1.7739
   35CHL1    C9 2553   6.486   0.489   7.586  0.0647 -0.5733  0.2311
   35CHL1    H9 2554   6.470   0.381   7.602  1.8217 -1.0897 -1.1322
   35CHL1   C10 2555   6.528   0.507   7.434 -0.4552  0.0057 -0.3416
   35CHL1   C19 2556   6.603   0.645   7.421  0.3999  0.6694  0.7211
   35CHL1  H19A 2557   6.549   0.729   7.469 -1.3810  0.2559 -0.4871
   35CHL1  H19B 2558   6.703   0.635   7.469 -0.2802 -0.7426  1.8983
   35CHL1  H19C 2559   6.625   0.671   7.315 -0.1490 -1.0635  0.1451
   35CHL1    C1 2560   6.633   0.397   7.395  0.3826 -0.1442 -0.3207
   35CHL1   H1A 2561   6.726   0.408   7.456  2.3143 -3.6061 -2.3090
   35CHL1   H1B 2562   6.598   0.294   7.418 -0.3760 -0.1228 -1.3420
   35CHL1    C2 2563   6.668   0.407   7.253 -0.3497 -0.7834  0.4914
   35CHL1   H2A 2564   6.736   0.326   7.220 -0.2826  0.9323 -4.1991
   35CHL1   H2B 2565   6.720   0.501   7.227 -1.5773 -0.0016  0.7758
   35CHL1   C20 2566   6.385   0.606   8.136 -0.1199  0.0437  0.0348
   35CHL1   H20 2567   6.368   0.713   8.111 -0.2553  0.0964  0.3384
   35CHL1   C21 2568   6.537   0.607   8.169  0.1521  0.0996  0.2007
   35CHL1  H21A 2569   6.560   0.498   8.172 -0.5089 -0.0209  1.4191
   35CHL1  H21B 2570   6.551   0.643   8.273  1.1818  3.7631 -1.0607
   35CHL1  H21C 2571   6.598   0.664   8.095  0.2873 -1.2518 -0.7688
   35CHL1   C22 2572   6.302   0.563   8.262 -0.0074 -0.1943  0.3321
   35CHL1  H22A 2573   6.317   0.635   8.346 -3.7485  0.2820  0.7840
   35CHL1  H22B 2574   6.192   0.570   8.243  0.2890  3.0493 -0.8459
   35CHL1   C23 2575   6.337   0.424   8.315 -0.0962  0.0072 -0.0163
   35CHL1  H23A 2576   6.335   0.349   8.233 -0.5442 -1.4474  1.2535
   35CHL1  H23B 2577   6.434   0.424   8.371 -0.0607 -1.4925 -0.0261
   35CHL1   C24 2578   6.228   0.371   8.414  0.1920  0.0121 -0.2118
   35CHL1  H24A 2579   6.135   0.349   8.356 -0.5172 -1.0213  1.2714
   35CHL1  H24B 2580   6.269   0.275   8.453 -2.3916 -0.9793  0.2508
   35CHL1   C25 2581   6.195   0.462   8.536  1.3459 -0.0643  0.2795
   35CHL1   H25 2582   6.182   0.561   8.487  0.1435 -0.7243 -0.7956
   35CHL1   C26 2583   6.058   0.420   8.595 -0.3132  0.2100  0.6136
   35CHL1  H26A 2584   6.065   0.318   8.639  0.0113  0.5994  1.4936
   35CHL1  H26B 2585   6.029   0.488   8.678  1.3643  2.3346 -0.4447
   35CHL1  H26C 2586   5.979   0.413   8.517 -0.8638 -2.2145  1.2996
   35CHL1   C27 2587   6.305   0.470   8.645  0.5066 -0.2814 -0.3809
   35CHL1  H27A 2588   6.324   0.367   8.683  2.3865  0.5930  1.2140
   35CHL1  H27B 2589   6.282   0.543   8.726  0.8923  0.8020 -1.2216
   35CHL1  H27C 2590   6.395   0.507   8.591  0.3165 -1.5754 -1.6515
   36CHL1    C3 2591   0.558   0.053   7.319 -0.6069 -0.0664  0.6002
   36CHL1    H3 2592   0.594   0.158   7.317  0.1747 -0.3342  0.1210
   36CHL1    O3 2593   0.498   0.008   7.203 -0.0180 -0.0892 -0.1122
   36CHL1   H3' 2594   0.521  -0.085   7.204  1.2697  0.1274 -2.5608
   36CHL1    C4 2595   0.677  -0.037   7.357 -0.6098  0.4129  0.3283
   36CHL1   H4A 2596   0.658  -0.146   7.358  0.1443  0.2711  1.8528
   36CHL1   H4B 2597   0.740  -0.032   7.266 -2.1431 -1.2684 -0.8896
   36CHL1    C5 2598   0.737  -0.000   7.492  0.1054 -0.5143 -0.0859
   36CHL1    C6 2599   0.861   0.054   7.507 -0.6483  0.0848  0.3218
   36CHL1    H6 2600   0.926   0.071   7.420 -0.8213  1.1439  0.3850
   36CHL1    C7 2601   0.929   0.098   7.633 -0.4430 -0.6889  0.8700
   36CHL1   H7A 2602   1.038   0.079   7.619 -0.4151 -1.2836  1.7734
   36CHL1   H7B 2603   0.929   0.209   7.639  0.6452 -0.5194 -1.2639
   36CHL1    C8 2604   0.862   0.032   7.750 -0.4119 -0.3706  0.0286
   36CHL1    H8 2605   0.891  -0.075   7.746 -2.2712 -0.8610 -1.4557
   36CHL1   C14 2606   0.903   0.104   7.889 -0.5143  1.1326  1.1085
   36CHL1   H14 2607   0.866   0.208   7.879 -2.2305  0.4012 -1.1145
   36CHL1   C15 2608   1.047   0.123   7.924 -0.6722  0.0436  0.0590
   36CHL1  H15A 2609   1.110   0.034   7.904  0.4886  0.2316  2.5281
   36CHL1  H15B 2610   1.096   0.204   7.866 -0.0423  0.4422  1.1259
   36CHL1   C16 2611   1.054   0.142   8.076  0.3715 -0.8436 -0.2708
   36CHL1  H16A 2612   1.128   0.074   8.122  0.0995  0.0150  1.5373
   36CHL1  H16B 2613   1.093   0.239   8.114 -1.8318  0.2414 -0.6166
   36CHL1   C17 2614   0.911   0.122   8.130  0.3032  0.8883  0.4041
   36CHL1   H17 2615   0.862   0.220   8.112 -0.6614  0.3695  0.1849
   36CHL1   C13 2616   0.849   0.032   8.018 -0.0064 -0.6574  0.2599
   36CHL1   C18 2617   0.907  -0.109   8.029 -0.1221  0.0887  0.3890
   36CHL1  H18A 2618   0.898  -0.157   7.929  0.6944  0.1195  0.2978
   36CHL1  H18B 2619   1.011  -0.122   8.066 -0.2591 -0.2431  0.6643
   36CHL1  H18C 2620   0.840  -0.166   8.097 -0.1440 -1.5446 -0.9405
   36CHL1   C12 2621   0.695   0.026   8.000 -0.9176  0.6636 -0.0450
   36CHL1  H12A 2622   0.662  -0.038   8.084 -0.5439  1.7305  0.9415
   36CHL1  H12B 2623   0.656   0.130   8.006 -1.2692  0.7951 -3.0401
   36CHL1   C11 2624   0.648  -0.032   7.869 -0.3130 -0.1987 -0.0426
   36CHL1  H11A 2625   0.689  -0.136   7.866  0.8056  0.2375 -0.5026
   36CHL1  H11B 2626   0.538  -0.025   7.873 -0.2962 -0.3092  3.5596
   36CHL1    C9 2627   0.712   0.041   7.741  0.2924  0.1570 -1.5552
   36CHL1    H9 2628   0.682   0.147   7.749  1.5005  0.4155  0.1485
   36CHL1   C10 2629   0.647  -0.013   7.604 -0.2843  0.2954  0.0378
   36CHL1   C19 2630   0.608  -0.162   7.628 -0.2506  0.6179  0.6804
   36CHL1  H19A 2631   0.569  -0.210   7.536  0.7422  2.2338 -0.6313
   36CHL1  H19B 2632   0.698  -0.217   7.663 -1.6419 -1.1163  1.6697
   36CHL1  H19C 2633   0.528  -0.180   7.703 -0.3737 -0.8752  0.2183
   36CHL1    C1 2634   0.526   0.078   7.566  0.2634 -0.8848  0.2271
   36CHL1   H1A 2635   0.454   0.079   7.651 -0.0798  1.5669 -0.0142
   36CHL1   H1B 2636   0.568   0.180   7.557 -0.4441 -0.6083 -0.0379
   36CHL1    C2 2637   0.456   0.042   7.434 -0.1224 -0.7343 -0.0939
   36CHL1   H2A 2638   0.367   0.104   7.410 -0.5410 -0.1033  2.7258
   36CHL1   H2B 2639   0.423  -0.064   7.426  1.1088 -1.0460 -1.3725
   36CHL1   C20 2640   0.898   0.071   8.273  0.5547  0.6325  0.5501
   36CHL1   H20 2641   0.934  -0.034   8.269  0.1774  0.4972 -3.6724
   36CHL1   C21 2642   0.752   0.048   8.322 -0.0841  0.0123  0.3241
   36CHL1  H21A 2643   0.721  -0.054   8.289  0.0411 -0.0847  0.5008
   36CHL1  H21B 2644   0.690   0.124   8.270 -1.0902 -0.4363  0.8225
   36CHL1  H21C 2645   0.733   0.043   8.432  0.2704 -0.4039  0.3711
   36CHL1   C22 2646   0.973   0.145   8.386  0.0863  0.4599 -0.1913
   36CHL1  H22A 2647   0.957   0.071   8.468 -0.9242 -1.8413 -2.3486
   36CHL1  H22B 2648   1.078   0.143   8.348 -0.2392  0.6388 -1.1197
   36CHL1   C23 2649   0.909   0.277   8.429 -0.2958 -0.3856  0.1715
   36CHL1  H23A 2650   0.908   0.335   8.334 -0.8794  1.4627  1.2557
   36CHL1  H23B 2651   0.806   0.256   8.464 -1.1981 -2.0160 -3.0463
   36CHL1   C24 2652   0.994   0.354   8.537  0.4261 -0.4607  0.5178
   36CHL1  H24A 2653   0.994   0.292   8.629 -2.1636 -0.0343  0.8761
   36CHL1  H24B 2654   1.098   0.378   8.505 -0.9940  4.0679 -1.5056
   36CHL1   C25 2655   0.929   0.485   8.572  0.3337  0.0238  0.3684
   36CHL1   H25 2656   0.821   0.467   8.589  0.3873  0.7491  1.6287
   36CHL1   C26 2657   0.979   0.537   8.702  0.2714 -0.5001 -0.0881
   36CHL1  H26A 2658   0.923   0.625   8.738 -2.5794 -1.8046 -1.0729
   36CHL1  H26B 2659   0.956   0.466   8.785 -1.5778  0.4684  0.2670
   36CHL1  H26C 2660   1.088   0.559   8.693  0.6840 -1.5022  1.7783
   36CHL1   C27 2661   0.961   0.594   8.469  0.2625 -0.4182 -0.0153
   36CHL1  H27A 2662   1.070   0.592   8.446  1.0036 -1.4077  3.1445
   36CHL1  H27B 2663   0.909   0.564   8.375  1.3987 -1.6840 -0.2861
   36CHL1  H27C 2664   0.941   0.699   8.496 -0.1675  0.4588 -3.3053
   37CHL1    C3 2665   3.689   0.584   7.114  0.2489 -0.2305 -0.1889
   37CHL1    H3 2666   3.778   0.531   7.155  1.9550  2.7414  0.2514
   37CHL1    O3 2667   3.694   0.601   6.978  0.4721 -0.3170 -0.0906
   37CHL1   H3' 2668   3.614   0.651   6.961  1.2084  1.3444  1.0542
   37CHL1    C4 2669   3.557   0.503   7.147  0.7532  0.3029 -0.2931
   37CHL1   H4A 2670   3.470   0.543   7.091 -1.0277 -1.1519  1.2924
   37CHL1   H4B 2671   3.569   0.398   7.110  1.0019  0.4725 -0.7026
   37CHL1    C5 2672   3.541   0.484   7.297 -0.0995  0.7774  0.0156
   37CHL1    C6 2673   3.525   0.363   7.350 -0.6860  0.1289 -0.1058
   37CHL1    H6 2674   3.498   0.280   7.283 -0.4835 -2.4356  2.7700
   37CHL1    C7 2675   3.512   0.326   7.495  0.6911 -0.5600  0.0444
   37CHL1   H7A 2676   3.421   0.265   7.510  0.9168 -1.0252 -0.4530
   37CHL1   H7B 2677   3.596   0.259   7.522  0.9619 -0.2566 -0.0375
   37CHL1    C8 2678   3.513   0.452   7.589 -0.1685 -0.1604 -0.2295
   37CHL1    H8 2679   3.405   0.478   7.591  0.0625  1.0311 -1.4032
   37CHL1   C14 2680   3.555   0.415   7.731 -0.2570 -0.4353 -0.2006
   37CHL1   H14 2681   3.656   0.369   7.734 -0.2271 -0.3738 -0.2732
   37CHL1   C15 2682   3.481   0.305   7.802  0.1198  0.6088  0.6628
   37CHL1  H15A 2683   3.372   0.323   7.801 -0.3615 -2.0066 -0.2668
   37CHL1  H15B 2684   3.501   0.207   7.753 -0.0437  1.6739 -1.6945
   37CHL1   C16 2685   3.526   0.328   7.947 -0.4205 -0.3406 -0.4592
   37CHL1  H16A 2686   3.434   0.328   8.009 -0.1089 -2.8299  0.0945
   37CHL1  H16B 2687   3.584   0.243   7.990 -1.1642 -0.6195  0.0242
   37CHL1   C17 2688   3.613   0.456   7.955  0.3604 -0.1998  0.1614
   37CHL1   H17 2689   3.719   0.433   7.933  1.2861  2.1255  1.8064
   37CHL1   C13 2690   3.573   0.532   7.830 -0.0924 -0.3077 -0.8201
   37CHL1   C18 2691   3.445   0.606   7.853 -0.2692  0.6227  1.0247
   37CHL1  H18A 2692   3.482   0.696   7.908  1.0565 -0.3313  1.7649
   37CHL1  H18B 2693   3.381   0.633   7.766 -2.1246 -0.7886  1.8877
   37CHL1  H18C 2694   3.381   0.557   7.929  1.7951  0.3067  2.6721
   37CHL1   C12 2695   3.680   0.628   7.774 -0.2938  0.5450 -0.1927
   37CHL1  H12A 2696   3.696   0.713   7.844 -1.8106  0.4139  0.3424
   37CHL1  H12B 2697   3.768   0.562   7.761 -2.3121 -2.3938  0.1753
   37CHL1   C11 2698   3.640   0.683   7.633  0.1395 -0.4252 -0.7526
   37CHL1  H11A 2699   3.538   0.723   7.650  0.6268  0.3371  0.4620
   37CHL1  H11B 2700   3.717   0.753   7.595  0.5572 -0.1185  0.6353
   37CHL1    C9 2701   3.609   0.565   7.533  0.4657  0.8183  1.2770
   37CHL1    H9 2702   3.702   0.505   7.529 -0.6342 -0.9344 -1.4918
   37CHL1   C10 2703   3.568   0.606   7.387 -0.0369  0.7398  0.4966
   37CHL1   C19 2704   3.434   0.678   7.390  0.2620 -0.5749 -0.0285
   37CHL1  H19A 2705   3.341   0.619   7.399  0.3420 -0.7284 -0.2040
   37CHL1  H19B 2706   3.433   0.756   7.469 -0.3784 -1.5792  0.9845
   37CHL1  H19C 2707   3.417   0.736   7.297 -0.6569 -2.7604 -1.2900
   37CHL1    C1 2708   3.689   0.691   7.335  0.3063  0.1160  0.4134
   37CHL1   H1A 2709   3.683   0.791   7.384  2.1846 -0.9257  3.0097
   37CHL1   H1B 2710   3.781   0.635   7.361  1.0297  1.0975  0.0227
   37CHL1    C2 2711   3.691   0.716   7.189 -0.4115 -0.7032 -0.1157
   37CHL1   H2A 2712   3.782   0.768   7.153 -0.2376 -1.2389 -0.4747
   37CHL1   H2B 2713   3.600   0.777   7.171  1.6013  2.0636 -1.5146
   37CHL1   C20 2714   3.619   0.528   8.096  0.7966  0.3849  0.1020
   37CHL1   H20 2715   3.621   0.638   8.083  2.6823  0.2785 -0.9257
   37CHL1   C21 2716   3.757   0.499   8.155 -0.0781 -0.1595 -0.2599
   37CHL1  H21A 2717   3.773   0.390   8.168  1.1443 -0.5408 -3.7363
   37CHL1  H21B 2718   3.766   0.552   8.252  1.7993 -2.4872  0.9555
   37CHL1  H21C 2719   3.836   0.531   8.084  0.0149 -1.9128 -0.9933
   37CHL1   C22 2720   3.510   0.482   8.197 -0.4750  0.7233  0.0706
   37CHL1  H22A 2721   3.417   0.492   8.139  0.4084 -1.8509 -1.9968
   37CHL1  H22B 2722   3.523   0.375   8.224  0.6701  0.2014 -2.2820
   37CHL1   C23 2723   3.495   0.570   8.326 -0.6070 -0.1050  0.4453
   37CHL1  H23A 2724   3.596   0.580   8.371 -0.4528 -2.4160  0.7326
   37CHL1  H23B 2725   3.455   0.667   8.290  0.5848 -0.3261 -1.6475
   37CHL1   C24 2726   3.401   0.508   8.431 -0.1550 -0.4366 -0.2336
   37CHL1  H24A 2727   3.306   0.490   8.378 -0.8145  1.3455  0.2741
   37CHL1  H24B 2728   3.437   0.407   8.462  1.0947 -0.4003 -1.4765
   37CHL1   C25 2729   3.376   0.595   8.556 -0.0619 -0.5481 -0.2547
   37CHL1   H25 2730   3.372   0.701   8.522 -1.1472  0.2997  2.2890
   37CHL1   C26 2731   3.240   0.571   8.619  0.0372  0.2670  0.0754
   37CHL1  H26A 2732   3.213   0.468   8.652 -2.4238  1.4027  1.9353
   37CHL1  H26B 2733   3.213   0.636   8.705 -0.4566 -1.7746  1.5535
   37CHL1  H26C 2734   3.159   0.595   8.547 -1.9605 -1.6331  1.5643
   37CHL1   C27 2735   3.475   0.566   8.669  0.0735  0.0707 -0.2971
   37CHL1  H27A 2736   3.452   0.465   8.712 -1.9864  1.1613  1.3743
   37CHL1  H27B 2737   3.578   0.557   8.629  0.8249 -1.1884  1.6986
   37CHL1  H27C 2738   3.474   0.641   8.751 -0.8066 -0.7436  0.4721
   38CHL1    C3 2739   6.721   3.714   6.986 -0.5156 -0.1807 -0.1680
   38CHL1    H3 2740   6.617   3.748   7.005 -0.1082  0.2024  1.5536
   38CHL1    O3 2741   6.737   3.679   6.849  0.3530  0.0163  0.1384
   38CHL1   H3' 2742   6.732   3.583   6.846  0.0922  0.0108  0.7170
   38CHL1    C4 2743   6.809   3.832   7.017 -0.6754  0.1657  0.1985
   38CHL1   H4A 2744   6.912   3.807   6.984  0.2843  0.4141  2.7371
   38CHL1   H4B 2745   6.774   3.921   6.962  2.4505  1.2218 -0.2810
   38CHL1    C5 2746   6.812   3.865   7.167  0.0568 -0.4486  0.4353
   38CHL1    C6 2747   6.776   3.985   7.213 -0.1301  0.2223  0.5384
   38CHL1    H6 2748   6.752   4.059   7.135  2.7567  0.9237  0.2007
   38CHL1    C7 2749   6.783   4.022   7.358 -0.2513 -0.1351 -0.0182
   38CHL1   H7A 2750   6.837   4.119   7.367 -3.7847  1.8533  1.5694
   38CHL1   H7B 2751   6.681   4.044   7.395 -0.6681 -1.9923  0.0100
   38CHL1    C8 2752   6.857   3.918   7.446 -0.0509 -0.4431 -0.0941
   38CHL1    H8 2753   6.967   3.920   7.438 -0.0224  1.3408  0.1953
   38CHL1   C14 2754   6.824   3.948   7.596 -0.0351  0.1791  0.0382
   38CHL1   H14 2755   6.714   3.935   7.603 -0.1752  1.7706  1.5542
   38CHL1   C15 2756   6.835   4.087   7.656 -0.3697 -0.4400 -0.1043
   38CHL1  H15A 2757   6.927   4.135   7.615 -1.7184 -1.3085 -4.7074
   38CHL1  H15B 2758   6.756   4.158   7.624  0.1062 -0.0273 -0.3894
   38CHL1   C16 2759   6.845   4.069   7.814  0.2927  0.6253  0.6299
   38CHL1  H16A 2760   6.947   4.100   7.846  0.4894 -0.5589  1.1840
   38CHL1  H16B 2761   6.769   4.130   7.866 -1.5850 -1.5510  0.5747
   38CHL1   C17 2762   6.831   3.910   7.841  0.7082 -1.2039  0.0079
   38CHL1   H17 2763   6.722   3.890   7.830  0.4643  0.6763 -1.8128
   38CHL1   C13 2764   6.883   3.844   7.705 -0.7677  0.5247  0.5096
   38CHL1   C18 2765   7.047   3.835   7.698  0.3955 -0.1775  0.9076
   38CHL1  H18A 2766   7.095   3.932   7.724  1.6389 -0.2243 -1.0396
   38CHL1  H18B 2767   7.097   3.762   7.765  1.3487 -1.2457 -0.8870
   38CHL1  H18C 2768   7.077   3.817   7.593 -1.2587 -1.1911  0.5636
   38CHL1   C12 2769   6.819   3.712   7.665  0.1615  0.7423 -0.0770
   38CHL1  H12A 2770   6.861   3.622   7.715 -3.7467 -0.2905  1.7075
   38CHL1  H12B 2771   6.709   3.708   7.681  0.3055  0.1398  0.8451
   38CHL1   C11 2772   6.846   3.678   7.513 -0.5642 -0.8951 -0.0791
   38CHL1  H11A 2773   6.957   3.682   7.510 -0.6053  1.5851 -0.4178
   38CHL1  H11B 2774   6.809   3.576   7.491  0.3405 -1.0370 -1.0182
   38CHL1    C9 2775   6.809   3.777   7.410  0.2509  0.0335 -0.8273
   38CHL1    H9 2776   6.698   3.784   7.406 -0.1690 -2.5477  2.0243
   38CHL1   C10 2777   6.852   3.740   7.262  0.0081 -0.2742 -0.0250
   38CHL1   C19 2778   7.002   3.707   7.256 -0.0255  0.2105  0.7675
   38CHL1  H19A 2779   7.022   3.618   7.320  1.3875 -0.3802 -0.4284
   38CHL1  H19B 2780   7.041   3.686   7.154 -0.4613 -0.5535  0.7478
   38CHL1  H19C 2781   7.063   3.791   7.297  1.1047  0.2664 -0.9229
   38CHL1    C1 2782   6.781   3.609   7.221  0.1794 -0.1701  0.0713
   38CHL1   H1A 2783   6.825   3.522   7.273  1.3592  0.0463 -0.5403
   38CHL1   H1B 2784   6.678   3.618   7.262  0.1433  2.4341 -0.4357
   38CHL1    C2 2785   6.767   3.589   7.070 -0.0637 -0.4579  0.1556
   38CHL1   H2A 2786   6.690   3.509   7.062 -0.8717  0.4564 -2.0901
   38CHL1   H2B 2787   6.867   3.558   7.035  0.3025 -0.8223  1.4940
   38CHL1   C20 2788   6.885   3.876   7.976 -0.0282 -0.3089  0.3303
   38CHL1   H20 2789   6.996   3.880   7.971 -0.0576  0.1544  0.0128
   38CHL1   C21 2790   6.847   3.728   8.000 -0.1827 -0.3394 -0.7213
   38CHL1  H21A 2791   6.888   3.682   8.092  0.6336 -1.6532 -1.7064
   38CHL1  H21B 2792   6.888   3.664   7.919  1.6110 -0.4574  0.2278
   38CHL1  H21C 2793   6.737   3.715   8.008 -0.1023 -1.0341 -0.6685
   38CHL1   C22 2794   6.848   3.977   8.101  0.9514  0.5695  0.4063
   38CHL1  H22A 2795   6.888   3.921   8.188 -0.8043 -3.9199 -1.3560
   38CHL1  H22B 2796   6.891   4.078   8.083 -1.8023  1.6053 -1.1487
   38CHL1   C23 2797   6.690   3.990   8.129  0.3266  0.0752  0.8266
   38CHL1  H23A 2798   6.654   4.090   8.095  2.2665  0.0202 -1.7207
   38CHL1  H23B 2799   6.641   3.915   8.063  0.1033 -0.8871  2.0508
   38CHL1   C24 2800   6.651   3.948   8.270  0.1143 -0.5267 -0.8358
   38CHL1  H24A 2801   6.690   3.849   8.301  0.6433 -0.2685 -0.6736
   38CHL1  H24B 2802   6.701   4.022   8.336  2.2049 -2.5593 -0.0091
   38CHL1   C25 2803   6.505   3.973   8.305 -0.7641 -0.3083  0.8281
   38CHL1   H25 2804   6.491   4.082   8.288 -3.2050 -1.0526 -3.2415
   38CHL1   C26 2805   6.409   3.904   8.212 -0.6577 -0.9978  0.6659
   38CHL1  H26A 2806   6.307   3.909   8.255 -1.0181  1.8523 -0.3100
   38CHL1  H26B 2807   6.387   3.959   8.117 -0.3736  0.2902  1.3250
   38CHL1  H26C 2808   6.443   3.799   8.197 -0.1440 -1.0512  2.0665
   38CHL1   C27 2809   6.478   3.941   8.452 -0.5699  1.1248  0.4807
   38CHL1  H27A 2810   6.568   3.968   8.511 -0.0146  2.2999 -0.8250
   38CHL1  H27B 2811   6.390   3.999   8.489 -0.2541  3.3780 -1.9562
   38CHL1  H27C 2812   6.455   3.833   8.464 -1.4333  1.0784 -1.2109
   39CHL1    C3 2813   6.610   2.173   6.813  0.7666  0.2326  0.4114
   39CHL1    H3 2814   6.661   2.272   6.809 -0.3137  0.7758 -0.6116
   39CHL1    O3 2815   6.595   2.132   6.671 -0.1330 -0.0512 -0.1811
   39CHL1   H3' 2816   6.537   2.056   6.679 -0.1061 -0.0728 -0.1918
   39CHL1    C4 2817   6.697   2.068   6.879  0.8176  0.4113 -0.1587
   39CHL1   H4A 2818   6.648   1.968   6.880  1.1599  0.2295 -1.0604
   39CHL1   H4B 2819   6.794   2.047   6.830 -1.2783 -3.6976 -3.0794
   39CHL1    C5 2820   6.708   2.109   7.027 -0.5696  0.0834 -0.0862
   39CHL1    C6 2821   6.828   2.143   7.076 -0.0313  0.9469 -0.1075
   39CHL1    H6 2822   6.920   2.142   7.015  0.1626 -0.2575  0.1820
   39CHL1    C7 2823   6.851   2.157   7.224  0.1971  0.1979 -0.0573
   39CHL1   H7A 2824   6.943   2.103   7.255 -0.7988 -1.2731  0.4372
   39CHL1   H7B 2825   6.870   2.265   7.244  1.0658  0.1316 -0.4912
   39CHL1    C8 2826   6.731   2.110   7.315 -0.3736 -0.7800  0.6093
   39CHL1    H8 2827   6.736   1.999   7.318  1.1356 -0.7797 -0.4936
   39CHL1   C14 2828   6.740   2.177   7.454  0.1152  0.2849 -0.0666
   39CHL1   H14 2829   6.730   2.285   7.429  0.5185 -0.1403 -2.2935
   39CHL1   C15 2830   6.871   2.157   7.531  0.0984  0.1019 -0.1147
   39CHL1  H15A 2831   6.911   2.054   7.528  2.6808  1.0145 -2.2988
   39CHL1  H15B 2832   6.959   2.204   7.482  1.5293 -3.6175 -1.4831
   39CHL1   C16 2833   6.838   2.196   7.677  0.2435 -0.5418 -0.0681
   39CHL1  H16A 2834   6.864   2.115   7.748  0.5483  0.8631  1.4857
   39CHL1  H16B 2835   6.886   2.290   7.712  0.5501 -0.3271 -1.0189
   39CHL1   C17 2836   6.682   2.212   7.680 -0.5513  0.1304 -0.0054
   39CHL1   H17 2837   6.663   2.320   7.664  2.0111  0.9947  2.0400
   39CHL1   C13 2838   6.630   2.135   7.548 -0.3313 -0.3592 -0.7754
   39CHL1   C18 2839   6.632   1.980   7.571  0.3422 -0.0165  0.5123
   39CHL1  H18A 2840   6.608   1.921   7.480  2.8826  0.7417 -0.7481
   39CHL1  H18B 2841   6.728   1.943   7.614 -0.6461  0.4309  3.3591
   39CHL1  H18C 2842   6.555   1.954   7.647  0.1813  0.7374  0.6085
   39CHL1   C12 2843   6.503   2.189   7.479 -0.6757 -0.7321 -0.0735
   39CHL1  H12A 2844   6.421   2.187   7.553 -0.4936  0.1014  0.1601
   39CHL1  H12B 2845   6.520   2.298   7.472  0.0122 -0.7261  1.3676
   39CHL1   C11 2846   6.475   2.130   7.341 -0.3282 -0.7537  0.3541
   39CHL1  H11A 2847   6.460   2.020   7.352  1.6226 -0.9634  1.1919
   39CHL1  H11B 2848   6.379   2.174   7.306  0.0316 -0.5291 -0.3782
   39CHL1    C9 2849   6.598   2.153   7.249  0.7823 -0.8532  0.8359
   39CHL1    H9 2850   6.607   2.263   7.243  0.9435 -0.9155 -0.0666
   39CHL1   C10 2851   6.576   2.110   7.106 -0.2734  0.1797  0.4402
   39CHL1   C19 2852   6.527   1.962   7.104  0.8950 -0.5665 -0.0659
   39CHL1  H19A 2853   6.530   1.909   7.007  2.1024 -0.1276 -0.2917
   39CHL1  H19B 2854   6.583   1.906   7.182  1.7070  2.0509  1.3829
   39CHL1  H19C 2855   6.419   1.956   7.129  0.5625  2.5568 -0.2698
   39CHL1    C1 2856   6.477   2.209   7.033  0.5554 -1.0318 -0.6088
   39CHL1   H1A 2857   6.376   2.208   7.078  0.7140 -1.1358 -0.2515
   39CHL1   H1B 2858   6.521   2.310   7.051 -0.7819 -0.8332  1.8455
   39CHL1    C2 2859   6.470   2.188   6.881 -0.5809 -0.7005 -0.8602
   39CHL1   H2A 2860   6.419   2.278   6.840  3.0492  2.8626  1.7269
   39CHL1   H2B 2861   6.410   2.097   6.860 -1.7085  0.1396 -1.4198
   39CHL1   C20 2862   6.631   2.158   7.814  0.1618 -0.1999  0.7459
   39CHL1   H20 2863   6.656   2.050   7.826 -1.9524 -0.5724  2.1418
   39CHL1   C21 2864   6.485   2.177   7.842 -0.6714 -0.5151  0.6211
   39CHL1  H21A 2865   6.426   2.104   7.783 -0.6481 -0.1720  0.1748
   39CHL1  H21B 2866   6.457   2.277   7.805  0.4790  0.5103  2.3543
   39CHL1  H21C 2867   6.456   2.174   7.950 -0.9379 -0.5134  0.5501
   39CHL1   C22 2868   6.707   2.226   7.929  0.4896 -0.2794  0.3329
   39CHL1  H22A 2869   6.815   2.237   7.906  0.7364 -1.0248  1.0679
   39CHL1  H22B 2870   6.659   2.323   7.952 -2.4605 -1.9798  1.9398
   39CHL1   C23 2871   6.722   2.128   8.051  1.2923 -0.2620 -0.1769
   39CHL1  H23A 2872   6.617   2.095   8.065  1.1392  0.5433  0.6569
   39CHL1  H23B 2873   6.785   2.044   8.015  0.7173 -1.5029  1.5908
   39CHL1   C24 2874   6.785   2.198   8.170 -0.2248  0.6681  0.1742
   39CHL1  H24A 2875   6.890   2.221   8.144  0.0555  0.4244  1.0695
   39CHL1  H24B 2876   6.741   2.299   8.189  1.4255  1.8074 -1.6881
   39CHL1   C25 2877   6.771   2.116   8.300  0.0654 -0.6079  0.0765
   39CHL1   H25 2878   6.686   2.045   8.289 -0.0619 -1.1627  3.6409
   39CHL1   C26 2879   6.905   2.040   8.328 -0.9515  0.4549 -0.0083
   39CHL1  H26A 2880   6.987   2.114   8.320 -1.3232  0.7510 -1.3830
   39CHL1  H26B 2881   6.914   1.988   8.426  1.4421  1.1377  0.1854
   39CHL1  H26C 2882   6.922   1.961   8.251 -0.9249  1.6808 -1.3117
   39CHL1   C27 2883   6.728   2.208   8.415 -0.3971  0.2188  0.0760
   39CHL1  H27A 2884   6.820   2.249   8.459 -0.2853  1.9525 -1.6315
   39CHL1  H27B 2885   6.661   2.286   8.374  2.3280  2.4613 -0.3748
   39CHL1  H27C 2886   6.672   2.149   8.491  2.9301 -2.6816  0.5110
   40CHL1    C3 2887   1.867   0.873   6.970  0.3058 -0.7416  0.8703
   40CHL1    H3 2888   1.807   0.965   6.951  2.0203 -0.0090 -1.4282
   40CHL1    O3 2889   1.909   0.839   6.836  0.0146  0.5393 -0.5330
   40CHL1   H3' 2890   1.938   0.747   6.841 -2.6498 -0.5200 -2.2557
   40CHL1    C4 2891   1.996   0.891   7.053  0.5213  0.2388 -0.5988
   40CHL1   H4A 2892   2.037   0.788   7.058 -2.1006 -0.8824 -0.2513
   40CHL1   H4B 2893   2.068   0.957   7.000  1.9633 -0.0769  0.8719
   40CHL1    C5 2894   1.973   0.921   7.198 -0.2509  0.6638 -0.6831
   40CHL1    C6 2895   2.028   1.028   7.254  1.0988  0.0539  0.2475
   40CHL1    H6 2896   2.091   1.090   7.188 -0.4712  1.6704  0.1922
   40CHL1    C7 2897   2.008   1.069   7.399  0.1430  0.3620 -0.4554
   40CHL1   H7A 2898   2.100   1.114   7.442 -1.0224  0.2322  2.4013
   40CHL1   H7B 2899   1.932   1.150   7.398 -0.6046 -0.3233 -1.5798
   40CHL1    C8 2900   1.942   0.949   7.483 -0.1283  0.0912 -0.2785
   40CHL1    H8 2901   2.017   0.870   7.508 -2.0225 -0.9730  2.5728
   40CHL1   C14 2902   1.884   1.004   7.611  0.0107 -0.5924 -0.3677
   40CHL1   H14 2903   1.795   1.066   7.589 -1.3767 -1.6458  1.9509
   40CHL1   C15 2904   1.982   1.091   7.685 -0.3439 -0.7627 -0.3788
   40CHL1  H15A 2905   2.079   1.037   7.687 -0.6129 -1.4663  4.1465
   40CHL1  H15B 2906   1.999   1.192   7.641  1.5523 -0.3888  1.0424
   40CHL1   C16 2907   1.933   1.097   7.831  0.4385  0.8945  0.1740
   40CHL1  H16A 2908   2.010   1.058   7.901  1.2896 -1.2375 -1.7875
   40CHL1  H16B 2909   1.887   1.191   7.866 -3.4821 -0.7016 -0.1662
   40CHL1   C17 2910   1.812   0.991   7.835 -0.2630 -0.2076 -0.4465
   40CHL1   H17 2911   1.730   1.063   7.817  1.1159  1.4185 -0.5174
   40CHL1   C13 2912   1.827   0.906   7.705  0.0558  0.1781  0.0111
   40CHL1   C18 2913   1.935   0.787   7.742  0.7657 -0.9950 -0.1302
   40CHL1  H18A 2914   1.966   0.733   7.650  1.2727  1.7762 -1.6969
   40CHL1  H18B 2915   2.017   0.833   7.800  0.7151 -0.0275 -0.8113
   40CHL1  H18C 2916   1.881   0.706   7.796  0.7364 -1.4846 -0.8842
   40CHL1   C12 2917   1.707   0.841   7.630  0.3098 -0.4310  1.0188
   40CHL1  H12A 2918   1.661   0.758   7.689  0.8170  0.2673  2.4551
   40CHL1  H12B 2919   1.631   0.919   7.608 -1.2480 -2.1071  0.1390
   40CHL1   C11 2920   1.747   0.778   7.491 -0.8339  0.2322  0.1027
   40CHL1  H11A 2921   1.802   0.684   7.515  1.0731  1.5842  1.3362
   40CHL1  H11B 2922   1.656   0.743   7.438 -0.7682 -0.1668  0.2505
   40CHL1    C9 2923   1.832   0.878   7.401 -1.6045  0.0642  0.0463
   40CHL1    H9 2924   1.755   0.953   7.376 -2.9563 -1.0768  0.6514
   40CHL1   C10 2925   1.876   0.819   7.265  0.2801  0.0610 -0.1900
   40CHL1   C19 2926   1.968   0.691   7.295  0.6951  0.6693 -0.2021
   40CHL1  H19A 2927   1.917   0.615   7.358  0.1904  0.9612 -0.2510
   40CHL1  H19B 2928   1.993   0.631   7.205  1.4382 -0.4458  0.7267
   40CHL1  H19C 2929   2.051   0.723   7.361  0.6106  0.9332 -0.2197
   40CHL1    C1 2930   1.752   0.782   7.180 -0.1407  0.2340 -0.1104
   40CHL1   H1A 2931   1.705   0.687   7.213  1.6807 -0.8187 -0.4409
   40CHL1   H1B 2932   1.669   0.854   7.200  0.9001  1.7341 -0.9755
   40CHL1    C2 2933   1.776   0.768   7.026  0.6368  0.0147 -0.8202
   40CHL1   H2A 2934   1.691   0.748   6.957 -0.6583 -3.1502  1.4981
   40CHL1   H2B 2935   1.839   0.677   7.017 -0.7849 -1.2612  1.3263
   40CHL1   C20 2936   1.791   0.914   7.974  0.3535 -0.4457 -0.1993
   40CHL1   H20 2937   1.868   0.837   7.995  1.3888  0.7105  0.3666
   40CHL1   C21 2938   1.649   0.854   7.987 -0.5541 -0.2496  0.5347
   40CHL1  H21A 2939   1.615   0.823   8.088  1.4792  0.9740  1.6630
   40CHL1  H21B 2940   1.648   0.754   7.939  1.8290 -0.0235 -0.0894
   40CHL1  H21C 2941   1.563   0.917   7.955  0.9294  1.4508 -0.2566
   40CHL1   C22 2942   1.780   1.016   8.090  0.2372 -0.1040  0.1478
   40CHL1  H22A 2943   1.851   1.101   8.078  0.4778 -0.2907  0.2394
   40CHL1  H22B 2944   1.678   1.060   8.094  0.5531  0.6445  0.3000
   40CHL1   C23 2945   1.822   0.959   8.225 -0.2126 -0.0387  0.3998
   40CHL1  H23A 2946   1.759   0.873   8.254 -1.1475  0.6353  0.4230
   40CHL1  H23B 2947   1.925   0.920   8.209 -0.1589  0.5416 -0.8494
   40CHL1   C24 2948   1.831   1.057   8.344 -0.5299  0.0257  0.3259
   40CHL1  H24A 2949   1.886   1.148   8.310  1.2539 -0.9334  0.5404
   40CHL1  H24B 2950   1.725   1.076   8.371 -0.7715 -1.4065  0.4254
   40CHL1   C25 2951   1.884   1.006   8.477  0.5586 -0.0702 -0.4229
   40CHL1   H25 2952   1.993   1.025   8.483  0.7712 -0.9379 -1.3115
   40CHL1   C26 2953   1.813   1.081   8.591  0.1365 -0.2309 -0.6780
   40CHL1  H26A 2954   1.824   1.191   8.579  3.1878 -0.3298  0.2911
   40CHL1  H26B 2955   1.704   1.061   8.598  0.1783 -0.3832 -0.4548
   40CHL1  H26C 2956   1.854   1.050   8.689  0.7909 -0.7343 -1.0977
   40CHL1   C27 2957   1.846   0.863   8.501  0.8857 -0.2823 -0.3593
   40CHL1  H27A 2958   1.739   0.841   8.478  0.6550 -0.4922  0.8419
   40CHL1  H27B 2959   1.919   0.808   8.438  1.3255  0.7482 -0.7742
   40CHL1  H27C 2960   1.859   0.843   8.609 -0.8801  0.3366 -0.0008
   41CHL1    C3 2961   3.190   0.242   7.033  0.4428 -0.2438  0.7042
   41CHL1    H3 2962   3.291   0.209   7.063 -0.1819 -1.6919  1.3430
   41CHL1    O3 2963   3.175   0.220   6.893  0.0192 -0.9488  0.1276
   41CHL1   H3' 2964   3.163   0.127   6.877  3.2171 -1.1492 -2.0160
   41CHL1    C4 2965   3.091   0.155   7.113  0.2105 -0.5594  0.4731
   41CHL1   H4A 2966   2.988   0.164   7.072  1.2261 -0.3022 -2.2545
   41CHL1   H4B 2967   3.128   0.052   7.093  0.8171 -0.1788 -0.4070
   41CHL1    C5 2968   3.091   0.193   7.260  0.3223  0.4250  0.7892
   41CHL1    C6 2969   3.118   0.103   7.352  0.2121  0.6848  0.2691
   41CHL1    H6 2970   3.136  -0.000   7.317 -4.1962 -0.6997  1.4820
   41CHL1    C7 2971   3.105   0.118   7.501  0.7994 -0.1683 -0.4598
   41CHL1   H7A 2972   3.042   0.041   7.550 -2.3046  3.2889  1.4986
   41CHL1   H7B 2973   3.206   0.109   7.548  0.7517  0.5405 -0.2163
   41CHL1    C8 2974   3.036   0.258   7.539  1.0381 -0.7430  0.6295
   41CHL1    H8 2975   2.929   0.229   7.526  0.4521  0.3188  2.6736
   41CHL1   C14 2976   3.061   0.291   7.682  0.1346 -0.1064  0.4580
   41CHL1   H14 2977   3.171   0.299   7.692  0.1430 -1.0913  1.3317
   41CHL1   C15 2978   3.019   0.175   7.769 -0.0090  0.6425  0.4548
   41CHL1  H15A 2979   2.931   0.124   7.725 -0.4690  3.3174 -2.0185
   41CHL1  H15B 2980   3.095   0.097   7.790 -0.6833 -0.3666 -0.7127
   41CHL1   C16 2981   2.986   0.242   7.903  0.5998  0.2881 -0.3634
   41CHL1  H16A 2982   2.877   0.233   7.925  1.0682 -0.2524  2.0123
   41CHL1  H16B 2983   3.043   0.190   7.983 -2.3910  0.6893  2.2117
   41CHL1   C17 2984   3.032   0.390   7.888  0.1373  0.3513 -0.2064
   41CHL1   H17 2985   3.143   0.395   7.886  0.1021  1.9202  0.3289
   41CHL1   C13 2986   3.008   0.422   7.735 -0.9691  0.1274 -0.3327
   41CHL1   C18 2987   2.855   0.427   7.714 -0.2241  0.0566 -0.0596
   41CHL1  H18A 2988   2.829   0.421   7.607 -0.6758 -0.1244  0.0581
   41CHL1  H18B 2989   2.802   0.351   7.776  1.4516  1.6156  3.6285
   41CHL1  H18C 2990   2.819   0.526   7.749  0.5536  0.3164  0.0120
   41CHL1   C12 2991   3.078   0.531   7.656 -1.0709  0.0794 -0.1127
   41CHL1  H12A 2992   3.044   0.635   7.674 -1.3337  0.3292 -1.9371
   41CHL1  H12B 2993   3.188   0.524   7.659 -0.9298  0.9984 -2.0622
   41CHL1   C11 2994   3.062   0.504   7.506  0.1947 -1.0065  1.2657
   41CHL1  H11A 2995   2.958   0.530   7.477  0.3743  0.6450  1.9906
   41CHL1  H11B 2996   3.138   0.569   7.458  1.4926 -0.7524  3.5014
   41CHL1    C9 2997   3.091   0.363   7.445  0.1638 -0.4424  0.0475
   41CHL1    H9 2998   3.202   0.358   7.452  0.1672  0.2485  0.5965
   41CHL1   C10 2999   3.058   0.335   7.296 -0.3404 -0.5390  0.1668
   41CHL1   C19 3000   2.919   0.381   7.256  0.6546 -0.0170 -0.5094
   41CHL1  H19A 3001   2.839   0.337   7.318  1.5499 -1.6680 -0.4687
   41CHL1  H19B 3002   2.907   0.490   7.273  2.0791  0.0565  0.2183
   41CHL1  H19C 3003   2.887   0.357   7.152  1.6173  4.4391 -2.0676
   41CHL1    C1 3004   3.164   0.420   7.217 -0.7257  0.4821 -0.4539
   41CHL1   H1A 3005   3.140   0.528   7.218  1.8696  1.1106  1.2211
   41CHL1   H1B 3006   3.266   0.414   7.260 -0.6834  2.7724 -0.1104
   41CHL1    C2 3007   3.170   0.388   7.063  0.6288  0.4015  0.3456
   41CHL1   H2A 3008   3.247   0.449   7.010 -0.0028 -1.0818 -2.3988
   41CHL1   H2B 3009   3.075   0.411   7.012  1.0506 -0.0096 -0.6396
   41CHL1   C20 3010   2.976   0.476   7.999  0.4715  0.6541 -1.1482
   41CHL1   H20 3011   2.865   0.479   7.985  0.2634 -0.2771  0.0836
   41CHL1   C21 3012   3.032   0.613   7.995 -1.3223  0.7635  0.8051
   41CHL1  H21A 3013   2.996   0.677   8.078 -0.5682 -1.1974  2.7314
   41CHL1  H21B 3014   3.005   0.667   7.902  1.1618 -1.4026 -1.3444
   41CHL1  H21C 3015   3.142   0.623   8.005 -1.1568  1.0561 -0.9941
   41CHL1   C22 3016   3.001   0.422   8.147 -0.5020  0.1660 -0.8463
   41CHL1  H22A 3017   2.979   0.315   8.167 -0.3583 -0.0019 -1.5668
   41CHL1  H22B 3018   3.107   0.433   8.177  0.0146  0.4099 -2.6411
   41CHL1   C23 3019   2.919   0.507   8.254 -0.6013 -0.8231  0.6957
   41CHL1  H23A 3020   2.964   0.603   8.287 -0.8188 -0.1175 -0.9684
   41CHL1  H23B 3021   2.828   0.545   8.203  0.0773  1.8650  1.3369
   41CHL1   C24 3022   2.878   0.429   8.380 -0.0426 -0.3044 -0.0555
   41CHL1  H24A 3023   2.835   0.329   8.354  0.3368 -0.4592 -0.0949
   41CHL1  H24B 3024   2.972   0.403   8.433 -0.0855 -1.4764 -0.5194
   41CHL1   C25 3025   2.781   0.497   8.471 -0.4814  0.4162  0.4515
   41CHL1   H25 3026   2.766   0.421   8.551  1.6057 -0.1457  0.3709
   41CHL1   C26 3027   2.840   0.626   8.545 -0.4593 -0.3944  0.1377
   41CHL1  H26A 3028   2.939   0.600   8.587 -0.8267  0.7455  1.8263
   41CHL1  H26B 3029   2.842   0.697   8.460  1.2531  1.5346  1.6893
   41CHL1  H26C 3030   2.768   0.665   8.621 -1.5809 -0.9420 -0.6151
   41CHL1   C27 3031   2.648   0.522   8.403 -0.6992 -0.3087 -0.3151
   41CHL1  H27A 3032   2.626   0.435   8.338  0.9726 -1.8400  1.0690
   41CHL1  H27B 3033   2.578   0.540   8.488  0.3064  0.5776  0.3499
   41CHL1  H27C 3034   2.666   0.618   8.350  1.5298  0.3014  1.4109
   42CHL1    C3 3035   5.000   3.946   7.007 -0.9817  0.4826  0.0574
   42CHL1    H3 3036   5.062   3.856   6.986  1.0028  1.0195  3.0700
   42CHL1    O3 3037   4.940   3.978   6.880 -0.4492 -0.3009  0.1096
   42CHL1   H3' 3038   4.893   3.910   6.831 -1.1171  0.5508 -0.4706
   42CHL1    C4 3039   4.893   3.905   7.114  0.6223 -0.4984  0.2009
   42CHL1   H4A 3040   4.807   3.975   7.113 -0.6410 -1.9364  1.4940
   42CHL1   H4B 3041   4.846   3.812   7.075 -0.7688  0.1463  0.2735
   42CHL1    C5 3042   4.960   3.892   7.251 -0.0949  0.3743  0.1256
   42CHL1    C6 3043   4.950   3.780   7.329  0.2526 -0.2071 -0.8103
   42CHL1    H6 3044   4.888   3.698   7.290 -1.0357 -0.1357  0.9719
   42CHL1    C7 3045   4.993   3.755   7.469 -0.1682 -0.1466 -0.5181
   42CHL1   H7A 3046   4.913   3.737   7.544  1.9526 -0.8162  1.7447
   42CHL1   H7B 3047   5.064   3.669   7.470  0.0654 -0.0001 -2.2566
   42CHL1    C8 3048   5.052   3.886   7.528  0.3944 -0.6849  0.0447
   42CHL1    H8 3049   4.969   3.950   7.565  0.7460 -0.7305  0.9541
   42CHL1   C14 3050   5.144   3.858   7.647 -0.5194 -0.3159  0.2055
   42CHL1   H14 3051   5.228   3.799   7.605  0.9922  0.2921  2.2123
   42CHL1   C15 3052   5.084   3.778   7.759 -0.1570 -0.1789 -0.7368
   42CHL1  H15A 3053   4.980   3.814   7.774 -0.6465 -0.4146 -3.0680
   42CHL1  H15B 3054   5.089   3.668   7.739 -2.0334 -0.3513 -0.4745
   42CHL1   C16 3055   5.168   3.819   7.880 -0.6580 -0.0632 -0.2532
   42CHL1  H16A 3056   5.113   3.857   7.969 -1.0833 -0.4957 -0.3260
   42CHL1  H16B 3057   5.221   3.733   7.926 -1.4122  0.1719  1.1132
   42CHL1   C17 3058   5.275   3.923   7.837 -0.1194 -1.1627 -0.4339
   42CHL1   H17 3059   5.376   3.884   7.811  1.0120  0.9647  0.5147
   42CHL1   C13 3060   5.212   3.981   7.711  0.6732  0.0100  0.0429
   42CHL1   C18 3061   5.096   4.079   7.759  0.3036  0.0353  0.6162
   42CHL1  H18A 3062   5.140   4.177   7.786 -1.3491  0.9773  0.0177
   42CHL1  H18B 3063   5.028   4.107   7.677  2.5857  0.4179 -1.2439
   42CHL1  H18C 3064   5.037   4.042   7.846  0.9873  0.8561  1.4554
   42CHL1   C12 3065   5.302   4.047   7.601 -0.6803  0.1519 -1.1639
   42CHL1  H12A 3066   5.365   4.133   7.633  0.8095 -1.6542  1.0166
   42CHL1  H12B 3067   5.373   3.967   7.574  0.6251  0.8008  0.1957
   42CHL1   C11 3068   5.212   4.086   7.485 -0.4520 -0.6166  0.3308
   42CHL1  H11A 3069   5.146   4.167   7.521  0.6509  0.6367 -0.4030
   42CHL1  H11B 3070   5.278   4.133   7.409  1.7512  0.2734  2.6450
   42CHL1    C9 3071   5.126   3.972   7.425 -0.8294  0.4446 -0.1354
   42CHL1    H9 3072   5.205   3.899   7.396  0.0007  1.0333  0.5806
   42CHL1   C10 3073   5.048   4.005   7.299  0.9241  0.3071  0.0087
   42CHL1   C19 3074   4.939   4.121   7.317  0.0291 -0.4851 -0.0134
   42CHL1  H19A 3075   4.878   4.144   7.228 -1.4414 -1.7891  0.6085
   42CHL1  H19B 3076   4.869   4.099   7.401  0.5233  0.2921  0.6173
   42CHL1  H19C 3077   4.992   4.218   7.329  2.4833 -1.3809 -2.5644
   42CHL1    C1 3078   5.148   4.047   7.186 -0.0070 -0.3086  0.2481
   42CHL1   H1A 3079   5.192   4.147   7.203  0.8206 -0.3306 -1.5702
   42CHL1   H1B 3080   5.231   3.974   7.180 -0.7438 -1.0600 -2.1131
   42CHL1    C2 3081   5.084   4.066   7.051 -0.4011  0.5693 -0.1992
   42CHL1   H2A 3082   5.162   4.071   6.972  1.0991 -0.3413  1.1632
   42CHL1   H2B 3083   5.018   4.156   7.040  1.4391  1.9512 -0.4227
   42CHL1   C20 3084   5.310   4.023   7.948  0.7455 -0.2113  0.4516
   42CHL1   H20 3085   5.220   4.080   7.979  0.8993  0.5026 -0.3794
   42CHL1   C21 3086   5.407   4.129   7.893  0.1206  0.5011  0.5956
   42CHL1  H21A 3087   5.446   4.171   7.988  0.4755 -0.5225  0.9188
   42CHL1  H21B 3088   5.348   4.203   7.836  1.3187  1.3937  0.4812
   42CHL1  H21C 3089   5.481   4.064   7.841 -0.6567  0.5639 -0.6162
   42CHL1   C22 3090   5.356   3.969   8.092  0.4516  0.0179 -0.1847
   42CHL1  H22A 3091   5.301   3.872   8.088 -1.2921  0.9684 -3.5805
   42CHL1  H22B 3092   5.466   3.955   8.094  0.6572  0.7428  4.7089
   42CHL1   C23 3093   5.320   4.074   8.198  0.2854  0.5604 -0.4167
   42CHL1  H23A 3094   5.383   4.164   8.190 -2.1840  2.5513  0.9850
   42CHL1  H23B 3095   5.211   4.098   8.202 -0.3133 -1.9320  0.5654
   42CHL1   C24 3096   5.339   4.013   8.343 -0.7910  0.0699  0.6179
   42CHL1  H24A 3097   5.257   3.940   8.362 -0.4512 -0.4891 -0.0172
   42CHL1  H24B 3098   5.434   3.958   8.360 -1.5746 -0.7250  2.7886
   42CHL1   C25 3099   5.323   4.114   8.458  0.4356 -0.5217  0.0017
   42CHL1   H25 3100   5.389   4.203   8.452 -2.3039  1.5803 -1.1681
   42CHL1   C26 3101   5.175   4.156   8.482  0.4587 -0.1580 -0.0923
   42CHL1  H26A 3102   5.164   4.231   8.564 -0.4059 -1.7922  1.3584
   42CHL1  H26B 3103   5.139   4.211   8.393  1.8136  1.9017  0.5614
   42CHL1  H26C 3104   5.113   4.065   8.497 -1.3484  0.9946 -0.1838
   42CHL1   C27 3105   5.356   4.044   8.591  0.5158 -0.8542  0.7610
   42CHL1  H27A 3106   5.279   3.967   8.611 -0.8408 -0.4375 -2.3175
   42CHL1  H27B 3107   5.356   4.123   8.669 -1.1978 -0.4683  0.3980
   42CHL1  H27C 3108   5.456   3.996   8.596  1.5709  1.2271  0.7257
   43CHL1    C3 3109   4.525   0.821   7.109  0.5417 -0.2278 -0.1270
   43CHL1    H3 3110   4.474   0.919   7.097  2.0006  0.5359 -0.2198
   43CHL1    O3 3111   4.522   0.746   6.987  0.1843 -0.5601 -0.4963
   43CHL1   H3' 3112   4.583   0.790   6.927 -1.5636  0.9469 -1.2633
   43CHL1    C4 3113   4.670   0.849   7.153 -0.2767  0.1036 -0.5592
   43CHL1   H4A 3114   4.735   0.761   7.134  0.3947  0.9243 -2.2528
   43CHL1   H4B 3115   4.713   0.926   7.086 -2.5088  3.3618  1.4755
   43CHL1    C5 3116   4.676   0.907   7.294 -0.2256  0.3611  0.3039
   43CHL1    C6 3117   4.733   1.021   7.318 -1.1631 -0.2980 -0.3900
   43CHL1    H6 3118   4.790   1.071   7.238 -0.9143 -1.3868 -0.9139
   43CHL1    C7 3119   4.757   1.083   7.448  0.5098  0.0830 -0.0687
   43CHL1   H7A 3120   4.866   1.106   7.440  0.5208  0.4109  0.9081
   43CHL1   H7B 3121   4.682   1.164   7.443  0.0767 -0.3288 -0.2362
   43CHL1    C8 3122   4.714   0.989   7.564 -0.2346  0.4910 -0.4470
   43CHL1    H8 3123   4.782   0.901   7.572 -1.5892 -0.6732 -1.2830
   43CHL1   C14 3124   4.710   1.043   7.705  1.0788  0.7137  0.6001
   43CHL1   H14 3125   4.632   1.122   7.702  1.1992  0.8072 -0.6258
   43CHL1   C15 3126   4.841   1.104   7.739  0.1064 -0.1784 -0.8119
   43CHL1  H15A 3127   4.927   1.037   7.720  0.2843  0.1452 -1.1587
   43CHL1  H15B 3128   4.860   1.199   7.685  0.4012  0.5589  0.5599
   43CHL1   C16 3129   4.823   1.115   7.887  0.6097 -0.0729  0.5073
   43CHL1  H16A 3130   4.915   1.071   7.931 -0.4296 -1.1253  1.7134
   43CHL1  H16B 3131   4.802   1.219   7.920 -1.3931 -0.3011  0.0871
   43CHL1   C17 3132   4.694   1.035   7.938 -0.1770  0.7980  0.6958
   43CHL1   H17 3133   4.605   1.101   7.950 -0.3797  0.8856 -1.0297
   43CHL1   C13 3134   4.668   0.943   7.814 -0.6906 -0.8612  0.2768
   43CHL1   C18 3135   4.754   0.813   7.822 -0.5423 -0.1709 -0.3990
   43CHL1  H18A 3136   4.752   0.750   7.730  0.4756 -0.7046 -0.0740
   43CHL1  H18B 3137   4.864   0.827   7.834  0.0017 -3.9906  0.4800
   43CHL1  H18C 3138   4.727   0.762   7.916  0.2207  0.5176  0.2079
   43CHL1   C12 3139   4.518   0.913   7.788 -0.9905  0.3641 -0.7614
   43CHL1  H12A 3140   4.476   0.848   7.868 -1.0402  1.0078 -0.2556
   43CHL1  H12B 3141   4.464   1.010   7.780  1.3463  2.1563  2.4740
   43CHL1   C11 3142   4.522   0.843   7.646 -0.2474  0.1829  0.1260
   43CHL1  H11A 3143   4.552   0.737   7.658  0.1883  0.4758  1.9067
   43CHL1  H11B 3144   4.416   0.836   7.612 -0.4736  1.2787  0.5628
   43CHL1    C9 3145   4.585   0.917   7.525  0.6131 -0.5331  0.2369
   43CHL1    H9 3146   4.510   0.995   7.499  1.1901 -0.4905 -1.4418
   43CHL1   C10 3147   4.600   0.827   7.402 -0.8921  0.9224 -0.8035
   43CHL1   C19 3148   4.675   0.690   7.437  0.1833 -0.0879  0.3529
   43CHL1  H19A 3149   4.604   0.627   7.495 -0.1919  2.1182  2.4476
   43CHL1  H19B 3150   4.710   0.641   7.344 -0.1679  0.1827  0.0776
   43CHL1  H19C 3151   4.756   0.692   7.514 -0.0761 -0.3265  0.6350
   43CHL1    C1 3152   4.462   0.781   7.355  0.4184  0.4119 -0.3177
   43CHL1   H1A 3153   4.426   0.699   7.422 -3.7348  0.7398 -1.8280
   43CHL1   H1B 3154   4.394   0.868   7.362  0.4945  0.3561  1.4715
   43CHL1    C2 3155   4.460   0.729   7.212  0.1410 -0.5719 -0.8378
   43CHL1   H2A 3156   4.351   0.719   7.189 -0.5936  1.6617  1.2558
   43CHL1   H2B 3157   4.508   0.629   7.212  1.1500 -0.1208  0.4319
   43CHL1   C20 3158   4.722   0.962   8.072 -0.6471 -0.0193 -0.4508
   43CHL1   H20 3159   4.802   0.886   8.063 -0.0780  0.6048 -0.7301
   43CHL1   C21 3160   4.589   0.900   8.128 -0.1425  0.3311 -0.3590
   43CHL1  H21A 3161   4.613   0.835   8.215 -0.8348 -0.5490 -0.8118
   43CHL1  H21B 3162   4.545   0.832   8.052  0.7653 -2.2046  1.2563
   43CHL1  H21C 3163   4.511   0.978   8.142 -0.4355 -0.1926  1.0459
   43CHL1   C22 3164   4.774   1.057   8.175 -0.4605  0.3296  1.2266
   43CHL1  H22A 3165   4.875   1.090   8.143  0.5192 -1.1562  2.6174
   43CHL1  H22B 3166   4.703   1.141   8.187  0.5562  1.5073 -0.5613
   43CHL1   C23 3167   4.805   0.988   8.313 -0.1482 -0.3352 -0.1468
   43CHL1  H23A 3168   4.707   0.974   8.364  0.9584  2.2399  2.9936
   43CHL1  H23B 3169   4.852   0.889   8.296  1.5497  0.0322  2.0016
   43CHL1   C24 3170   4.903   1.060   8.402  0.8437  0.8839 -0.0643
   43CHL1  H24A 3171   4.993   1.090   8.344 -0.0333  0.5601 -1.6484
   43CHL1  H24B 3172   4.855   1.158   8.422 -1.3964 -0.3377  0.8488
   43CHL1   C25 3173   4.923   0.986   8.536 -0.0207 -0.5265  0.2212
   43CHL1   H25 3174   4.824   0.955   8.576 -1.2123  0.2563 -1.9052
   43CHL1   C26 3175   5.026   0.874   8.520 -1.0282  0.0122  0.1916
   43CHL1  H26A 3176   5.049   0.833   8.621 -0.4408 -0.4985 -0.1400
   43CHL1  H26B 3177   4.990   0.805   8.441  0.7086 -1.6574  0.7855
   43CHL1  H26C 3178   5.128   0.910   8.493 -0.4805 -1.3031  0.4206
   43CHL1   C27 3179   4.983   1.080   8.637  0.2784  0.3413 -0.6522
   43CHL1  H27A 3180   5.088   1.111   8.614  0.7840  2.7206  3.7310
   43CHL1  H27B 3181   4.920   1.171   8.632 -1.0654 -0.6176 -2.1720
   43CHL1  H27C 3182   4.988   1.045   8.743 -1.4539  2.4081  0.1944
   44CHL1    C3 3183   4.054   0.198   6.854  0.0623 -0.3747 -0.4373
   44CHL1    H3 3184   4.162   0.206   6.880  0.9413 -5.0314 -1.7828
   44CHL1    O3 3185   4.025   0.211   6.711  0.1262  0.2830  0.4752
   44CHL1   H3' 3186   4.014   0.303   6.687 -2.7132 -0.0179  0.2907
   44CHL1    C4 3187   4.005   0.059   6.906  0.4557  0.2215 -0.7817
   44CHL1   H4A 3188   3.897   0.040   6.885 -0.2246  1.6436  1.0874
   44CHL1   H4B 3189   4.068  -0.020   6.860 -0.6387 -1.8048  1.0486
   44CHL1    C5 3190   4.017   0.065   7.059 -0.7864  0.5266  0.5020
   44CHL1    C6 3191   4.090  -0.032   7.126  0.4991  0.0497  0.0066
   44CHL1    H6 3192   4.125  -0.116   7.064  2.5937  1.5797 -1.0375
   44CHL1    C7 3193   4.119  -0.036   7.270 -0.1807  0.2298  0.0042
   44CHL1   H7A 3194   4.108  -0.140   7.308 -1.4946 -0.0539 -1.0915
   44CHL1   H7B 3195   4.226  -0.008   7.283  0.2500 -0.7767 -1.2196
   44CHL1    C8 3196   4.023   0.061   7.350 -0.1798 -0.6257  0.3454
   44CHL1    H8 3197   3.920   0.020   7.355 -0.8726  1.1573  1.7948
   44CHL1   C14 3198   4.065   0.087   7.494  0.2697 -0.5417  0.9706
   44CHL1   H14 3199   4.160   0.145   7.489 -0.1712  0.2655  1.7357
   44CHL1   C15 3200   4.108  -0.034   7.576  0.0726  0.6223  0.3765
   44CHL1  H15A 3201   4.041  -0.122   7.580  0.2905  0.5019  1.9750
   44CHL1  H15B 3202   4.209  -0.061   7.537 -0.6364  0.1818 -1.2278
   44CHL1   C16 3203   4.114   0.016   7.718 -0.2332  0.3353  0.3014
   44CHL1  H16A 3204   4.046  -0.055   7.770  0.1784 -0.6649 -0.5066
   44CHL1  H16B 3205   4.215   0.013   7.764 -0.7167 -4.4371  1.5403
   44CHL1   C17 3206   4.056   0.160   7.712  0.4921  0.7808 -0.8690
   44CHL1   H17 3207   4.150   0.219   7.703  1.1183 -0.1669 -0.6982
   44CHL1   C13 3208   3.976   0.163   7.585 -0.1298  0.0579  0.4624
   44CHL1   C18 3209   3.831   0.102   7.591  0.2745  0.4518 -0.6970
   44CHL1  H18A 3210   3.776   0.110   7.495  0.7000  1.3747 -0.8825
   44CHL1  H18B 3211   3.836  -0.005   7.619 -0.1990  0.3477 -1.0091
   44CHL1  H18C 3212   3.773   0.169   7.659 -1.1602 -0.6766 -0.7576
   44CHL1   C12 3213   3.969   0.298   7.516  0.3724  0.0549  0.4967
   44CHL1  H12A 3214   3.892   0.362   7.565 -0.1197 -0.0021 -0.1763
   44CHL1  H12B 3215   4.061   0.357   7.537  0.3077 -0.1589  1.4286
   44CHL1   C11 3216   3.931   0.300   7.372 -0.7997  0.2772  0.4994
   44CHL1  H11A 3217   3.821   0.282   7.371 -0.8531  0.6057 -0.7004
   44CHL1  H11B 3218   3.963   0.402   7.342  1.8644 -0.1745  1.5959
   44CHL1    C9 3219   4.007   0.199   7.278  0.4294 -0.0012 -0.2364
   44CHL1    H9 3220   4.111   0.237   7.268  0.0316  1.0675 -0.4626
   44CHL1   C10 3221   3.961   0.190   7.125  0.1513 -0.1295  0.0478
   44CHL1   C19 3222   3.807   0.182   7.120  0.1641 -1.1267  0.0772
   44CHL1  H19A 3223   3.765   0.096   7.176 -1.0963 -0.6444 -0.0959
   44CHL1  H19B 3224   3.757   0.272   7.162  0.8783 -1.0695  0.8368
   44CHL1  H19C 3225   3.780   0.182   7.012  1.7292  3.5318 -0.5521
   44CHL1    C1 3226   3.995   0.325   7.068  0.0260  0.1536  0.1274
   44CHL1   H1A 3227   3.941   0.405   7.123  0.0432 -0.3930  0.9623
   44CHL1   H1B 3228   4.101   0.355   7.079  0.0690  0.1827 -0.3626
   44CHL1    C2 3229   3.981   0.321   6.914 -0.5515  0.6594 -0.1823
   44CHL1   H2A 3230   4.016   0.417   6.872  3.0777  0.1070  1.2219
   44CHL1   H2B 3231   3.875   0.307   6.883 -0.4049  0.3627 -0.5615
   44CHL1   C20 3232   3.983   0.196   7.846 -0.8905 -0.2565 -1.3785
   44CHL1   H20 3233   3.891   0.133   7.848 -1.2717  0.2487  1.8803
   44CHL1   C21 3234   3.954   0.343   7.850  0.3147 -0.3694 -0.5337
   44CHL1  H21A 3235   3.916   0.369   7.951  1.7968 -0.7003  0.1303
   44CHL1  H21B 3236   3.887   0.390   7.774 -1.2978  0.2501  1.2024
   44CHL1  H21C 3237   4.050   0.399   7.842 -0.4840  0.9787 -1.0979
   44CHL1   C22 3238   4.067   0.150   7.972  0.8552  0.4212 -0.5063
   44CHL1  H22A 3239   4.006   0.174   8.061  0.6314 -0.7274 -0.3386
   44CHL1  H22B 3240   4.062   0.039   7.970 -0.6041  0.4642 -0.7649
   44CHL1   C23 3241   4.211   0.196   7.976 -0.1126  0.4119 -0.3665
   44CHL1  H23A 3242   4.281   0.167   7.895  1.9303 -0.0024  1.4541
   44CHL1  H23B 3243   4.210   0.307   7.974 -0.4052  0.4060 -0.5014
   44CHL1   C24 3244   4.291   0.157   8.097  0.4701 -0.5295 -0.1189
   44CHL1  H24A 3245   4.282   0.047   8.100  0.9828 -0.6002 -0.8835
   44CHL1  H24B 3246   4.398   0.184   8.083  0.5554 -0.1245  1.1231
   44CHL1   C25 3247   4.247   0.209   8.236 -0.2210  0.2924  0.0705
   44CHL1   H25 3248   4.138   0.190   8.245 -0.2999 -0.8486 -2.3130
   44CHL1   C26 3249   4.299   0.119   8.349 -0.2715 -0.5700  0.6450
   44CHL1  H26A 3250   4.248   0.137   8.446  2.1777 -2.2901  2.3607
   44CHL1  H26B 3251   4.283   0.015   8.314 -2.2665  0.8088 -3.0655
   44CHL1  H26C 3252   4.408   0.126   8.370 -0.0229 -2.2748  0.0734
   44CHL1   C27 3253   4.271   0.355   8.250  0.0023 -0.2583 -0.2985
   44CHL1  H27A 3254   4.378   0.378   8.229  0.4549 -0.8109  1.2762
   44CHL1  H27B 3255   4.209   0.416   8.182 -1.0013 -0.7030  0.1963
   44CHL1  H27C 3256   4.246   0.385   8.354 -0.4079 -4.5142  1.0158
   45CHL1    C3 3257   0.310   5.412   6.828 -0.1461  0.2713  0.2521
   45CHL1    H3 3258   0.213   5.362   6.811 -0.0511  0.5207 -1.1355
   45CHL1    O3 3259   0.357   5.468   6.705 -0.4775 -0.3533 -0.1601
   45CHL1   H3' 3260   0.447   5.497   6.719 -0.0666 -0.5077 -2.2085
   45CHL1    C4 3261   0.283   5.529   6.919 -0.3155 -0.0590  0.0720
   45CHL1   H4A 3262   0.358   5.611   6.911 -0.8285  0.3212 -1.0599
   45CHL1   H4B 3263   0.189   5.571   6.878  0.7462  0.7509 -1.6833
   45CHL1    C5 3264   0.260   5.499   7.062 -0.0206 -0.4802 -0.3397
   45CHL1    C6 3265   0.147   5.527   7.129  0.7508  0.0991  0.7120
   45CHL1    H6 3266   0.075   5.590   7.075  1.5488  0.6167  0.2403
   45CHL1    C7 3267   0.127   5.516   7.279 -0.1939  0.1749 -0.0443
   45CHL1   H7A 3268   0.087   5.610   7.323  0.4143  0.0594  0.7991
   45CHL1   H7B 3269   0.045   5.446   7.303 -1.5904  1.2039 -1.6079
   45CHL1    C8 3270   0.260   5.487   7.347 -0.5578  0.0300 -0.1648
   45CHL1    H8 3271   0.329   5.574   7.344 -1.2205  0.5887  0.3304
   45CHL1   C14 3272   0.235   5.444   7.494 -0.9592 -0.1515 -0.0398
   45CHL1   H14 3273   0.162   5.361   7.500 -2.3023  1.1028  2.5726
   45CHL1   C15 3274   0.161   5.550   7.583 -0.6190  0.3429 -0.4813
   45CHL1  H15A 3275   0.210   5.649   7.586 -1.1256  0.5797  0.1522
   45CHL1  H15B 3276   0.053   5.561   7.558 -0.6054  3.2035  0.4436
   45CHL1   C16 3277   0.178   5.491   7.725  0.1815 -0.4614 -0.3475
   45CHL1  H16A 3278   0.224   5.573   7.783 -1.1449 -0.7843  1.2394
   45CHL1  H16B 3279   0.082   5.464   7.773  1.1371 -1.0700  1.2780
   45CHL1   C17 3280   0.276   5.374   7.713 -0.3429  0.7299 -0.3069
   45CHL1   H17 3281   0.220   5.280   7.696  2.8279 -1.0248 -2.0197
   45CHL1   C13 3282   0.356   5.398   7.579  0.2899  0.1502 -0.5430
   45CHL1   C18 3283   0.468   5.506   7.593  0.1933 -0.4517  0.2411
   45CHL1  H18A 3284   0.476   5.565   7.499 -0.2060  0.2389  0.6383
   45CHL1  H18B 3285   0.433   5.582   7.666 -1.1898  2.3327 -3.0536
   45CHL1  H18C 3286   0.564   5.454   7.614  1.2610  0.8127 -1.2811
   45CHL1   C12 3287   0.412   5.280   7.510  0.4342  0.2490  0.0793
   45CHL1  H12A 3288   0.501   5.230   7.553  0.0268  1.2578  2.2101
   45CHL1  H12B 3289   0.327   5.209   7.498 -1.8115  2.5098  1.6506
   45CHL1   C11 3290   0.455   5.314   7.363  0.7584  0.2163  0.1701
   45CHL1  H11A 3291   0.543   5.380   7.371 -0.2795  1.5836  0.6392
   45CHL1  H11B 3292   0.505   5.230   7.310  1.9381  1.4444 -0.7062
   45CHL1    C9 3293   0.339   5.369   7.275  0.9054 -0.4802  0.1938
   45CHL1    H9 3294   0.262   5.289   7.275  1.3664 -0.9576  1.5927
   45CHL1   C10 3295   0.373   5.415   7.133  0.2979  0.5998  0.4240
   45CHL1   C19 3296   0.504   5.493   7.139  0.5493 -0.5851 -0.7668
   45CHL1  H19A 3297   0.540   5.532   7.041  2.0734 -1.3351 -0.5307
   45CHL1  H19B 3298   0.489   5.589   7.193  3.5862  1.0517 -2.5435
   45CHL1  H19C 3299   0.586   5.445   7.196 -1.5298 -2.2904  0.9749
   45CHL1    C1 3300   0.391   5.292   7.041 -0.1026  0.7455  0.3817
   45CHL1   H1A 3301   0.468   5.231   7.093  0.2600  2.3812  1.8724
   45CHL1   H1B 3302   0.296   5.235   7.042  0.3971 -0.2390 -1.9335
   45CHL1    C2 3303   0.415   5.317   6.887 -0.6524  0.3789  0.1600
   45CHL1   H2A 3304   0.423   5.223   6.829 -0.5995 -0.0104  0.7949
   45CHL1   H2B 3305   0.512   5.369   6.874 -0.4087  0.0456  0.6271
   45CHL1   C20 3306   0.367   5.364   7.831  0.0857  0.4524 -0.5269
   45CHL1   H20 3307   0.431   5.454   7.844 -2.8170  2.6812 -0.8024
   45CHL1   C21 3308   0.470   5.254   7.833 -0.7459  0.2531  0.6216
   45CHL1  H21A 3309   0.424   5.155   7.813 -2.4365  0.5802  2.4975
   45CHL1  H21B 3310   0.534   5.241   7.923 -0.2009 -0.4559  0.1331
   45CHL1  H21C 3311   0.537   5.284   7.750 -0.6663 -0.0034  0.5921
   45CHL1   C22 3312   0.281   5.354   7.966  0.3393  0.1089 -0.6295
   45CHL1  H22A 3313   0.207   5.436   7.974 -1.0629 -1.0977 -0.9082
   45CHL1  H22B 3314   0.229   5.256   7.967 -0.1905  0.2599  3.6716
   45CHL1   C23 3315   0.360   5.364   8.098  0.1497 -0.1109  0.0197
   45CHL1  H23A 3316   0.446   5.294   8.104 -0.3762 -0.7257  0.6124
   45CHL1  H23B 3317   0.399   5.468   8.093  0.2035 -0.1837 -1.3791
   45CHL1   C24 3318   0.271   5.341   8.231  0.1272  0.1942 -0.5797
   45CHL1  H24A 3319   0.198   5.424   8.233 -0.8974 -0.6844 -0.5643
   45CHL1  H24B 3320   0.204   5.253   8.219  1.1971 -0.7363  0.1578
   45CHL1   C25 3321   0.347   5.329   8.362  0.1224  1.1533  1.1472
   45CHL1   H25 3322   0.402   5.232   8.365  3.0538  2.4606 -2.5220
   45CHL1   C26 3323   0.445   5.445   8.370  0.4455  0.9345  0.5660
   45CHL1  H26A 3324   0.521   5.435   8.289 -1.2546  2.6430 -1.3614
   45CHL1  H26B 3325   0.379   5.534   8.357  0.6359  0.8299 -1.4581
   45CHL1  H26C 3326   0.487   5.443   8.473  0.2286  0.6494  0.6475
   45CHL1   C27 3327   0.244   5.325   8.474 -0.2056  0.2955 -0.1209
   45CHL1  H27A 3328   0.165   5.250   8.448 -0.1651  0.7105 -1.5529
   45CHL1  H27B 3329   0.299   5.294   8.565 -0.3754  0.3209 -0.0085
   45CHL1  H27C 3330   0.196   5.424   8.487  1.1099  1.2333 -1.9429
   46CHL1    C3 3331   5.497   6.154   7.085 -0.0129  0.1101  0.2270
   46CHL1    H3 3332   5.387   6.162   7.086 -0.0202  0.0804  1.7747
   46CHL1    O3 3333   5.558   6.163   6.953  0.2397 -0.0382 -0.1591
   46CHL1   H3' 3334   5.530   6.079   6.918 -1.1687 -0.0084  0.7912
   46CHL1    C4 3335   5.564   6.270   7.173 -0.2641  0.0262 -0.1544
   46CHL1   H4A 3336   5.669   6.256   7.141 -0.0459  1.5444 -0.1657
   46CHL1   H4B 3337   5.527   6.369   7.139  0.7034 -0.3845 -2.6283
   46CHL1    C5 3338   5.542   6.242   7.325 -0.6873 -0.4593 -0.7391
   46CHL1    C6 3339   5.516   6.352   7.409 -0.8206  0.5530  0.9372
   46CHL1    H6 3340   5.523   6.458   7.380  0.1525  0.4023  0.5763
   46CHL1    C7 3341   5.510   6.338   7.558  1.0029  0.7668  0.0354
   46CHL1   H7A 3342   5.562   6.416   7.617 -2.6829  1.8130  2.2700
   46CHL1   H7B 3343   5.401   6.342   7.582  1.0542  1.8602  0.1165
   46CHL1    C8 3344   5.559   6.198   7.610  0.3966 -0.1643 -0.5320
   46CHL1    H8 3345   5.668   6.207   7.630  0.1659  1.7513  0.0924
   46CHL1   C14 3346   5.484   6.171   7.745 -0.4680 -0.5530  0.3003
   46CHL1   H14 3347   5.378   6.161   7.712 -0.1589  2.3639 -1.9216
   46CHL1   C15 3348   5.485   6.283   7.855  0.0267  0.2785 -0.0196
   46CHL1  H15A 3349   5.588   6.326   7.855 -0.0968  0.5736 -0.8026
   46CHL1  H15B 3350   5.403   6.354   7.834  0.0998 -0.1371 -1.8280
   46CHL1   C16 3351   5.455   6.215   7.983 -0.0283  0.8130 -0.0651
   46CHL1  H16A 3352   5.537   6.234   8.056 -1.2027 -1.5719  2.0259
   46CHL1  H16B 3353   5.362   6.254   8.030 -1.1584  2.3030 -3.2809
   46CHL1   C17 3354   5.456   6.064   7.959 -0.3320 -0.1969 -0.0318
   46CHL1   H17 3355   5.354   6.033   7.928 -0.2543 -0.9383  0.4255
   46CHL1   C13 3356   5.537   6.046   7.829 -0.3993  0.7447 -0.2028
   46CHL1   C18 3357   5.691   6.038   7.863 -0.3913 -0.0847 -0.3903
   46CHL1  H18A 3358   5.713   5.945   7.920 -1.1834 -0.7921 -1.2012
   46CHL1  H18B 3359   5.746   6.046   7.766 -1.0826 -0.8269 -0.8631
   46CHL1  H18C 3360   5.717   6.128   7.922  0.4740 -0.7125  0.2141
   46CHL1   C12 3361   5.500   5.917   7.738 -0.6913 -0.8773  0.1988
   46CHL1  H12A 3362   5.527   5.825   7.796 -2.3838 -0.0983  2.3626
   46CHL1  H12B 3363   5.390   5.917   7.726 -0.5988 -2.7732 -1.1201
   46CHL1   C11 3364   5.558   5.934   7.592 -0.4455  0.7405 -0.1395
   46CHL1  H11A 3365   5.669   5.933   7.595 -0.4081 -1.9380 -0.1987
   46CHL1  H11B 3366   5.511   5.854   7.532 -0.5038 -0.3022  1.2559
   46CHL1    C9 3367   5.515   6.077   7.524  0.7497 -0.3131 -0.6307
   46CHL1    H9 3368   5.404   6.084   7.530  0.7527 -1.0056  0.7998
   46CHL1   C10 3369   5.551   6.096   7.373  0.4426 -0.3783 -0.0918
   46CHL1   C19 3370   5.703   6.065   7.369  0.1718 -0.1996  0.3107
   46CHL1  H19A 3371   5.722   5.958   7.391  0.7053  0.2943  2.4164
   46CHL1  H19B 3372   5.760   6.095   7.278  1.7608 -0.8408  1.0675
   46CHL1  H19C 3373   5.754   6.122   7.449 -1.4381  3.1199 -0.7837
   46CHL1    C1 3374   5.491   5.988   7.279 -0.4940 -0.1433  0.5418
   46CHL1   H1A 3375   5.513   5.885   7.312 -1.1485 -0.2402  0.6865
   46CHL1   H1B 3376   5.380   5.993   7.285 -0.7625  0.3682 -2.8174
   46CHL1    C2 3377   5.528   6.008   7.128 -0.1068  0.2056 -0.2863
   46CHL1   H2A 3378   5.469   5.939   7.064 -1.7781  1.6527 -0.3966
   46CHL1   H2B 3379   5.637   5.994   7.112  0.3762  3.4870 -0.6454
   46CHL1   C20 3380   5.488   5.969   8.075  0.5085 -0.3348 -0.7175
   46CHL1   H20 3381   5.595   5.974   8.101 -0.1570 -0.9930  2.6291
   46CHL1   C21 3382   5.438   5.823   8.040 -0.1306 -0.2042 -0.7326
   46CHL1  H21A 3383   5.420   5.763   8.132  2.2689  0.7029  0.3934
   46CHL1  H21B 3384   5.517   5.762   7.991 -1.4981 -1.6179 -1.2872
   46CHL1  H21C 3385   5.343   5.834   7.983 -2.6394  1.4811  3.3001
   46CHL1   C22 3386   5.432   6.013   8.213  0.4286 -0.6276 -0.0438
   46CHL1  H22A 3387   5.478   6.110   8.244  1.7193 -1.0148 -0.6830
   46CHL1  H22B 3388   5.321   6.019   8.213  0.3109 -2.0341 -1.7184
   46CHL1   C23 3389   5.461   5.920   8.332  0.3574 -0.5336 -0.2999
   46CHL1  H23A 3390   5.384   5.840   8.325 -1.8392  1.4637 -0.0969
   46CHL1  H23B 3391   5.558   5.868   8.319  0.0626 -0.9188 -0.9979
   46CHL1   C24 3392   5.431   6.003   8.459  0.5106 -0.2192  0.1645
   46CHL1  H24A 3393   5.509   6.083   8.453 -0.4820  0.9570  1.9874
   46CHL1  H24B 3394   5.335   6.056   8.440  1.6833  1.5792 -1.1586
   46CHL1   C25 3395   5.445   5.924   8.579 -0.0771  0.7726 -0.0412
   46CHL1   H25 3396   5.368   5.846   8.596  1.1433  0.0642  2.7633
   46CHL1   C26 3397   5.575   5.845   8.586 -0.4521  0.5082  0.3866
   46CHL1  H26A 3398   5.562   5.782   8.676  0.5477 -0.3353 -0.0274
   46CHL1  H26B 3399   5.591   5.764   8.510 -0.7014  0.7009  0.1272
   46CHL1  H26C 3400   5.667   5.904   8.607 -0.4076 -0.2385  2.5559
   46CHL1   C27 3401   5.449   6.021   8.704  1.1754  0.2686 -1.0822
   46CHL1  H27A 3402   5.351   6.066   8.728  0.5316 -2.5781  2.4635
   46CHL1  H27B 3403   5.485   5.971   8.797  0.1546  1.9912  0.3004
   46CHL1  H27C 3404   5.514   6.107   8.676 -1.0766  1.6974 -2.2325
   47CHL1    C3 3405   5.074   0.414   6.784  0.2131 -0.5109  0.2350
   47CHL1    H3 3406   5.080   0.523   6.804 -2.1100 -0.2327 -0.3648
   47CHL1    O3 3407   5.082   0.412   6.644 -0.4416  0.5636  0.7328
   47CHL1   H3' 3408   5.110   0.321   6.628  0.0189  0.7118  0.6621
   47CHL1    C4 3409   5.199   0.350   6.848  0.1799  0.5701 -1.5326
   47CHL1   H4A 3410   5.194   0.241   6.824  0.6751  0.4341 -1.0535
   47CHL1   H4B 3411   5.291   0.390   6.800  0.8306 -0.3746 -1.1216
   47CHL1    C5 3412   5.191   0.367   7.001 -0.3633 -0.2344 -1.0823
   47CHL1    C6 3413   5.294   0.430   7.068 -0.8427 -0.5338 -0.5995
   47CHL1    H6 3414   5.381   0.476   7.017  1.5122  0.0951  3.5531
   47CHL1    C7 3415   5.295   0.444   7.216 -0.4954  0.3067  0.7675
   47CHL1   H7A 3416   5.398   0.422   7.249  0.4720  0.5314 -1.8420
   47CHL1   H7B 3417   5.284   0.554   7.226 -0.4780  0.7311 -2.5992
   47CHL1    C8 3418   5.197   0.354   7.299 -0.0383  0.2953 -0.1395
   47CHL1    H8 3419   5.249   0.256   7.305  0.0312  0.4235  1.9991
   47CHL1   C14 3420   5.178   0.405   7.441 -0.0318 -1.0511  0.3148
   47CHL1   H14 3421   5.130   0.505   7.444  1.4858 -0.3209  1.2957
   47CHL1   C15 3422   5.305   0.430   7.533 -0.2511 -0.5478 -0.0033
   47CHL1  H15A 3423   5.384   0.352   7.527 -0.5336 -1.2144  2.9569
   47CHL1  H15B 3424   5.342   0.531   7.507 -0.1341 -0.3615  0.8418
   47CHL1   C16 3425   5.251   0.435   7.676  0.7354  0.2261  0.7013
   47CHL1  H16A 3426   5.299   0.355   7.737  2.1021 -0.2044 -0.8888
   47CHL1  H16B 3427   5.283   0.533   7.718  1.8454  0.8313 -1.4116
   47CHL1   C17 3428   5.100   0.399   7.670  0.8809  0.0655 -0.5592
   47CHL1   H17 3429   5.053   0.499   7.667  0.9888  0.1478  0.2704
   47CHL1   C13 3430   5.080   0.327   7.527  0.3105  0.0810 -0.6244
   47CHL1   C18 3431   5.130   0.177   7.535 -0.3332  0.1534  0.3833
   47CHL1  H18A 3432   5.072   0.127   7.615  1.7210 -0.7937  1.3520
   47CHL1  H18B 3433   5.115   0.122   7.440 -1.0233 -2.4094  1.8927
   47CHL1  H18C 3434   5.240   0.180   7.550 -0.0793  1.9071 -1.3404
   47CHL1   C12 3435   4.938   0.323   7.460  0.0756  0.0497 -0.2878
   47CHL1  H12A 3436   4.881   0.242   7.511  0.9936 -0.8760 -0.6966
   47CHL1  H12B 3437   4.902   0.427   7.472  0.8397  0.1117  1.8798
   47CHL1   C11 3438   4.948   0.275   7.312 -0.2771 -0.3754  0.0285
   47CHL1  H11A 3439   4.955   0.165   7.308 -0.1912 -0.3352 -1.4163
   47CHL1  H11B 3440   4.850   0.306   7.269 -0.2763 -0.0749  0.2308
   47CHL1    C9 3441   5.061   0.354   7.226  0.3925  0.1770  0.3274
   47CHL1    H9 3442   5.030   0.461   7.224 -0.3544 -0.0384 -0.1075
   47CHL1   C10 3443   5.072   0.305   7.078  0.9797  0.1983  0.1149
   47CHL1   C19 3444   5.083   0.153   7.075 -0.2916  0.4829 -0.7656
   47CHL1  H19A 3445   5.186   0.119   7.097  0.9990  1.6591 -4.2465
   47CHL1  H19B 3446   4.994   0.101   7.119  0.4963 -2.7052 -2.5893
   47CHL1  H19C 3447   5.079   0.108   6.973  0.2618  1.8928 -1.4239
   47CHL1    C1 3448   4.945   0.359   6.998 -0.0988  0.5950 -0.1545
   47CHL1   H1A 3449   4.854   0.306   7.032  0.6951 -0.2814  0.6543
   47CHL1   H1B 3450   4.943   0.468   7.022  1.6535  0.7106 -0.3898
   47CHL1    C2 3451   4.944   0.357   6.839  0.2096 -0.1006  0.3851
   47CHL1   H2A 3452   4.854   0.396   6.786  0.6511  0.0452 -0.2589
   47CHL1   H2B 3453   4.930   0.249   6.820 -0.4779  0.0507 -0.0079
   47CHL1   C20 3454   5.048   0.332   7.797 -0.6790  0.1540 -0.4231
   47CHL1   H20 3455   5.086   0.228   7.801  1.8995  1.0283  0.2626
   47CHL1   C21 3456   4.893   0.329   7.797 -0.2595  0.2829 -0.3347
   47CHL1  H21A 3457   4.865   0.322   7.904  0.7064  0.2389 -0.0735
   47CHL1  H21B 3458   4.845   0.239   7.754 -1.5502 -0.1142  1.7746
   47CHL1  H21C 3459   4.846   0.425   7.766  2.1475  1.4154 -0.7567
   47CHL1   C22 3460   5.099   0.384   7.936 -0.5145  0.0410 -0.1998
   47CHL1  H22A 3461   5.069   0.322   8.023 -1.6811  1.5458  0.5399
   47CHL1  H22B 3462   5.206   0.378   7.909 -0.4453  1.7119 -0.4222
   47CHL1   C23 3463   5.064   0.528   7.977 -0.0897 -0.1941 -0.1916
   47CHL1  H23A 3464   5.083   0.601   7.895 -2.3573  0.6435 -0.0552
   47CHL1  H23B 3465   4.955   0.538   7.998 -0.4327  0.2362 -2.0369
   47CHL1   C24 3466   5.139   0.578   8.104 -0.1412  0.2440 -0.5813
   47CHL1  H24A 3467   5.109   0.515   8.190 -0.0200  1.2959  0.2555
   47CHL1  H24B 3468   5.249   0.575   8.097  0.2340 -0.6675  3.3235
   47CHL1   C25 3469   5.118   0.729   8.151  0.0706  0.0691 -0.2214
   47CHL1   H25 3470   5.016   0.733   8.193  0.7939  0.2510  1.6310
   47CHL1   C26 3471   5.220   0.775   8.252 -0.5870 -1.0898 -0.4690
   47CHL1  H26A 3472   5.190   0.880   8.274 -1.7399 -1.5462  0.2220
   47CHL1  H26B 3473   5.211   0.724   8.350 -0.3157 -0.6014 -0.1845
   47CHL1  H26C 3474   5.324   0.784   8.213 -0.3299 -2.5606 -0.1801
   47CHL1   C27 3475   5.139   0.819   8.035  0.5437  0.5641  0.0083
   47CHL1  H27A 3476   5.131   0.926   8.064 -0.5168 -0.1215  2.4826
   47CHL1  H27B 3477   5.242   0.806   7.995  0.8705  0.2282  0.9350
   47CHL1  H27C 3478   5.062   0.811   7.956  2.3002 -2.9115 -1.5607
   48CHL1    C3 3479   1.585   3.183   6.360 -0.1971 -0.2869  0.2679
   48CHL1    H3 3480   1.523   3.275   6.358  1.5251  0.8845 -1.0559
   48CHL1    O3 3481   1.631   3.138   6.232  0.7372 -0.4401 -0.3929
   48CHL1   H3' 3482   1.612   3.044   6.233 -1.7356  0.0168 -0.3313
   48CHL1    C4 3483   1.713   3.209   6.445 -0.4654  1.0069 -0.5674
   48CHL1   H4A 3484   1.773   3.116   6.430 -0.0199  0.8729  1.7135
   48CHL1   H4B 3485   1.769   3.288   6.391  2.4610 -0.6648 -0.2465
   48CHL1    C5 3486   1.683   3.229   6.592  0.4224 -0.1109  0.3423
   48CHL1    C6 3487   1.725   3.337   6.660 -0.4427 -0.3319 -0.0497
   48CHL1    H6 3488   1.780   3.416   6.608 -0.1169 -0.6538 -0.1949
   48CHL1    C7 3489   1.699   3.360   6.809 -0.0088  0.3182 -0.3508
   48CHL1   H7A 3490   1.770   3.427   6.863  0.6306 -0.6795  0.0673
   48CHL1   H7B 3491   1.608   3.423   6.820 -2.1291 -2.3520 -1.4904
   48CHL1    C8 3492   1.668   3.229   6.886  0.4354  0.1094 -0.0177
   48CHL1    H8 3493   1.762   3.171   6.874  0.5839  0.1116  1.0953
   48CHL1   C14 3494   1.618   3.268   7.031  0.1253 -0.4389 -0.4052
   48CHL1   H14 3495   1.533   3.336   7.007  2.5262  2.7537 -0.4571
   48CHL1   C15 3496   1.706   3.350   7.124 -0.3468 -0.3311  0.9303
   48CHL1  H15A 3497   1.804   3.300   7.141 -0.8067 -0.9448  1.8549
   48CHL1  H15B 3498   1.718   3.448   7.074 -1.2940  0.3169  1.9402
   48CHL1   C16 3499   1.631   3.361   7.252 -0.4367  0.1912 -0.5638
   48CHL1  H16A 3500   1.704   3.338   7.334 -0.8244 -1.9586 -0.7713
   48CHL1  H16B 3501   1.590   3.461   7.275  2.8327  1.4293  0.4420
   48CHL1   C17 3502   1.521   3.241   7.244 -0.0936 -0.4745 -0.4123
   48CHL1   H17 3503   1.425   3.290   7.219 -0.5804 -1.7737 -1.1916
   48CHL1   C13 3504   1.563   3.154   7.117 -0.2281  0.0121  0.1252
   48CHL1   C18 3505   1.673   3.051   7.148 -0.1485  0.7170  0.1507
   48CHL1  H18A 3506   1.767   3.096   7.188  0.5471 -1.0686  0.6359
   48CHL1  H18B 3507   1.648   2.973   7.223  0.1345 -1.5098 -1.9532
   48CHL1  H18C 3508   1.700   2.996   7.056  1.4740  2.3094 -0.3943
   48CHL1   C12 3509   1.444   3.097   7.032 -0.8943  0.4806 -0.1235
   48CHL1  H12A 3510   1.393   3.009   7.079 -1.0943  0.3396 -0.6029
   48CHL1  H12B 3511   1.375   3.184   7.022 -0.9150  0.5990  0.9325
   48CHL1   C11 3512   1.483   3.045   6.889 -0.0865 -0.0040  0.6088
   48CHL1  H11A 3513   1.544   2.952   6.893  1.1373  0.7994  1.1179
   48CHL1  H11B 3514   1.385   3.028   6.841  0.3104  1.5100 -0.8028
   48CHL1    C9 3515   1.549   3.165   6.807  0.6203 -0.0969 -0.0899
   48CHL1    H9 3516   1.479   3.249   6.787  3.1551  2.3412  0.7226
   48CHL1   C10 3517   1.595   3.119   6.661  0.5545 -0.2251 -0.0221
   48CHL1   C19 3518   1.682   2.992   6.678  0.7248 -0.5149 -0.1364
   48CHL1  H19A 3519   1.748   2.982   6.590  0.5328 -2.0388 -0.1337
   48CHL1  H19B 3520   1.736   2.986   6.775 -1.8268 -0.4042  1.4100
   48CHL1  H19C 3521   1.622   2.899   6.680  2.2519 -1.5280  0.0706
   48CHL1    C1 3522   1.473   3.094   6.572  0.1203 -0.7476 -0.4672
   48CHL1   H1A 3523   1.411   3.013   6.615 -0.3387  0.0141  0.3433
   48CHL1   H1B 3524   1.408   3.184   6.572  1.4952  0.3694 -3.4004
   48CHL1    C2 3525   1.501   3.066   6.420 -1.1359 -0.5716  0.2105
   48CHL1   H2A 3526   1.415   3.037   6.356  0.7761 -4.0723 -1.0708
   48CHL1   H2B 3527   1.580   2.988   6.420  1.1696  1.6140  0.9809
   48CHL1   C20 3528   1.496   3.179   7.381  0.6941 -0.0552 -0.0252
   48CHL1   H20 3529   1.596   3.138   7.408  1.0014  1.7853  1.9280
   48CHL1   C21 3530   1.396   3.066   7.377  0.2606  0.5260 -0.5667
   48CHL1  H21A 3531   1.442   2.972   7.340  2.0271 -0.2545  3.2219
   48CHL1  H21B 3532   1.307   3.087   7.314 -0.2809 -0.0697 -0.0063
   48CHL1  H21C 3533   1.351   3.039   7.475 -0.5697  0.0196 -1.0778
   48CHL1   C22 3534   1.463   3.276   7.498 -1.1270  1.1023  0.1739
   48CHL1  H22A 3535   1.499   3.377   7.471  1.5766  0.3718  0.7104
   48CHL1  H22B 3536   1.353   3.269   7.515 -0.8172 -2.1853  1.5819
   48CHL1   C23 3537   1.533   3.231   7.631 -0.5865  0.4059 -0.3261
   48CHL1  H23A 3538   1.490   3.137   7.672 -3.1644  2.3059  1.6924
   48CHL1  H23B 3539   1.641   3.213   7.618 -0.6681 -0.9258  0.5382
   48CHL1   C24 3540   1.498   3.335   7.746  0.5596  0.5437 -0.4247
   48CHL1  H24A 3541   1.536   3.435   7.717  0.8642  0.6307  0.2770
   48CHL1  H24B 3542   1.388   3.340   7.759  0.4115  0.0533 -1.3571
   48CHL1   C25 3543   1.570   3.308   7.879  0.3895 -0.0473  0.2209
   48CHL1   H25 3544   1.679   3.297   7.866  0.5492 -1.0294  2.0073
   48CHL1   C26 3545   1.545   3.416   7.982  0.7134 -0.0225 -0.2840
   48CHL1  H26A 3546   1.550   3.521   7.946 -1.8470  0.1188 -0.3536
   48CHL1  H26B 3547   1.444   3.403   8.027  1.1827 -2.2887  0.2425
   48CHL1  H26C 3548   1.625   3.401   8.059  1.5946  1.4596 -0.8521
   48CHL1   C27 3549   1.521   3.173   7.938  0.6961 -0.4693 -0.4265
   48CHL1  H27A 3550   1.559   3.160   8.041  0.0591 -1.2297 -0.2787
   48CHL1  H27B 3551   1.410   3.180   7.940  0.8001  1.5390  2.1007
   48CHL1  H27C 3552   1.551   3.080   7.885 -0.5193 -0.3882 -1.2955
   49CHL1    C3 3553   6.486   4.568   6.804  0.3188  0.3616 -0.6631
   49CHL1    H3 3554   6.382   4.596   6.775 -0.6615 -2.5449 -0.2423
   49CHL1    O3 3555   6.565   4.578   6.690 -0.3072 -0.4309 -0.4056
   49CHL1   H3' 3556   6.641   4.625   6.726 -0.8266  0.3709 -0.3167
   49CHL1    C4 3557   6.548   4.654   6.918 -1.0352  0.0574 -0.9160
   49CHL1   H4A 3558   6.657   4.632   6.915 -0.9114  0.4214  0.2850
   49CHL1   H4B 3559   6.544   4.762   6.892  0.3426  0.3238 -0.1198
   49CHL1    C5 3560   6.485   4.640   7.057  0.4366 -0.2214  0.2075
   49CHL1    C6 3561   6.455   4.748   7.136  0.0321  0.6672 -0.2081
   49CHL1    H6 3562   6.460   4.849   7.091  0.2394  1.1185  0.8098
   49CHL1    C7 3563   6.405   4.733   7.277 -0.8800  1.2184  0.3892
   49CHL1   H7A 3564   6.448   4.808   7.346  0.2527  1.5327 -0.6294
   49CHL1   H7B 3565   6.295   4.745   7.291 -0.8006  2.1862  0.2352
   49CHL1    C8 3566   6.427   4.593   7.344  0.5025 -0.4644  0.1650
   49CHL1    H8 3567   6.535   4.573   7.365  0.4036 -0.0783  1.0555
   49CHL1   C14 3568   6.355   4.581   7.477  0.6909  0.6223 -0.2108
   49CHL1   H14 3569   6.248   4.602   7.460 -0.5978 -4.6365 -0.3334
   49CHL1   C15 3570   6.393   4.677   7.591  0.5056  0.0986  0.1051
   49CHL1  H15A 3571   6.504   4.673   7.594  0.4489 -2.2655  2.6149
   49CHL1  H15B 3572   6.354   4.777   7.563  0.3668 -0.4317 -1.6916
   49CHL1   C16 3573   6.337   4.608   7.717  0.1802  0.6067 -0.1936
   49CHL1  H16A 3574   6.417   4.584   7.790 -2.3952 -0.6063  2.4144
   49CHL1  H16B 3575   6.266   4.670   7.776  0.0637  1.8609 -1.5744
   49CHL1   C17 3576   6.287   4.466   7.679 -0.1345 -1.1024  0.0637
   49CHL1   H17 3577   6.180   4.480   7.652 -0.2795  3.3086  2.1620
   49CHL1   C13 3578   6.366   4.441   7.551 -0.2943 -0.4333 -0.2886
   49CHL1   C18 3579   6.512   4.390   7.580 -0.0262  0.5129  0.2709
   49CHL1  H18A 3580   6.557   4.361   7.482 -1.7453  1.4118 -0.8329
   49CHL1  H18B 3581   6.566   4.474   7.629  2.0656 -0.4797 -0.2263
   49CHL1  H18C 3582   6.513   4.306   7.652 -0.6443 -0.2945 -0.6354
   49CHL1   C12 3583   6.297   4.341   7.450 -1.1333 -0.3114  0.5047
   49CHL1  H12A 3584   6.296   4.239   7.494 -1.3603 -0.1964  0.7670
   49CHL1  H12B 3585   6.189   4.364   7.437 -1.3029 -0.1174  2.1261
   49CHL1   C11 3586   6.364   4.343   7.304  0.5558 -0.1710  0.3155
   49CHL1  H11A 3587   6.458   4.287   7.323  1.1409  0.4398 -0.6824
   49CHL1  H11B 3588   6.306   4.289   7.226 -0.1560 -0.9042  1.3258
   49CHL1    C9 3589   6.386   4.480   7.234 -0.6046 -0.3725 -0.2515
   49CHL1    H9 3590   6.286   4.518   7.205  0.7482  2.1274 -2.0334
   49CHL1   C10 3591   6.473   4.493   7.103 -0.1429  0.2445  0.5690
   49CHL1   C19 3592   6.612   4.433   7.130  0.1590 -0.2464 -0.0364
   49CHL1  H19A 3593   6.684   4.468   7.054 -0.7799  1.7322 -0.0712
   49CHL1  H19B 3594   6.652   4.469   7.228 -0.2118  0.0107  0.0189
   49CHL1  H19C 3595   6.600   4.323   7.147 -1.0457  0.0121  0.9418
   49CHL1    C1 3596   6.407   4.417   6.993 -0.0933  0.0741  0.1122
   49CHL1   H1A 3597   6.388   4.313   7.026 -0.1509  0.7742  2.4788
   49CHL1   H1B 3598   6.304   4.458   6.979 -0.2464 -0.1892  0.4522
   49CHL1    C2 3599   6.481   4.425   6.860  0.5775  0.6265 -0.8762
   49CHL1   H2A 3600   6.421   4.366   6.787  2.1642 -0.2908 -1.5094
   49CHL1   H2B 3601   6.584   4.382   6.869 -0.6512 -2.2213  1.2939
   49CHL1   C20 3602   6.283   4.376   7.800  0.5822 -0.2099  0.6304
   49CHL1   H20 3603   6.389   4.350   7.821  0.4069 -0.2044  1.5341
   49CHL1   C21 3604   6.190   4.251   7.769  0.1246  0.1262 -0.7615
   49CHL1  H21A 3605   6.085   4.281   7.749 -0.4857  0.4610  2.3318
   49CHL1  H21B 3606   6.192   4.187   7.861  1.3962  4.8549  2.9186
   49CHL1  H21C 3607   6.224   4.183   7.688  0.5733  0.8261 -1.1741
   49CHL1   C22 3608   6.234   4.443   7.930 -0.2861  0.2734 -0.3030
   49CHL1  H22A 3609   6.308   4.520   7.958  2.3679 -2.4910  0.9380
   49CHL1  H22B 3610   6.129   4.474   7.908  0.7177  2.2053 -2.7432
   49CHL1   C23 3611   6.225   4.346   8.062  0.1862 -0.9265  0.3310
   49CHL1  H23A 3612   6.179   4.249   8.033 -3.1722  0.5144  0.3846
   49CHL1  H23B 3613   6.331   4.318   8.082  1.0101 -0.8588 -3.2253
   49CHL1   C24 3614   6.127   4.405   8.159 -0.2992  0.4487 -0.2341
   49CHL1  H24A 3615   6.143   4.514   8.175 -1.2823  0.4578  0.7791
   49CHL1  H24B 3616   6.020   4.403   8.128 -0.6874  3.2846  0.6418
   49CHL1   C25 3617   6.157   4.351   8.307 -0.8135 -0.6211 -0.1094
   49CHL1   H25 3618   6.080   4.393   8.374  1.2739  1.9464  0.8505
   49CHL1   C26 3619   6.152   4.198   8.316 -0.1037  0.0012 -0.5832
   49CHL1  H26A 3620   6.125   4.156   8.415 -2.0346  0.5175 -0.8304
   49CHL1  H26B 3621   6.095   4.162   8.227  0.6328  1.9954 -1.9432
   49CHL1  H26C 3622   6.250   4.153   8.289  0.4623  0.4705  0.6322
   49CHL1   C27 3623   6.295   4.409   8.355  0.2443  1.2594 -0.0281
   49CHL1  H27A 3624   6.338   4.349   8.438  0.7928 -0.4430 -1.4921
   49CHL1  H27B 3625   6.376   4.399   8.280  1.0166  1.1541  0.8059
   49CHL1  H27C 3626   6.279   4.514   8.387 -0.8195  0.5162  2.1039
   50CHL1    C3 3627   1.047   2.987   6.987 -0.0084  0.5313  0.6758
   50CHL1    H3 3628   1.154   2.974   7.012  0.3027 -1.7221 -1.4248
   50CHL1    O3 3629   1.018   2.953   6.850  0.0416 -0.2855 -0.4165
   50CHL1   H3' 3630   0.924   2.962   6.837 -0.0004 -1.4700 -1.0186
   50CHL1    C4 3631   0.966   2.901   7.087 -0.6382  0.3034  0.3038
   50CHL1   H4A 3632   0.857   2.908   7.066 -0.5797  1.7088  0.3862
   50CHL1   H4B 3633   1.002   2.796   7.081  2.7079  1.2975  1.0803
   50CHL1    C5 3634   0.982   2.951   7.233 -0.5274  0.8404 -0.1457
   50CHL1    C6 3635   1.031   2.868   7.322  0.0772  0.1843 -0.2078
   50CHL1    H6 3636   1.063   2.773   7.278  0.1190  0.6459 -1.2146
   50CHL1    C7 3637   1.060   2.902   7.468  0.5020 -0.4620  0.6455
   50CHL1   H7A 3638   1.027   2.823   7.538  0.1956 -0.8825  0.0365
   50CHL1   H7B 3639   1.168   2.927   7.474  0.4717 -0.3341  0.6676
   50CHL1    C8 3640   0.986   3.043   7.509 -0.5983  0.0189 -0.3007
   50CHL1    H8 3641   0.876   3.027   7.520 -0.6668  1.1892  0.9446
   50CHL1   C14 3642   1.049   3.100   7.631 -0.5113  0.6986  0.2216
   50CHL1   H14 3643   1.153   3.127   7.604 -0.6178  0.0517 -0.9180
   50CHL1   C15 3644   1.063   3.009   7.753 -0.7415  0.5221 -0.0410
   50CHL1  H15A 3645   0.966   2.957   7.767  0.1940 -1.1630  0.5787
   50CHL1  H15B 3646   1.140   2.931   7.737  1.2251  2.5803 -1.0946
   50CHL1   C16 3647   1.092   3.105   7.869 -0.3155 -0.2215 -0.6640
   50CHL1  H16A 3648   1.023   3.072   7.950  1.4301 -1.2839  0.4575
   50CHL1  H16B 3649   1.195   3.100   7.911 -0.9958 -0.5116  1.0803
   50CHL1   C17 3650   1.068   3.244   7.814 -0.2965  0.2070 -0.0373
   50CHL1   H17 3651   1.160   3.290   7.773 -0.3914  0.8257  0.4194
   50CHL1   C13 3652   0.985   3.221   7.685 -0.2902 -0.2062 -0.1015
   50CHL1   C18 3653   0.844   3.191   7.742  0.0880 -0.1272 -0.1934
   50CHL1  H18A 3654   0.781   3.130   7.674  0.0043 -1.2363  0.8583
   50CHL1  H18B 3655   0.833   3.143   7.841 -0.2343  0.9823  0.3222
   50CHL1  H18C 3656   0.788   3.286   7.758 -0.3991 -0.8386  2.9988
   50CHL1   C12 3657   0.994   3.329   7.581 -0.2857 -0.0167  0.4416
   50CHL1  H12A 3658   0.934   3.414   7.621  2.4535  1.0837  2.5573
   50CHL1  H12B 3659   1.102   3.352   7.569  0.2516 -2.5842 -0.1325
   50CHL1   C11 3660   0.929   3.283   7.449  0.3309  0.7892 -0.2736
   50CHL1  H11A 3661   0.820   3.270   7.467  0.4853 -0.2294 -0.0001
   50CHL1  H11B 3662   0.940   3.364   7.373  0.2457  2.4947  1.4662
   50CHL1    C9 3663   0.992   3.152   7.399 -0.2150  1.1391 -1.0718
   50CHL1    H9 3664   1.100   3.174   7.384  0.3807 -1.0731 -0.4056
   50CHL1   C10 3665   0.952   3.104   7.261  0.3243  0.5428 -0.1701
   50CHL1   C19 3666   0.802   3.128   7.250 -0.2154  0.2818  0.1004
   50CHL1  H19A 3667   0.773   3.079   7.155  1.3582  0.6338 -0.5968
   50CHL1  H19B 3668   0.741   3.075   7.326 -0.3478 -0.7454 -0.6940
   50CHL1  H19C 3669   0.775   3.234   7.233  1.2165  1.0355  2.1204
   50CHL1    C1 3670   1.034   3.180   7.150  0.8042  0.8333  0.5901
   50CHL1   H1A 3671   1.012   3.289   7.147 -1.8896  0.3335 -1.2754
   50CHL1   H1B 3672   1.142   3.163   7.170  0.8479 -2.8825 -1.8310
   50CHL1    C2 3673   1.006   3.136   7.005 -0.2944  0.0628 -0.5003
   50CHL1   H2A 3674   1.057   3.200   6.929  0.5201  0.7091  0.5701
   50CHL1   H2B 3675   0.900   3.151   6.975 -0.0999  3.3353  0.0669
   50CHL1   C20 3676   1.018   3.344   7.921  0.5169 -1.0523 -0.6579
   50CHL1   H20 3677   0.907   3.347   7.916  0.4898 -0.4397  0.1779
   50CHL1   C21 3678   1.063   3.493   7.887 -0.1446  0.6535 -0.6619
   50CHL1  H21A 3679   1.052   3.507   7.778 -0.4806  4.5479 -0.2710
   50CHL1  H21B 3680   1.170   3.500   7.917 -0.0181 -3.1794  0.3456
   50CHL1  H21C 3681   1.000   3.576   7.926  1.5027  2.2932 -1.3449
   50CHL1   C22 3682   1.060   3.312   8.065  0.6539 -0.0397  0.0665
   50CHL1  H22A 3683   1.023   3.211   8.092  1.3248 -0.3150 -0.0242
   50CHL1  H22B 3684   1.171   3.305   8.067  0.6108 -0.6454  1.0122
   50CHL1   C23 3685   1.015   3.412   8.179 -0.9451 -0.2989 -0.3154
   50CHL1  H23A 3686   1.076   3.504   8.171  0.2543 -1.0767 -0.4471
   50CHL1  H23B 3687   0.907   3.437   8.175 -0.8157  0.0990 -2.1093
   50CHL1   C24 3688   1.034   3.342   8.318 -0.0845 -0.1109 -0.3852
   50CHL1  H24A 3689   0.950   3.269   8.321 -1.9354  1.9179  1.6409
   50CHL1  H24B 3690   1.135   3.296   8.321  0.8981  1.9037 -0.5817
   50CHL1   C25 3691   1.014   3.419   8.449  0.3156 -0.8314  0.6029
   50CHL1   H25 3692   1.081   3.508   8.443  0.7713 -1.2231 -0.2840
   50CHL1   C26 3693   0.871   3.480   8.449  0.7256 -0.0392 -0.3251
   50CHL1  H26A 3694   0.800   3.394   8.448  1.0229 -0.2858 -0.5991
   50CHL1  H26B 3695   0.847   3.528   8.546  1.4483  0.1109 -0.2139
   50CHL1  H26C 3696   0.855   3.546   8.361 -1.4948  0.0199  0.0553
   50CHL1   C27 3697   1.054   3.338   8.581  0.0875  0.4750  0.3256
   50CHL1  H27A 3698   0.997   3.243   8.581  0.6024  0.1658  0.5443
   50CHL1  H27B 3699   1.159   3.304   8.579 -0.4511 -1.4606  1.6429
   50CHL1  H27C 3700   1.021   3.396   8.670 -0.1463 -0.0785  0.6010
   51CHL1    C3 3701   0.662   4.059   7.104 -0.0049  0.0468 -0.4719
   51CHL1    H3 3702   0.695   3.958   7.139  1.1789  0.7057  0.3853
   51CHL1    O3 3703   0.644   4.054   6.965  0.2362 -0.0967 -0.0303
   51CHL1   H3' 3704   0.574   3.989   6.952  0.1423 -0.7916  3.1064
   51CHL1    C4 3705   0.534   4.117   7.175  0.3053 -0.2234  0.2680
   51CHL1   H4A 3706   0.519   4.215   7.125  0.7201  0.4422  1.4072
   51CHL1   H4B 3707   0.451   4.045   7.157  1.9754 -1.7377 -2.0582
   51CHL1    C5 3708   0.563   4.143   7.322  0.0919 -0.0774 -0.4230
   51CHL1    C6 3709   0.486   4.090   7.416  0.1856  0.2610 -1.0639
   51CHL1    H6 3710   0.394   4.039   7.384  0.8274 -1.5164 -0.1926
   51CHL1    C7 3711   0.500   4.123   7.563  0.3007  0.2252 -0.2542
   51CHL1   H7A 3712   0.394   4.141   7.591 -0.1836 -1.0475 -1.1838
   51CHL1   H7B 3713   0.535   4.033   7.618 -0.4424  0.8797  1.3521
   51CHL1    C8 3714   0.590   4.252   7.591  0.2271  0.7103 -0.4270
   51CHL1    H8 3715   0.528   4.338   7.560 -0.1085  1.3184  1.7847
   51CHL1   C14 3716   0.625   4.255   7.744 -0.1825 -0.3208 -0.2471
   51CHL1   H14 3717   0.700   4.173   7.754  1.6724  1.3256 -0.0644
   51CHL1   C15 3718   0.524   4.220   7.844 -0.4226 -0.3247  0.1348
   51CHL1  H15A 3719   0.423   4.263   7.828  0.5629  1.4308 -1.8343
   51CHL1  H15B 3720   0.513   4.109   7.843 -1.9905 -0.2045  1.6912
   51CHL1   C16 3721   0.586   4.271   7.970 -0.2394  0.2025  0.0733
   51CHL1  H16A 3722   0.521   4.350   8.012  1.4709  1.7964 -0.1538
   51CHL1  H16B 3723   0.604   4.182   8.035  1.2945  0.2967 -0.1843
   51CHL1   C17 3724   0.718   4.344   7.935 -0.0211 -0.1378  0.4354
   51CHL1   H17 3725   0.796   4.265   7.943  1.5765  1.3482  0.1537
   51CHL1   C13 3726   0.706   4.383   7.789 -0.2740  0.1584 -0.5302
   51CHL1   C18 3727   0.629   4.513   7.761 -0.3904 -0.0424  0.2242
   51CHL1  H18A 3728   0.522   4.511   7.792 -0.6380  1.0702 -0.4546
   51CHL1  H18B 3729   0.679   4.605   7.798 -1.0455  1.2062 -1.8431
   51CHL1  H18C 3730   0.627   4.529   7.651  2.4953  1.0999  0.2389
   51CHL1   C12 3731   0.839   4.377   7.702  0.1052  0.0968 -0.0314
   51CHL1  H12A 3732   0.897   4.472   7.703  0.7967 -0.3160  0.2400
   51CHL1  H12B 3733   0.911   4.299   7.736  0.1220  1.3467  3.0923
   51CHL1   C11 3734   0.806   4.364   7.547  0.4959 -0.6218  0.2555
   51CHL1  H11A 3735   0.756   4.457   7.513  2.8042 -0.0346 -1.7720
   51CHL1  H11B 3736   0.905   4.364   7.497  1.3886 -0.4190  1.9339
   51CHL1    C9 3737   0.719   4.247   7.502  0.4686 -0.0862 -0.4374
   51CHL1    H9 3738   0.773   4.151   7.524  0.3127 -0.4567 -1.6305
   51CHL1   C10 3739   0.689   4.234   7.354  0.0236 -0.6225  0.1869
   51CHL1   C19 3740   0.661   4.376   7.292 -0.9703 -0.1647  0.2086
   51CHL1  H19A 3741   0.635   4.382   7.184  1.1282  1.7371 -0.2665
   51CHL1  H19B 3742   0.579   4.433   7.341 -0.0374 -0.1274  1.8169
   51CHL1  H19C 3743   0.755   4.435   7.281 -0.9378 -0.1526  0.5404
   51CHL1    C1 3744   0.810   4.176   7.275  0.2856 -0.3584 -0.2025
   51CHL1   H1A 3745   0.895   4.247   7.286 -0.3201  0.7085 -2.0501
   51CHL1   H1B 3746   0.831   4.081   7.328 -2.5271 -0.6017  0.6403
   51CHL1    C2 3747   0.783   4.149   7.127 -0.1880 -0.4726 -0.7825
   51CHL1   H2A 3748   0.873   4.099   7.085 -0.9262 -3.6491  1.1075
   51CHL1   H2B 3749   0.769   4.251   7.085 -0.8798  0.5075  1.6346
   51CHL1   C20 3750   0.747   4.452   8.031  0.2994  0.1459  0.2845
   51CHL1   H20 3751   0.666   4.527   8.032  0.3182  0.1714 -0.0517
   51CHL1   C21 3752   0.886   4.519   7.988 -0.4579  0.3442  0.7074
   51CHL1  H21A 3753   0.968   4.445   7.979  1.5983  2.7404 -2.4913
   51CHL1  H21B 3754   0.904   4.589   8.072 -2.8071 -1.4609  2.8725
   51CHL1  H21C 3755   0.882   4.589   7.902 -0.2409  0.1061  0.5008
   51CHL1   C22 3756   0.751   4.401   8.176 -0.0663  0.4042  0.7939
   51CHL1  H22A 3757   0.673   4.326   8.200  0.7874 -0.5352  0.7089
   51CHL1  H22B 3758   0.848   4.350   8.193  0.7813  1.9455  0.7705
   51CHL1   C23 3759   0.724   4.527   8.260 -0.6817 -0.2172  0.2085
   51CHL1  H23A 3760   0.826   4.572   8.267 -0.9226  0.2329  0.9290
   51CHL1  H23B 3761   0.653   4.598   8.213 -1.5461  0.6970  2.7183
   51CHL1   C24 3762   0.671   4.494   8.403 -0.2283 -0.2147 -0.1411
   51CHL1  H24A 3763   0.729   4.402   8.425 -0.5367 -0.2372  0.6232
   51CHL1  H24B 3764   0.687   4.576   8.477 -0.4880 -0.3318  0.0441
   51CHL1   C25 3765   0.523   4.461   8.413 -0.5347 -0.0987 -0.7644
   51CHL1   H25 3766   0.482   4.425   8.316 -0.9603 -0.0469 -0.6092
   51CHL1   C26 3767   0.494   4.349   8.510  0.5694  0.3899  0.2349
   51CHL1  H26A 3768   0.533   4.250   8.478 -0.9322  0.3198 -1.5383
   51CHL1  H26B 3769   0.529   4.375   8.612 -0.9430  0.8230  0.6650
   51CHL1  H26C 3770   0.385   4.331   8.520  0.8062 -1.4587 -0.0728
   51CHL1   C27 3771   0.447   4.589   8.453 -0.1532  0.2347 -0.7407
   51CHL1  H27A 3772   0.457   4.662   8.369  3.1061 -0.5597 -1.1630
   51CHL1  H27B 3773   0.338   4.565   8.456 -0.0617 -0.2777 -1.3277
   51CHL1  H27C 3774   0.473   4.631   8.552 -0.8422  1.1594 -0.9289
   52CHL1    C3 3775   2.072   5.702   7.025 -0.1588  0.4509  0.2419
   52CHL1    H3 3776   1.962   5.697   7.041 -0.2498 -0.0116 -0.4620
   52CHL1    O3 3777   2.090   5.683   6.884 -0.7308  0.0185 -0.6367
   52CHL1   H3' 3778   2.186   5.689   6.880 -0.7208  0.3365 -0.0294
   52CHL1    C4 3779   2.110   5.840   7.062 -0.4829 -0.1911  0.0536
   52CHL1   H4A 3780   2.218   5.860   7.046 -0.3502  0.5055  1.6774
   52CHL1   H4B 3781   2.050   5.909   6.998  1.1291  1.4568  0.2403
   52CHL1    C5 3782   2.087   5.871   7.207  0.6066  0.3554 -0.1049
   52CHL1    C6 3783   2.024   5.981   7.248  0.5550  0.4867  0.1981
   52CHL1    H6 3784   1.976   6.036   7.166 -2.2113 -1.0241  0.6744
   52CHL1    C7 3785   2.000   6.022   7.393  0.0495 -0.5492 -0.5331
   52CHL1   H7A 3786   2.020   6.130   7.409  0.7495 -0.7939  0.3180
   52CHL1   H7B 3787   1.898   5.998   7.430 -0.1467 -1.5271 -1.6487
   52CHL1    C8 3788   2.082   5.935   7.495  0.1248  0.7758 -0.0381
   52CHL1    H8 3789   2.187   5.966   7.478 -0.8652  2.8557 -3.3561
   52CHL1   C14 3790   2.025   5.958   7.639  0.0896  0.1012  0.4743
   52CHL1   H14 3791   1.926   5.909   7.647 -0.5524  0.9843 -1.3707
   52CHL1   C15 3792   2.003   6.103   7.682  0.3431 -1.1160  0.0408
   52CHL1  H15A 3793   2.068   6.181   7.637 -2.7013  1.0200 -0.9425
   52CHL1  H15B 3794   1.902   6.124   7.642  0.1813 -0.0766  0.9513
   52CHL1   C16 3795   2.013   6.095   7.837  0.9130  0.0764  0.0381
   52CHL1  H16A 3796   2.090   6.164   7.878 -1.7560  2.3367  1.6064
   52CHL1  H16B 3797   1.919   6.125   7.889  0.8118 -0.1091 -0.0364
   52CHL1   C17 3798   2.044   5.943   7.870  0.6494  0.1080  0.0052
   52CHL1   H17 3799   1.946   5.892   7.873 -0.8739  2.8664  0.8228
   52CHL1   C13 3800   2.115   5.888   7.742  0.4972  0.3023 -0.4541
   52CHL1   C18 3801   2.262   5.938   7.734  0.3917 -0.2229 -0.3930
   52CHL1  H18A 3802   2.317   5.906   7.643  1.6983 -1.3228  0.7386
   52CHL1  H18B 3803   2.268   6.049   7.743  0.5371 -0.3727  1.9549
   52CHL1  H18C 3804   2.314   5.892   7.820 -2.7721  0.9183  2.3756
   52CHL1   C12 3805   2.100   5.736   7.711  0.1312  0.1338  0.3333
   52CHL1  H12A 3806   2.154   5.677   7.789 -0.8969 -1.0318  0.2018
   52CHL1  H12B 3807   1.994   5.705   7.728 -0.2091 -1.1964 -3.3797
   52CHL1   C11 3808   2.134   5.695   7.571  0.4295 -0.6682  0.3338
   52CHL1  H11A 3809   2.245   5.695   7.585  0.5459 -0.8754 -0.5630
   52CHL1  H11B 3810   2.105   5.594   7.536  0.1320 -0.1814 -0.8567
   52CHL1    C9 3811   2.079   5.786   7.452 -0.2314  0.3237 -0.6535
   52CHL1    H9 3812   1.972   5.759   7.439 -0.1085 -0.4747 -0.1114
   52CHL1   C10 3813   2.143   5.765   7.309 -0.1835  0.4077 -0.1960
   52CHL1   C19 3814   2.294   5.780   7.318  0.4731 -0.1891  0.0676
   52CHL1  H19A 3815   2.327   5.879   7.357  0.8449 -0.8384  1.4593
   52CHL1  H19B 3816   2.333   5.721   7.404 -1.0111 -0.9271  0.2659
   52CHL1  H19C 3817   2.343   5.749   7.224 -2.2092 -0.4162 -1.3394
   52CHL1    C1 3818   2.111   5.618   7.251  0.5200  0.5465 -0.0784
   52CHL1   H1A 3819   2.158   5.535   7.308  0.6524 -0.1828 -1.2242
   52CHL1   H1B 3820   2.003   5.597   7.264  0.8622 -0.4552  1.5145
   52CHL1    C2 3821   2.144   5.592   7.104  0.4418 -0.0697  0.3838
   52CHL1   H2A 3822   2.123   5.485   7.083  1.5916  0.0777 -1.8421
   52CHL1   H2B 3823   2.253   5.606   7.084  0.4540 -0.2738  0.3111
   52CHL1   C20 3824   2.114   5.922   8.003 -0.3116 -0.7868 -1.1711
   52CHL1   H20 3825   2.215   5.969   8.007  0.1230 -1.7240 -0.7841
   52CHL1   C21 3826   2.119   5.774   8.032 -0.6536 -0.5187 -0.1234
   52CHL1  H21A 3827   2.099   5.765   8.141  1.8171  2.3598  0.7116
   52CHL1  H21B 3828   2.212   5.729   7.993 -0.9447 -1.5495  0.3518
   52CHL1  H21C 3829   2.042   5.714   7.979 -1.3890 -0.1824  0.5266
   52CHL1   C22 3830   2.031   6.000   8.115  0.1054  0.6920  0.2718
   52CHL1  H22A 3831   2.006   6.104   8.082  1.1349  0.7817 -0.2765
   52CHL1  H22B 3832   1.936   5.945   8.133  0.9869 -0.9879 -0.0717
   52CHL1   C23 3833   2.104   6.006   8.246 -0.2585  0.0160  0.5279
   52CHL1  H23A 3834   2.108   5.907   8.296  2.4122  0.2767  0.9865
   52CHL1  H23B 3835   2.211   6.037   8.240  0.3842 -2.3713 -1.8223
   52CHL1   C24 3836   2.052   6.107   8.353 -0.1425  1.1354 -0.0324
   52CHL1  H24A 3837   2.101   6.207   8.344  1.8697  0.2380  0.3023
   52CHL1  H24B 3838   1.942   6.114   8.350 -0.4825 -1.7636  2.0657
   52CHL1   C25 3839   2.074   6.066   8.504  0.3679  0.0172 -0.6704
   52CHL1   H25 3840   2.040   5.961   8.510  1.4880 -0.2972  2.7317
   52CHL1   C26 3841   2.219   6.073   8.539  0.0641 -0.1591  0.0789
   52CHL1  H26A 3842   2.258   6.175   8.562 -0.0995 -0.7225  3.1656
   52CHL1  H26B 3843   2.220   6.037   8.644 -1.2712  1.5601  0.7442
   52CHL1  H26C 3844   2.294   6.019   8.477  1.9810  0.8507  1.3883
   52CHL1   C27 3845   1.983   6.140   8.603 -0.8122 -0.0892 -0.8910
   52CHL1  H27A 3846   1.877   6.108   8.597 -1.4382  0.8829  2.8689
   52CHL1  H27B 3847   2.019   6.125   8.707 -0.7274 -2.6849 -1.2371
   52CHL1  H27C 3848   1.997   6.247   8.576 -1.0468 -0.1592 -1.3078
   53CHL1    C3 3849   5.137   2.158   7.155  0.4213  0.1476  0.1019
   53CHL1    H3 3850   5.199   2.088   7.215  0.4217  0.5711  0.6122
   53CHL1    O3 3851   5.211   2.198   7.042  0.2282  0.2490  0.5166
   53CHL1   H3' 3852   5.158   2.266   7.001 -0.8430 -1.6351 -1.4272
   53CHL1    C4 3853   4.996   2.095   7.117 -0.3624  0.3375 -0.4473
   53CHL1   H4A 3854   4.950   2.168   7.047  0.2953  0.1764 -1.0571
   53CHL1   H4B 3855   5.011   2.006   7.054  0.5651  0.3037 -0.1958
   53CHL1    C5 3856   4.902   2.084   7.235  0.2762 -0.8488  0.6162
   53CHL1    C6 3857   4.842   1.965   7.252  0.2187 -0.1450 -0.0114
   53CHL1    H6 3858   4.866   1.878   7.190 -0.0047 -1.2081  1.3491
   53CHL1    C7 3859   4.744   1.938   7.365 -0.1174 -0.2932 -0.2859
   53CHL1   H7A 3860   4.664   1.884   7.311  1.2459 -2.3182 -0.4165
   53CHL1   H7B 3861   4.795   1.866   7.433 -0.6427  1.2462  1.8566
   53CHL1    C8 3862   4.708   2.057   7.453  0.0362  0.6469  0.3573
   53CHL1    H8 3863   4.626   2.115   7.407 -0.5135  1.0061  1.7363
   53CHL1   C14 3864   4.662   2.007   7.593 -0.3232  0.8216 -0.0847
   53CHL1   H14 3865   4.741   1.939   7.633  0.0171  1.2086 -0.0856
   53CHL1   C15 3866   4.537   1.915   7.592 -0.3846 -0.0134  0.4083
   53CHL1  H15A 3867   4.477   1.958   7.510  0.1473 -0.6594 -0.3276
   53CHL1  H15B 3868   4.554   1.807   7.573 -1.3191 -0.3210  1.2329
   53CHL1   C16 3869   4.466   1.931   7.728 -0.2499  1.1919  0.6914
   53CHL1  H16A 3870   4.369   1.981   7.707 -1.0289 -0.9092 -0.9147
   53CHL1  H16B 3871   4.448   1.834   7.778 -0.2929 -0.0659 -1.6378
   53CHL1   C17 3872   4.575   2.011   7.808  0.4609 -0.4963  0.1376
   53CHL1   H17 3873   4.659   1.947   7.843  2.1670  0.6997 -1.5457
   53CHL1   C13 3874   4.636   2.112   7.702 -0.7941 -0.1956 -0.3525
   53CHL1   C18 3875   4.533   2.212   7.654  0.9251  0.1370 -0.0316
   53CHL1  H18A 3876   4.428   2.174   7.664  1.8861 -2.5340  0.9578
   53CHL1  H18B 3877   4.545   2.310   7.704  0.0181  1.2976 -1.9787
   53CHL1  H18C 3878   4.553   2.238   7.548  3.8499 -2.6521 -0.3248
   53CHL1   C12 3879   4.773   2.177   7.729 -0.7565  0.3244  0.2254
   53CHL1  H12A 3880   4.774   2.263   7.799 -0.6514 -0.9267  1.8299
   53CHL1  H12B 3881   4.845   2.098   7.759 -0.4101 -0.7332 -2.9787
   53CHL1   C11 3882   4.831   2.233   7.595  0.0874 -0.6250  0.6417
   53CHL1  H11A 3883   4.767   2.316   7.560  1.5488  0.5586  0.6570
   53CHL1  H11B 3884   4.934   2.271   7.613  0.0481  1.6054 -3.0241
   53CHL1    C9 3885   4.827   2.143   7.469  0.8948  0.5432  0.3021
   53CHL1    H9 3886   4.902   2.067   7.500  0.2324 -0.0364  0.5069
   53CHL1   C10 3887   4.897   2.194   7.340 -0.0981  0.5152 -0.9897
   53CHL1   C19 3888   4.808   2.308   7.285 -0.3158  0.1963  0.1743
   53CHL1  H19A 3889   4.702   2.274   7.288 -0.6132  0.8929 -1.1694
   53CHL1  H19B 3890   4.812   2.407   7.335  1.6059  1.8259 -2.8978
   53CHL1  H19C 3891   4.826   2.331   7.178  0.9955 -0.4642  0.2377
   53CHL1    C1 3892   5.040   2.240   7.372 -0.3587  0.3478 -0.4835
   53CHL1   H1A 3893   5.038   2.333   7.434  1.9275 -1.6501  2.9096
   53CHL1   H1B 3894   5.089   2.159   7.431 -0.1330  2.3288  2.2699
   53CHL1    C2 3895   5.116   2.282   7.246  0.5503  0.0374 -0.1373
   53CHL1   H2A 3896   5.217   2.324   7.267 -0.3727  1.4474  1.9285
   53CHL1   H2B 3897   5.067   2.362   7.186  1.2245 -1.1823 -2.4285
   53CHL1   C20 3898   4.510   2.073   7.931  0.3836  0.1999 -0.8138
   53CHL1   H20 3899   4.450   2.163   7.904  0.9954  0.9188  0.1656
   53CHL1   C21 3900   4.619   2.115   8.031  0.4644 -0.1558 -0.0816
   53CHL1  H21A 3901   4.574   2.168   8.118 -1.7157  1.1782 -1.9189
   53CHL1  H21B 3902   4.691   2.182   7.980  1.1732  0.5609  1.7922
   53CHL1  H21C 3903   4.672   2.030   8.079  1.1755 -0.3298 -1.1549
   53CHL1   C22 3904   4.420   1.963   8.004  0.5687 -0.5221  0.1943
   53CHL1  H22A 3905   4.333   1.932   7.943  0.5348 -0.2722  0.1132
   53CHL1  H22B 3906   4.485   1.873   8.009  1.8995  0.4177  0.4251
   53CHL1   C23 3907   4.375   1.985   8.151 -0.0338 -0.2157 -0.4343
   53CHL1  H23A 3908   4.466   1.975   8.214 -0.3078 -2.4326 -0.3000
   53CHL1  H23B 3909   4.332   2.087   8.158 -1.3006 -0.7606 -0.1207
   53CHL1   C24 3910   4.276   1.894   8.220 -0.6313  0.2435  0.2948
   53CHL1  H24A 3911   4.234   1.954   8.305 -2.0918  0.0198 -0.2347
   53CHL1  H24B 3912   4.198   1.875   8.143  0.1426 -2.4310  0.0876
   53CHL1   C25 3913   4.325   1.753   8.262  0.6480 -0.2172  0.2196
   53CHL1   H25 3914   4.402   1.712   8.192 -0.1292 -0.2951 -0.6113
   53CHL1   C26 3915   4.396   1.754   8.398  1.0369 -0.0600 -0.5827
   53CHL1  H26A 3916   4.336   1.777   8.489  1.1099 -0.2324 -0.4902
   53CHL1  H26B 3917   4.460   1.665   8.415  0.6661 -0.2285 -0.0297
   53CHL1  H26C 3918   4.473   1.834   8.398  0.0815  0.9999  2.2191
   53CHL1   C27 3919   4.211   1.653   8.263  0.4862  1.3673 -0.0156
   53CHL1  H27A 3920   4.168   1.640   8.161  0.5346 -0.6000  0.1854
   53CHL1  H27B 3921   4.236   1.554   8.307  1.7110  1.6052 -0.1553
   53CHL1  H27C 3922   4.136   1.695   8.334 -1.6699 -1.4206 -0.4733
   54CHL1    C3 3923   5.181   3.359   6.868 -0.5214  0.1697 -0.6887
   54CHL1    H3 3924   5.086   3.308   6.842 -0.1949  0.3582 -2.3819
   54CHL1    O3 3925   5.240   3.415   6.749 -0.0246 -0.1139 -0.1831
   54CHL1   H3' 3926   5.254   3.343   6.687  1.0111  1.2598 -1.5998
   54CHL1    C4 3927   5.138   3.458   6.967  0.1851  0.2891 -0.6894
   54CHL1   H4A 3928   5.221   3.529   6.989  0.3277  0.0181 -0.3167
   54CHL1   H4B 3929   5.053   3.519   6.931 -0.2659  0.7179  1.0032
   54CHL1    C5 3930   5.095   3.394   7.093 -0.3701  0.0353 -0.0526
   54CHL1    C6 3931   4.974   3.427   7.146  0.4309 -0.6474  0.0182
   54CHL1    H6 3932   4.905   3.492   7.089 -0.0635 -1.6152 -0.5167
   54CHL1    C7 3933   4.933   3.385   7.288  0.3526  0.2477 -0.2725
   54CHL1   H7A 3934   4.883   3.463   7.348 -0.2471 -0.1621 -0.2297
   54CHL1   H7B 3935   4.853   3.312   7.263 -1.7667  1.5581  2.2218
   54CHL1    C8 3936   5.045   3.326   7.379  0.0221  0.8941  0.0288
   54CHL1    H8 3937   5.102   3.415   7.413 -0.1752  0.2735  2.1404
   54CHL1   C14 3938   4.987   3.255   7.498 -0.2510  0.0244 -0.1543
   54CHL1   H14 3939   4.929   3.169   7.459  1.2887 -0.9204 -0.4543
   54CHL1   C15 3940   4.902   3.328   7.607  0.0432 -0.1957 -0.5246
   54CHL1  H15A 3941   4.957   3.423   7.626  0.4443 -0.4478 -0.4203
   54CHL1  H15B 3942   4.799   3.352   7.573 -0.2128  1.2728  1.1083
   54CHL1   C16 3943   4.908   3.231   7.725 -0.5529  0.6729  0.6012
   54CHL1  H16A 3944   4.948   3.281   7.816  0.6772  0.7032  0.0538
   54CHL1  H16B 3945   4.809   3.186   7.750 -0.1401  0.3967  1.8123
   54CHL1   C17 3946   5.018   3.121   7.694 -0.4413  0.2369  0.7552
   54CHL1   H17 3947   4.966   3.029   7.661 -0.0505  0.4285 -0.4427
   54CHL1   C13 3948   5.094   3.180   7.580 -0.1820  0.3850 -0.1019
   54CHL1   C18 3949   5.190   3.287   7.633 -0.4544  0.1808 -0.2042
   54CHL1  H18A 3950   5.212   3.355   7.549 -2.4832 -0.2096 -1.1146
   54CHL1  H18B 3951   5.153   3.343   7.721 -0.6927  1.1127 -0.8896
   54CHL1  H18C 3952   5.280   3.233   7.670 -0.6570 -0.5643 -0.7801
   54CHL1   C12 3953   5.165   3.081   7.485  0.0154  1.0084  1.2226
   54CHL1  H12A 3954   5.239   3.021   7.541 -0.2479  1.6054  2.2434
   54CHL1  H12B 3955   5.090   3.012   7.440 -0.1977 -0.4334  3.6076
   54CHL1   C11 3956   5.238   3.149   7.371  0.0870  0.1070  0.2141
   54CHL1  H11A 3957   5.318   3.215   7.412 -0.4562  0.4114  0.8007
   54CHL1  H11B 3958   5.286   3.070   7.309  0.5238  0.3047  0.2987
   54CHL1    C9 3959   5.130   3.229   7.290  0.2265  0.8630 -0.2164
   54CHL1    H9 3960   5.067   3.148   7.247 -0.6762  1.4490 -0.0349
   54CHL1   C10 3961   5.187   3.301   7.166 -0.0527 -0.0201 -0.4098
   54CHL1   C19 3962   5.318   3.379   7.203  0.0483  0.5887 -0.0830
   54CHL1  H19A 3963   5.401   3.308   7.223 -0.4076 -1.0317 -3.2332
   54CHL1  H19B 3964   5.362   3.431   7.114 -2.0075 -1.3413 -2.3869
   54CHL1  H19C 3965   5.318   3.455   7.284  3.4724  1.6259 -0.9005
   54CHL1    C1 3966   5.225   3.191   7.055 -0.1776 -0.5466  0.5249
   54CHL1   H1A 3967   5.318   3.136   7.083 -0.7379 -0.8113  1.9934
   54CHL1   H1B 3968   5.148   3.111   7.059 -0.3761 -0.3318  3.1852
   54CHL1    C2 3969   5.272   3.245   6.920 -0.2631  0.4043 -0.5177
   54CHL1   H2A 3970   5.297   3.173   6.839  0.6788  0.1504 -0.0112
   54CHL1   H2B 3971   5.365   3.300   6.944 -1.2710  1.3631  1.4084
   54CHL1   C20 3972   5.107   3.083   7.818  0.3879 -0.3453 -0.1656
   54CHL1   H20 3973   5.152   3.177   7.857 -0.6037 -0.8055  2.2919
   54CHL1   C21 3974   5.214   2.977   7.796  0.0529 -0.1473 -0.4545
   54CHL1  H21A 3975   5.294   3.011   7.727  0.2137 -2.4414 -1.5059
   54CHL1  H21B 3976   5.161   2.893   7.746  0.1470  1.0926 -2.7925
   54CHL1  H21C 3977   5.270   2.941   7.885 -2.5517  0.0040  1.3431
   54CHL1   C22 3978   5.023   3.030   7.932  0.5588  0.3416  0.2021
   54CHL1  H22A 3979   4.919   3.068   7.922  0.2384 -0.7652 -0.9671
   54CHL1  H22B 3980   5.010   2.920   7.921 -0.5043  0.5897 -1.3266
   54CHL1   C23 3981   5.069   3.068   8.073  0.5647 -0.3305 -0.0158
   54CHL1  H23A 3982   5.163   3.010   8.087 -0.1965 -2.1687 -1.8927
   54CHL1  H23B 3983   5.097   3.175   8.073 -3.8506  1.0583 -1.7308
   54CHL1   C24 3984   4.972   3.037   8.181  0.1378 -0.1735  0.3315
   54CHL1  H24A 3985   4.885   3.098   8.150  0.3149  1.7334  3.1280
   54CHL1  H24B 3986   4.933   2.934   8.171 -1.8704  0.6939 -1.8563
   54CHL1   C25 3987   5.014   3.073   8.319 -0.3647  0.3118 -0.4477
   54CHL1   H25 3988   5.063   3.171   8.301  1.4130 -0.8138 -2.0386
   54CHL1   C26 3989   4.891   3.076   8.410  0.2148  0.0444 -0.4192
   54CHL1  H26A 3990   4.856   2.971   8.405  0.6678 -0.1264 -0.0589
   54CHL1  H26B 3991   4.913   3.105   8.515  0.2300 -1.8707  0.1448
   54CHL1  H26C 3992   4.816   3.145   8.365  1.9404  1.5315 -1.1218
   54CHL1   C27 3993   5.112   2.968   8.368 -0.5056  0.5510  0.4007
   54CHL1  H27A 3994   5.142   2.982   8.474  0.0311 -1.4959  0.5657
   54CHL1  H27B 3995   5.073   2.864   8.362 -0.4579  0.5116  0.7779
   54CHL1  H27C 3996   5.210   2.969   8.317 -0.8203  3.0425 -0.2858
   55CHL1    C3 3997   5.776   5.542   7.027 -0.2343  1.0302 -0.3936
   55CHL1    H3 3998   5.793   5.433   7.021  0.3772  1.1051 -0.1894
   55CHL1    O3 3999   5.754   5.591   6.899 -0.3825 -0.4575  0.2592
   55CHL1   H3' 4000   5.788   5.681   6.898 -0.9955 -0.1193 -3.1831
   55CHL1    C4 4001   5.653   5.562   7.122 -0.5583 -0.3989  0.3050
   55CHL1   H4A 4002   5.614   5.666   7.122  1.0537  0.2737 -1.6921
   55CHL1   H4B 4003   5.566   5.512   7.075 -0.4211  0.0601 -0.4568
   55CHL1    C5 4004   5.680   5.504   7.258 -0.4081 -0.5925 -0.2542
   55CHL1    C6 4005   5.601   5.416   7.321  0.2555  0.3245  0.9080
   55CHL1    H6 4006   5.512   5.387   7.264  1.2789  0.5686 -0.9234
   55CHL1    C7 4007   5.622   5.374   7.459 -0.8149 -1.2123  0.2066
   55CHL1   H7A 4008   5.523   5.366   7.510 -1.4490  2.2562 -0.2029
   55CHL1   H7B 4009   5.679   5.279   7.462  0.8622 -0.2795 -0.5701
   55CHL1    C8 4010   5.712   5.472   7.535 -0.2124 -0.3015 -0.5137
   55CHL1    H8 4011   5.667   5.572   7.555  0.2289  0.1074 -1.5212
   55CHL1   C14 4012   5.755   5.409   7.670 -1.0243 -0.6662 -0.2049
   55CHL1   H14 4013   5.820   5.327   7.634  0.3160 -0.8985  2.5076
   55CHL1   C15 4014   5.650   5.338   7.759 -0.2583 -0.3554 -0.1725
   55CHL1  H15A 4015   5.561   5.403   7.775  0.8853  1.5647 -1.3721
   55CHL1  H15B 4016   5.611   5.256   7.695 -0.2780 -0.9829  0.6271
   55CHL1   C16 4017   5.724   5.302   7.890 -0.3861 -0.1986  0.1193
   55CHL1  H16A 4018   5.660   5.334   7.975 -1.6681 -0.9325 -0.5523
   55CHL1  H16B 4019   5.741   5.194   7.908 -1.1882 -0.2787  0.4503
   55CHL1   C17 4020   5.864   5.378   7.881  0.4233 -0.5932 -0.7380
   55CHL1   H17 4021   5.938   5.304   7.846  0.4131 -1.0671  0.2109
   55CHL1   C13 4022   5.848   5.481   7.767 -0.0737  0.1758  0.2615
   55CHL1   C18 4023   5.771   5.598   7.827  0.6758 -0.0542 -0.3167
   55CHL1  H18A 4024   5.842   5.675   7.864 -0.3511  1.5707 -1.5733
   55CHL1  H18B 4025   5.702   5.651   7.757  1.3105 -0.0874 -0.9886
   55CHL1  H18C 4026   5.702   5.559   7.904 -1.1838 -1.7634 -2.6917
   55CHL1   C12 4027   5.968   5.529   7.688  0.1185  0.4520 -0.1475
   55CHL1  H12A 4028   6.030   5.601   7.744  0.2778 -0.6329  1.1262
   55CHL1  H12B 4029   6.030   5.438   7.675 -0.9847 -0.4249  0.5513
   55CHL1   C11 4030   5.941   5.589   7.546  0.4681 -0.0792  0.6449
   55CHL1  H11A 4031   5.892   5.686   7.569  0.9198 -0.5260  4.0044
   55CHL1  H11B 4032   6.030   5.605   7.481  0.2178 -1.6411 -0.1278
   55CHL1    C9 4033   5.841   5.504   7.458  0.0650  0.2307 -0.7115
   55CHL1    H9 4034   5.885   5.405   7.433  0.1755  0.8405 -3.2522
   55CHL1   C10 4035   5.805   5.567   7.320 -0.3082  0.0594  0.1158
   55CHL1   C19 4036   5.779   5.715   7.341 -1.1518  0.0297  0.0492
   55CHL1  H19A 4037   5.768   5.764   7.242  1.4214  1.0583  0.1959
   55CHL1  H19B 4038   5.697   5.741   7.411 -0.5236  0.3388  0.6774
   55CHL1  H19C 4039   5.875   5.757   7.378 -0.1441 -0.8956 -1.4114
   55CHL1    C1 4040   5.926   5.544   7.227  0.0310 -0.0566  1.1103
   55CHL1   H1A 4041   6.015   5.582   7.282  0.4782 -1.4866  1.3992
   55CHL1   H1B 4042   5.941   5.434   7.219  0.5490  0.0701  0.0856
   55CHL1    C2 4043   5.908   5.601   7.085  0.0929  0.0369 -0.2013
   55CHL1   H2A 4044   5.989   5.564   7.019  0.1704 -0.1788  0.0147
   55CHL1   H2B 4045   5.903   5.712   7.079  0.3312  0.2461  2.3907
   55CHL1   C20 4046   5.923   5.416   8.021 -0.0790 -0.1672  0.1961
   55CHL1   H20 4047   5.851   5.490   8.059 -1.2317 -1.5253  0.7461
   55CHL1   C21 4048   6.065   5.479   8.008 -0.1651 -0.9543 -0.1781
   55CHL1  H21A 4049   6.066   5.568   7.941 -1.5596 -1.8097 -1.3997
   55CHL1  H21B 4050   6.134   5.404   7.962  1.4830  1.6595 -2.2767
   55CHL1  H21C 4051   6.104   5.521   8.103 -0.8733  1.1794 -0.7781
   55CHL1   C22 4052   5.930   5.304   8.127 -0.4207  0.4997  0.5533
   55CHL1  H22A 4053   5.835   5.247   8.127 -0.2909  0.2765  1.0082
   55CHL1  H22B 4054   6.005   5.231   8.089 -0.7751  0.1796  0.4627
   55CHL1   C23 4055   5.964   5.337   8.272  0.5035 -0.6836  0.6722
   55CHL1  H23A 4056   6.073   5.358   8.272  0.7024 -1.6496 -0.2352
   55CHL1  H23B 4057   5.919   5.433   8.306 -0.0117 -0.0532 -1.5785
   55CHL1   C24 4058   5.920   5.228   8.377 -0.6391 -0.0170  0.4979
   55CHL1  H24A 4059   5.811   5.213   8.368 -0.4919  0.1199 -2.4481
   55CHL1  H24B 4060   5.967   5.135   8.339 -0.4845  0.6504 -1.0072
   55CHL1   C25 4061   5.974   5.252   8.523  0.0525 -1.0774  0.1010
   55CHL1   H25 4062   5.939   5.351   8.560  3.5243 -0.2814  1.7239
   55CHL1   C26 4063   5.917   5.136   8.607 -0.7394 -0.4423  0.2364
   55CHL1  H26A 4064   5.972   5.039   8.611  0.5033  0.2550  0.4128
   55CHL1  H26B 4065   5.899   5.166   8.712  2.2843  4.1795 -0.2827
   55CHL1  H26C 4066   5.821   5.099   8.564 -1.0358 -1.3644  1.6285
   55CHL1   C27 4067   6.127   5.259   8.528 -0.1052  0.3705  0.0994
   55CHL1  H27A 4068   6.167   5.340   8.463 -1.3735 -0.8400 -2.3605
   55CHL1  H27B 4069   6.159   5.268   8.634 -2.9579  0.2443  1.0560
   55CHL1  H27C 4070   6.180   5.170   8.487 -0.2945  0.2349  0.1462
   56CHL1    C3 4071   4.093   1.777   6.844 -0.1327 -0.3416  1.0996
   56CHL1    H3 4072   4.129   1.874   6.885 -0.0112  0.9115 -1.7363
   56CHL1    O3 4073   4.112   1.773   6.700  1.0972 -0.2119 -0.6070
   56CHL1   H3' 4074   4.114   1.678   6.681 -0.8596 -0.5868  0.6705
   56CHL1    C4 4075   4.174   1.670   6.910 -0.7379  0.4635 -0.4097
   56CHL1   H4A 4076   4.151   1.567   6.875 -1.9083  0.7060 -0.3766
   56CHL1   H4B 4077   4.279   1.687   6.878 -0.7325 -1.3105 -1.5179
   56CHL1    C5 4078   4.140   1.680   7.059 -0.4326 -0.0480  0.0983
   56CHL1    C6 4079   4.238   1.701   7.146  0.4515 -0.4120  0.0728
   56CHL1    H6 4080   4.342   1.696   7.112  0.2345  1.8826 -1.1179
   56CHL1    C7 4081   4.214   1.708   7.293  0.1454 -0.8718 -0.4949
   56CHL1   H7A 4082   4.293   1.648   7.343  0.3709 -1.7237 -1.8133
   56CHL1   H7B 4083   4.227   1.814   7.322 -3.1598 -0.9013  1.5363
   56CHL1    C8 4084   4.078   1.658   7.348 -0.2341  0.5597 -0.7059
   56CHL1    H8 4085   4.083   1.548   7.341 -2.3357  0.4489 -1.2318
   56CHL1   C14 4086   4.054   1.695   7.497 -0.1302 -0.0401 -0.4374
   56CHL1   H14 4087   4.050   1.806   7.505 -4.1894 -0.0524 -0.1796
   56CHL1   C15 4088   4.169   1.650   7.597 -0.4866  0.1909  0.1748
   56CHL1  H15A 4089   4.196   1.543   7.593 -1.6649 -0.1124 -3.2858
   56CHL1  H15B 4090   4.253   1.722   7.588 -0.0682 -0.5384 -3.2870
   56CHL1   C16 4091   4.095   1.661   7.732  0.5889  0.0304 -0.0030
   56CHL1  H16A 4092   4.107   1.577   7.804 -0.6615  0.2626  0.4971
   56CHL1  H16B 4093   4.114   1.755   7.789 -0.1355 -0.4767  1.1056
   56CHL1   C17 4094   3.939   1.685   7.696 -0.0375  0.3200  0.0752
   56CHL1   H17 4095   3.904   1.790   7.686 -0.8044  0.0515 -0.1188
   56CHL1   C13 4096   3.924   1.639   7.550 -0.4549 -0.0228 -0.7195
   56CHL1   C18 4097   3.920   1.484   7.546  0.0327  0.2072 -0.9215
   56CHL1  H18A 4098   3.996   1.436   7.612 -1.4634  1.0254  1.5521
   56CHL1  H18B 4099   3.820   1.447   7.576  0.0226 -0.3186 -1.5901
   56CHL1  H18C 4100   3.936   1.448   7.443  1.8014 -0.5983 -0.4059
   56CHL1   C12 4101   3.814   1.706   7.467  0.2323 -0.7060  0.2650
   56CHL1  H12A 4102   3.712   1.679   7.500 -0.6278 -0.5615 -2.0496
   56CHL1  H12B 4103   3.839   1.814   7.482 -1.3340 -0.3855  0.7581
   56CHL1   C11 4104   3.825   1.690   7.310  0.2458 -0.7881 -0.7572
   56CHL1  H11A 4105   3.781   1.589   7.295  2.0004 -1.4276 -1.8657
   56CHL1  H11B 4106   3.757   1.765   7.263  0.9715  0.0434 -0.4953
   56CHL1    C9 4107   3.971   1.710   7.254  0.2558  0.0215  0.0431
   56CHL1    H9 4108   3.969   1.821   7.256 -3.3153  0.1062 -1.6893
   56CHL1   C10 4109   3.994   1.676   7.104 -0.0580 -0.2433  0.2116
   56CHL1   C19 4110   3.938   1.529   7.086  0.0955 -0.3066 -0.0571
   56CHL1  H19A 4111   3.983   1.454   7.154 -0.6508 -0.8580 -0.1721
   56CHL1  H19B 4112   3.829   1.515   7.101 -0.1022  0.0339 -1.0624
   56CHL1  H19C 4113   3.952   1.497   6.980 -2.8000 -1.0601 -0.2876
   56CHL1    C1 4114   3.917   1.776   7.020  0.0789  0.1011  0.8032
   56CHL1   H1A 4115   3.808   1.776   7.044  0.5025  0.2242  2.9864
   56CHL1   H1B 4116   3.958   1.877   7.042 -0.7522  0.9374 -1.2711
   56CHL1    C2 4117   3.944   1.761   6.872  0.0665  1.0494  0.0303
   56CHL1   H2A 4118   3.887   1.840   6.819 -1.3844  0.1597  0.2354
   56CHL1   H2B 4119   3.913   1.662   6.831  0.5836  0.5531  0.8056
   56CHL1   C20 4120   3.841   1.628   7.800  0.3804  0.8613  0.5475
   56CHL1   H20 4121   3.846   1.517   7.799  1.2853  0.8904 -0.6443
   56CHL1   C21 4122   3.695   1.674   7.770  0.4510 -0.3741 -0.4941
   56CHL1  H21A 4123   3.630   1.681   7.859  0.7490 -0.4365 -0.2687
   56CHL1  H21B 4124   3.647   1.589   7.717 -2.3274  0.5741  0.3652
   56CHL1  H21C 4125   3.692   1.760   7.699  1.7507  0.3001  0.2215
   56CHL1   C22 4126   3.875   1.674   7.940 -0.0120  0.2170 -0.7742
   56CHL1  H22A 4127   3.983   1.672   7.965  0.0011  4.4681  0.1668
   56CHL1  H22B 4128   3.847   1.781   7.953  1.3235  0.6851 -1.5393
   56CHL1   C23 4129   3.803   1.596   8.052  0.6229  0.1591  1.0365
   56CHL1  H23A 4130   3.695   1.599   8.027  1.0950 -0.8951 -1.3152
   56CHL1  H23B 4131   3.837   1.491   8.045  0.4388  0.0962  1.0767
   56CHL1   C24 4132   3.823   1.652   8.195  0.6107 -0.3065 -0.1092
   56CHL1  H24A 4133   3.932   1.672   8.197  0.4611  0.7737 -1.4187
   56CHL1  H24B 4134   3.768   1.747   8.212 -1.9029 -1.5222 -0.8633
   56CHL1   C25 4135   3.781   1.557   8.313 -0.6667 -0.8405  0.9870
   56CHL1   H25 4136   3.676   1.525   8.296 -0.4262 -0.4326 -1.6849
   56CHL1   C26 4137   3.854   1.426   8.325  0.7174  0.2440  0.2211
   56CHL1  H26A 4138   3.962   1.446   8.309  0.7995 -0.5312 -0.2441
   56CHL1  H26B 4139   3.827   1.344   8.255  0.4461 -0.6481  1.3422
   56CHL1  H26C 4140   3.844   1.401   8.433 -0.7843  1.0873  0.3079
   56CHL1   C27 4141   3.802   1.635   8.439 -0.1754 -0.3746 -0.1247
   56CHL1  H27A 4142   3.732   1.721   8.456 -1.0189 -0.9897 -0.4230
   56CHL1  H27B 4143   3.790   1.565   8.524  0.0215 -3.3628 -2.4122
   56CHL1  H27C 4144   3.907   1.668   8.430 -0.4884  0.6204 -0.2789
   57SAPC     N 4145   5.646   6.428  10.983  0.4677 -0.2632  0.3039
   57SAPC   C12 4146   5.645   6.324  10.876  0.3436 -0.1561  0.0675
   57SAPC  H12A 4147   5.546   6.308  10.836  0.3826 -1.0301  0.2965
   57SAPC  H12B 4148   5.665   6.230  10.925  2.3531  0.7391  1.0468
   57SAPC   C13 4149   5.614   6.561  10.922  0.0025 -0.6595 -0.2441
   57SAPC  H13A 4150   5.673   6.602  10.840 -0.1129 -0.2872 -0.1438
   57SAPC  H13B 4151   5.510   6.576  10.895 -0.2953  0.0556  1.2441
   57SAPC  H13C 4152   5.627   6.634  11.000  1.9627 -1.6011  0.3715
   57SAPC   C14 4153   5.550   6.401  11.090 -0.7218 -0.9380  0.3186
   57SAPC  H14A 4154   5.561   6.486  11.156 -1.3879 -0.9546  0.4576
   57SAPC  H14B 4155   5.448   6.394  11.055 -0.5323  1.4121 -0.8796
   57SAPC  H14C 4156   5.576   6.313  11.147 -0.4662  0.0946  1.8694
   57SAPC   C15 4157   5.780   6.441  11.047 -0.3182  0.3048  0.1645
   57SAPC  H15A 4158   5.806   6.349  11.097 -0.1160  0.2249 -0.0801
   57SAPC  H15B 4159   5.849   6.450  10.964 -1.1806 -3.2485 -1.1225
   57SAPC  H15C 4160   5.786   6.522  11.118  0.2817  0.4464 -0.0379
   57SAPC   C11 4161   5.744   6.334  10.760 -0.1257 -0.1019 -0.0470
   57SAPC  H11A 4162   5.729   6.431  10.709  0.3201  0.3848  0.7216
   57SAPC  H11B 4163   5.709   6.262  10.683 -0.5527  1.9408 -1.8496
   57SAPC     P 4164   5.958   6.179  10.801  0.0486 -0.2087  0.2910
   57SAPC   O13 4165   6.092   6.198  10.859  0.0114 -0.2214 -0.8342
   57SAPC   O14 4166   5.875   6.074  10.869 -0.5844  0.5713 -0.5854
   57SAPC   O12 4167   5.887   6.320  10.792  0.0459  0.0517 -0.1560
   57SAPC   O11 4168   5.956   6.146  10.650  0.1109  0.6329  0.0352
   57SAPC    C1 4169   6.063   6.059  10.605 -0.6877 -0.2773  0.2543
   57SAPC    HA 4170   6.165   6.093  10.633 -0.2819 -0.8418 -0.4775
   57SAPC    HB 4171   6.049   5.958  10.649 -0.8886  0.1762  1.2557
   57SAPC    C2 4172   6.068   6.041  10.443 -0.1313 -0.4073 -1.1241
   57SAPC    HS 4173   6.154   5.976  10.416  0.7519 -0.1790  0.9218
   57SAPC   O21 4174   6.091   6.168  10.379  0.1561  0.4424  0.4076
   57SAPC   C21 4175   6.210   6.213  10.394  0.1633 -0.0876 -1.1376
   57SAPC   O22 4176   6.305   6.155  10.445 -0.0411 -0.4015  0.2725
   57SAPC   C22 4177   6.206   6.349  10.322  0.5188  0.0263 -0.0661
   57SAPC   H2R 4178   6.179   6.319  10.218  1.8379 -1.5193 -0.0137
   57SAPC   H2S 4179   6.138   6.418  10.376  0.2302  0.0384 -0.4402
   57SAPC    C3 4180   5.942   5.977  10.388 -0.6133 -0.6645 -1.0702
   57SAPC    HX 4181   5.855   6.036  10.425 -1.1190 -2.2852  0.4312
   57SAPC    HY 4182   5.925   5.873  10.423 -1.7608 -0.3540 -0.6504
   57SAPC   O31 4183   5.947   5.983  10.244 -0.1239  0.6018 -0.5674
   57SAPC   C31 4184   5.878   5.887  10.183 -0.2450 -0.2434  0.7184
   57SAPC   O32 4185   5.822   5.795  10.237 -0.0837 -0.1597 -0.4069
   57SAPC   C32 4186   5.860   5.927  10.037  0.2156  0.2873 -0.4368
   57SAPC   H2X 4187   5.955   5.924   9.981  0.5271  0.6692  0.0565
   57SAPC   H2Y 4188   5.811   6.027  10.039  0.4096  0.4030  2.0289
   57SAPC   C23 4189   6.342   6.413  10.305  0.0310  0.2514  0.3646
   57SAPC   H3R 4190   6.400   6.354  10.231 -1.6785  0.5084 -1.2525
   57SAPC   H3S 4191   6.394   6.423  10.403  0.1388 -1.4468  0.5056
   57SAPC   C24 4192   6.330   6.559  10.247 -0.4877 -0.6827 -0.1800
   57SAPC   H4R 4193   6.257   6.548  10.164  0.6303  0.3671 -1.3492
   57SAPC   H4S 4194   6.420   6.602  10.198 -0.7432  1.1210  0.8427
   57SAPC   C25 4195   6.270   6.656  10.350  0.4389  0.0394  0.7765
   57SAPC   H5R 4196   6.266   6.627  10.456 -1.0533  0.0136  0.7361
   57SAPC   C26 4197   6.214   6.770  10.315 -0.8819 -0.6404  0.6398
   57SAPC   H6R 4198   6.178   6.846  10.386  1.4050  1.6453 -0.4891
   57SAPC   C27 4199   6.197   6.819  10.172  0.4874 -0.6231  0.5359
   57SAPC   H7R 4200   6.109   6.886  10.174  0.9089 -0.0198 -0.5178
   57SAPC   H7S 4201   6.173   6.735  10.103  2.0924  0.1884 -1.1074
   57SAPC   C28 4202   6.319   6.892  10.124 -0.0461  0.5638  0.0212
   57SAPC   H8R 4203   6.397   6.913  10.199  2.9666 -2.9800 -1.7953
   57SAPC   C29 4204   6.350   6.940  10.002  0.2704 -0.6404 -0.3686
   57SAPC   H9R 4205   6.446   6.993  10.000  0.8529 -1.5984  0.7470
   57SAPC  C210 4206   6.280   6.943   9.872  0.2031  0.3904 -0.2829
   57SAPC  H10R 4207   6.227   7.040   9.860 -1.1299 -0.3321 -0.4082
   57SAPC  H10S 4208   6.198   6.868   9.873 -0.1574  0.7897  0.5087
   57SAPC  C211 4209   6.373   6.916   9.749  0.4514 -0.3803 -0.9712
   57SAPC  H11R 4210   6.447   6.835   9.755  0.5699 -0.3924 -2.3967
   57SAPC  C212 4211   6.392   6.993   9.640  0.1323 -0.1104  0.0409
   57SAPC  H12R 4212   6.462   6.963   9.561  0.8610  1.4880  0.0448
   57SAPC  C213 4213   6.321   7.121   9.617  0.1161  0.5354  0.4092
   57SAPC  H13R 4214   6.236   7.141   9.685 -0.9745  3.9220 -1.7255
   57SAPC  H13S 4215   6.291   7.114   9.510  0.9209 -2.1706  0.2812
   57SAPC  C214 4216   6.428   7.227   9.633 -0.5871  0.1738 -0.4842
   57SAPC  H14R 4217   6.441   7.257   9.738  0.3183 -0.8814 -0.2711
   57SAPC  C215 4218   6.482   7.305   9.537 -0.9333 -0.1629 -0.3478
   57SAPC  H15R 4219   6.562   7.373   9.570 -1.7634 -0.3299  2.1906
   57SAPC  C216 4220   6.454   7.306   9.388 -0.5693 -0.4274  0.4163
   57SAPC  H16R 4221   6.442   7.413   9.363 -0.2664 -0.4573  0.1461
   57SAPC  H16S 4222   6.365   7.243   9.363 -0.5247 -0.4481  0.3125
   57SAPC  C217 4223   6.565   7.252   9.298  0.6735 -0.3626  0.3131
   57SAPC  H17R 4224   6.536   7.252   9.191  1.9153  0.3108 -0.0566
   57SAPC  H17S 4225   6.565   7.147   9.333 -1.2296 -0.2436  0.7714
   57SAPC  C218 4226   6.701   7.318   9.324  0.2442 -0.8360 -0.6542
   57SAPC  H18R 4227   6.740   7.304   9.427 -0.7199  1.3986  0.0773
   57SAPC  H18S 4228   6.693   7.429   9.322  2.5993 -0.6062  0.1142
   57SAPC  C219 4229   6.807   7.283   9.214  0.2120 -0.2246 -0.2864
   57SAPC  H19R 4230   6.759   7.328   9.125 -1.8023 -0.3947  0.6699
   57SAPC  H19S 4231   6.825   7.174   9.197  2.0524 -0.2696  1.5882
   57SAPC  C220 4232   6.935   7.367   9.221 -0.1641 -0.1964  0.8641
   57SAPC  H20R 4233   7.009   7.337   9.144  1.1939  2.2490  1.1023
   57SAPC  H20S 4234   6.968   7.357   9.326 -0.2176  0.1848  0.9196
   57SAPC  H20T 4235   6.906   7.473   9.202 -2.3139 -0.6678  1.2487
   57SAPC   C33 4236   5.760   5.836   9.965 -0.1495 -0.2058  0.1906
   57SAPC   H3X 4237   5.660   5.840  10.013  0.2375  0.0347  1.0004
   57SAPC   H3Y 4238   5.805   5.735   9.972  0.7720  0.1072 -0.8850
   57SAPC   C34 4239   5.764   5.857   9.816  0.4201 -0.0313  0.3630
   57SAPC   H4X 4240   5.708   5.777   9.764 -1.0792  0.2181  1.5367
   57SAPC   H4Y 4241   5.873   5.866   9.797  0.5773  0.8928  1.5469
   57SAPC   C35 4242   5.708   5.988   9.754 -0.2139 -0.0105 -0.1740
   57SAPC   H5X 4243   5.733   6.007   9.647 -0.6376  3.3793  0.2449
   57SAPC   H5Y 4244   5.769   6.060   9.812  0.3899 -0.0999 -0.6840
   57SAPC   C36 4245   5.554   6.008   9.777 -0.6704 -0.0822  0.0727
   57SAPC   H6X 4246   5.533   6.035   9.882  0.8945  0.4346  0.2831
   57SAPC   H6Y 4247   5.506   5.909   9.762  1.8324 -1.3832  0.1529
   57SAPC   C37 4248   5.491   6.114   9.681  0.2556  0.0251 -0.3470
   57SAPC   H7X 4249   5.522   6.208   9.731 -0.6933 -1.3642  3.1536
   57SAPC   H7Y 4250   5.380   6.113   9.688  0.0411 -0.1835 -2.8368
   57SAPC   C38 4251   5.528   6.115   9.530  0.0578 -0.1687 -0.2919
   57SAPC   H8X 4252   5.516   6.008   9.503  2.0898 -0.5476  0.2185
   57SAPC   H8Y 4253   5.633   6.147   9.518 -0.5238  1.4858 -1.2615
   57SAPC   C39 4254   5.451   6.214   9.441 -0.1860  0.3826 -0.2054
   57SAPC   H9X 4255   5.482   6.321   9.442 -1.2352  0.6929 -0.0060
   57SAPC   H9Y 4256   5.343   6.199   9.463  0.4798 -3.1671  1.2244
   57SAPC  C310 4257   5.473   6.184   9.288 -0.6410 -0.1527  0.1713
   57SAPC  H10X 4258   5.456   6.078   9.259 -1.4611 -0.1774  0.7150
   57SAPC  H10Y 4259   5.578   6.212   9.264 -0.3529 -0.3181  1.2163
   57SAPC  C311 4260   5.387   6.271   9.195 -0.1859 -0.2496  0.0191
   57SAPC  H11X 4261   5.423   6.375   9.210 -1.5981  0.2887 -0.2160
   57SAPC  H11Y 4262   5.281   6.257   9.223 -0.2402 -1.6489 -0.7739
   57SAPC  C312 4263   5.400   6.224   9.050 -0.4741 -0.2427  0.9073
   57SAPC  H12X 4264   5.377   6.115   9.050  1.0908 -0.6310 -1.1256
   57SAPC  H12Y 4265   5.505   6.232   9.014 -0.7538 -1.4725 -0.2720
   57SAPC  C313 4266   5.310   6.310   8.963 -0.2332 -0.4648  0.6749
   57SAPC  H13X 4267   5.205   6.302   8.998  0.0353 -3.2360  1.0698
   57SAPC  H13Y 4268   5.306   6.254   8.867 -2.4790  0.7383 -0.0215
   57SAPC  C314 4269   5.348   6.462   8.943  0.1055  0.2978  0.2333
   57SAPC  H14X 4270   5.458   6.466   8.931  0.1587  0.8814  0.8467
   57SAPC  H14Y 4271   5.323   6.532   9.026  1.2250  0.6750  0.2670
   57SAPC  C315 4272   5.290   6.523   8.811  0.1140 -0.5871 -0.4606
   57SAPC  H15X 4273   5.353   6.501   8.722  1.9863  0.1985  0.6098
   57SAPC  H15Y 4274   5.297   6.632   8.831 -2.7829 -0.3855 -0.0994
   57SAPC  C316 4275   5.148   6.498   8.778 -0.2772 -0.5786  0.5456
   57SAPC  H16X 4276   5.121   6.390   8.775 -2.1309 -0.1156 -1.0076
   57SAPC  H16Y 4277   5.116   6.542   8.681 -0.3801 -1.5044  0.1404
   57SAPC  C317 4278   5.053   6.575   8.872  0.3024 -0.0706  0.7595
   57SAPC  H17X 4279   5.077   6.684   8.879  0.0610  0.1188 -0.8501
   57SAPC  H17Y 4280   5.065   6.528   8.972 -0.8727  0.0099  0.9444
   57SAPC  C318 4281   4.914   6.571   8.815  0.1605 -0.7166 -0.2199
   57SAPC  H18X 4282   4.874   6.471   8.788 -2.7116 -0.1545  1.4411
   57SAPC  H18Y 4283   4.908   6.641   8.729 -0.0318 -0.0519  0.3219
   57SAPC  H18Z 4284   4.841   6.630   8.876  2.0379  2.0050 -0.4119
   58SAPC     N 4285   6.666   4.888  11.035  0.1508  0.5492  0.7123
   58SAPC   C12 4286   6.759   4.820  10.936 -1.4306 -0.4847  0.2337
   58SAPC  H12A 4287   6.703   4.754  10.873  0.2128 -0.6392 -1.1360
   58SAPC  H12B 4288   6.836   4.768  10.993 -0.3611  1.7252  0.9215
   58SAPC   C13 4289   6.611   4.777  11.117 -0.3673  0.1334 -0.2986
   58SAPC  H13A 4290   6.559   4.703  11.059 -0.5598 -0.9251  1.1715
   58SAPC  H13B 4291   6.688   4.730  11.176 -0.9587 -1.2692 -0.6062
   58SAPC  H13C 4292   6.536   4.819  11.183  2.5598  1.5003  2.4196
   58SAPC   C14 4293   6.730   4.990  11.115  0.7121 -0.0520 -0.0534
   58SAPC  H14A 4294   6.650   5.026  11.178 -0.0883 -1.2564 -0.3405
   58SAPC  H14B 4295   6.814   4.959  11.176 -0.4034 -0.4657  1.3148
   58SAPC  H14C 4296   6.755   5.079  11.058  0.0120  0.1845 -0.0004
   58SAPC   C15 4297   6.554   4.949  10.961  0.1204  0.2960 -0.4844
   58SAPC  H15A 4298   6.499   4.895  10.885  0.4522 -0.3100 -0.2970
   58SAPC  H15B 4299   6.479   4.987  11.029 -0.6209  0.2900 -1.2774
   58SAPC  H15C 4300   6.592   5.035  10.908  1.9662 -0.0912  0.1261
   58SAPC   C11 4301   6.846   4.904  10.837 -0.0143 -0.2407  0.5999
   58SAPC  H11A 4302   6.788   4.975  10.776  1.2122  0.0822 -0.2436
   58SAPC  H11B 4303   6.888   4.841  10.755 -0.0542  0.3805  0.0932
   58SAPC     P 4304   7.089   4.924  10.950  0.5127  0.1975  0.0707
   58SAPC   O13 4305   7.151   5.027  11.037 -1.1185  0.4780  0.3353
   58SAPC   O14 4306   7.061   4.787  11.014  0.1501 -0.3845 -0.1031
   58SAPC   O12 4307   6.952   4.983  10.905 -0.1566 -0.0276  0.2511
   58SAPC   O11 4308   7.155   4.904  10.811 -0.5403  0.3888  0.2872
   58SAPC    C1 4309   7.202   5.016  10.744  0.4210 -0.5661  0.0252
   58SAPC    HA 4310   7.142   5.108  10.758 -0.0445 -1.0561  1.3564
   58SAPC    HB 4311   7.296   5.050  10.791 -0.4225  2.1919 -0.0978
   58SAPC    C2 4312   7.226   4.993  10.591  0.9134 -0.7420 -0.1758
   58SAPC    HS 4313   7.287   5.081  10.560  0.7576  0.1258  1.8133
   58SAPC   O21 4314   7.094   4.983  10.527 -0.1932  0.9365 -0.3424
   58SAPC   C21 4315   7.049   5.097  10.491  0.0567  0.3879 -0.5450
   58SAPC   O22 4316   7.117   5.198  10.484  0.1212 -0.2983 -0.0852
   58SAPC   C22 4317   6.897   5.081  10.467  0.4038 -0.2156 -0.5716
   58SAPC   H2R 4318   6.872   4.984  10.419  0.1754 -1.2204  1.4919
   58SAPC   H2S 4319   6.864   5.077  10.573  4.6436 -2.9299  0.9312
   58SAPC    C3 4320   7.329   4.882  10.550  0.4231  0.2717  0.5040
   58SAPC    HX 4321   7.295   4.777  10.563 -1.9962  1.0765  1.1512
   58SAPC    HY 4322   7.422   4.893  10.609  1.2872 -0.6396 -0.6294
   58SAPC   O31 4323   7.355   4.899  10.410 -0.1111 -0.0552 -0.0993
   58SAPC   C31 4324   7.461   4.852  10.353 -0.2697  0.1133 -0.2310
   58SAPC   O32 4325   7.542   4.780  10.404 -0.2798 -0.0436 -0.3603
   58SAPC   C32 4326   7.470   4.897  10.206  0.0144  0.2382 -0.2673
   58SAPC   H2X 4327   7.441   5.005  10.209 -0.8292  0.0970 -1.9463
   58SAPC   H2Y 4328   7.392   4.837  10.153  1.1671 -1.1662 -0.4217
   58SAPC   C23 4329   6.837   5.198  10.400 -0.0564  0.2386 -0.3643
   58SAPC   H3R 4330   6.892   5.230  10.308 -0.4089 -2.2407 -1.5263
   58SAPC   H3S 4331   6.844   5.276  10.479  0.2421 -0.2420  0.0863
   58SAPC   C24 4332   6.688   5.181  10.360  0.7068  0.1512  0.0620
   58SAPC   H4R 4333   6.651   5.280  10.325  0.6895 -0.2705 -1.1587
   58SAPC   H4S 4334   6.621   5.151  10.443 -1.4007 -0.1471 -1.6393
   58SAPC   C25 4335   6.677   5.081  10.251 -0.7319  0.4215  0.1420
   58SAPC   H5R 4336   6.684   4.976  10.284  3.2125  0.0702 -1.2563
   58SAPC   C26 4337   6.666   5.096  10.120  0.1841  0.3303 -0.8679
   58SAPC   H6R 4338   6.671   5.009  10.053  0.9894 -0.1269 -0.2333
   58SAPC   C27 4339   6.650   5.236  10.052  0.1156 -0.5838  0.6565
   58SAPC   H7R 4340   6.668   5.221   9.944  0.2544 -0.5480  0.6750
   58SAPC   H7S 4341   6.722   5.307  10.098  1.4643 -0.6064 -1.2922
   58SAPC   C28 4342   6.515   5.299  10.068  0.1459  0.6758  0.8747
   58SAPC   H8R 4343   6.442   5.262  10.142 -1.0584 -0.7012 -0.9445
   58SAPC   C29 4344   6.479   5.401   9.986  0.8210  0.0875 -0.4879
   58SAPC   H9R 4345   6.385   5.456  10.004 -0.1216 -1.5086 -0.2968
   58SAPC  C210 4346   6.560   5.449   9.868  0.4320 -0.1288 -0.7969
   58SAPC  H10R 4347   6.604   5.369   9.804  0.6617 -1.0348  0.4630
   58SAPC  H10S 4348   6.653   5.504   9.896  1.4461 -1.8610 -0.5772
   58SAPC  C211 4349   6.483   5.537   9.774 -1.2237 -0.6147  0.3545
   58SAPC  H11R 4350   6.459   5.639   9.807 -2.4204 -0.3130 -1.2739
   58SAPC  C212 4351   6.425   5.507   9.662 -0.2200  0.0505  0.4434
   58SAPC  H12R 4352   6.360   5.582   9.614 -0.5829 -0.1025  0.6873
   58SAPC  C213 4353   6.429   5.372   9.582  0.3200 -0.1209 -0.7389
   58SAPC  H13R 4354   6.438   5.283   9.647 -0.4695  0.5731  0.3432
   58SAPC  H13S 4355   6.524   5.374   9.524  0.8924  1.1083  0.1998
   58SAPC  C214 4356   6.317   5.356   9.482 -0.5845  0.3377 -0.1625
   58SAPC  H14R 4357   6.245   5.277   9.508 -0.1025 -0.4683 -1.1878
   58SAPC  C215 4358   6.294   5.428   9.367 -0.1289  0.3542 -0.8896
   58SAPC  H15R 4359   6.195   5.412   9.321 -2.2301 -0.6482  3.4666
   58SAPC  C216 4360   6.371   5.540   9.309 -0.7417 -0.3116 -0.0230
   58SAPC  H16R 4361   6.439   5.520   9.224  3.1100  0.8731  2.5263
   58SAPC  H16S 4362   6.436   5.576   9.391 -0.3827 -2.0492  0.4881
   58SAPC  C217 4363   6.287   5.654   9.260  0.3435 -0.1443 -1.0607
   58SAPC  H17R 4364   6.213   5.685   9.337  0.5794 -1.3042 -0.3411
   58SAPC  H17S 4365   6.224   5.610   9.180 -2.3391  1.9424 -0.2595
   58SAPC  C218 4366   6.362   5.785   9.221  0.5897  0.0206  1.0305
   58SAPC  H18R 4367   6.429   5.764   9.135  0.4515 -0.1144  0.9561
   58SAPC  H18S 4368   6.430   5.812   9.305 -0.9341  1.6792  1.7833
   58SAPC  C219 4369   6.267   5.896   9.166 -0.2521  0.1632 -0.5318
   58SAPC  H19R 4370   6.327   5.990   9.170  0.4770 -0.2855 -0.7688
   58SAPC  H19S 4371   6.187   5.910   9.241 -1.4370  2.4370 -2.0817
   58SAPC  C220 4372   6.225   5.876   9.019  1.1237  0.5060  0.4979
   58SAPC  H20R 4373   6.169   5.784   8.994 -0.4183  0.9857  2.0060
   58SAPC  H20S 4374   6.312   5.881   8.949  0.4876 -0.7965 -0.4371
   58SAPC  H20T 4375   6.149   5.954   8.997  1.4157  0.5557 -0.3647
   58SAPC   C33 4376   7.605   4.870  10.137 -0.0397 -0.3166 -0.7893
   58SAPC   H3X 4377   7.640   4.777  10.187 -1.0115  0.4036  1.3823
   58SAPC   H3Y 4378   7.676   4.949  10.170 -0.5754 -0.5460  1.0220
   58SAPC   C34 4379   7.608   4.866   9.983 -0.0808 -0.1904 -0.0723
   58SAPC   H4X 4380   7.717   4.859   9.961  0.1053  2.2871 -0.2721
   58SAPC   H4Y 4381   7.570   4.966   9.951 -0.1680 -0.0530  0.4532
   58SAPC   C35 4382   7.519   4.756   9.918  0.0375  0.5543 -0.0077
   58SAPC   H5X 4383   7.416   4.760   9.958  0.1580 -2.2088  0.7585
   58SAPC   H5Y 4384   7.560   4.657   9.943 -0.8273 -0.1412 -1.2286
   58SAPC   C36 4385   7.509   4.759   9.762 -0.3968  0.4872 -0.1251
   58SAPC   H6X 4386   7.450   4.849   9.735  2.2136  2.4605  0.3585
   58SAPC   H6Y 4387   7.469   4.661   9.728 -2.1883  1.9778 -2.5720
   58SAPC   C37 4388   7.636   4.795   9.680 -0.4391  0.5392 -0.0551
   58SAPC   H7X 4389   7.714   4.717   9.692 -2.0788 -1.1209  0.4589
   58SAPC   H7Y 4390   7.662   4.894   9.723 -1.1515  1.1984 -1.0776
   58SAPC   C38 4391   7.602   4.828   9.536 -0.3739  0.4207 -0.3723
   58SAPC   H8X 4392   7.694   4.873   9.494  0.5670 -2.1319 -1.2155
   58SAPC   H8Y 4393   7.524   4.907   9.544 -1.0556 -0.2750  0.0043
   58SAPC   C39 4394   7.565   4.706   9.445  0.2404 -0.1802 -0.4015
   58SAPC   H9X 4395   7.477   4.658   9.491  0.0911  0.9980  0.5805
   58SAPC   H9Y 4396   7.648   4.632   9.435  1.2478  1.0025 -1.0129
   58SAPC  C310 4397   7.535   4.755   9.299  0.6475 -0.3376 -0.3569
   58SAPC  H10X 4398   7.611   4.833   9.280  0.6106 -0.4476 -1.0105
   58SAPC  H10Y 4399   7.437   4.808   9.304  0.1500 -1.2971  0.6752
   58SAPC  C311 4400   7.539   4.648   9.186  0.5967 -0.7227  0.0144
   58SAPC  H11X 4401   7.435   4.608   9.182 -0.5556  1.9519  1.0648
   58SAPC  H11Y 4402   7.606   4.566   9.219  1.5282  0.8515  2.2496
   58SAPC  C312 4403   7.574   4.722   9.059 -0.7406 -0.4967  0.1495
   58SAPC  H12X 4404   7.682   4.740   9.077 -0.9755 -0.4072  1.5563
   58SAPC  H12Y 4405   7.522   4.820   9.056 -1.3132 -0.7991 -0.2230
   58SAPC  C313 4406   7.547   4.641   8.930  0.3649  0.1111 -0.3476
   58SAPC  H13X 4407   7.440   4.612   8.940 -0.3205  1.9536 -1.8065
   58SAPC  H13Y 4408   7.611   4.551   8.941 -0.6670 -0.4055  2.1435
   58SAPC  C314 4409   7.577   4.716   8.804  0.7830  1.1490 -0.1019
   58SAPC  H14X 4410   7.511   4.688   8.719 -1.0898 -0.3668  1.7642
   58SAPC  H14Y 4411   7.682   4.700   8.770  0.7283 -0.1681  0.3107
   58SAPC  C315 4412   7.567   4.867   8.810  0.0627 -0.8325 -0.4785
   58SAPC  H15X 4413   7.631   4.913   8.888  0.3613  1.0301 -1.7452
   58SAPC  H15Y 4414   7.462   4.900   8.827  0.4620  1.0707 -1.4448
   58SAPC  C316 4415   7.608   4.935   8.674 -0.3084 -0.1885 -0.6712
   58SAPC  H16X 4416   7.702   4.898   8.627 -0.3942 -0.4861 -0.6099
   58SAPC  H16Y 4417   7.620   5.043   8.700  2.2538 -0.9691  1.8969
   58SAPC  C317 4418   7.501   4.939   8.560  0.0361  0.6837 -0.0224
   58SAPC  H17X 4419   7.486   4.837   8.519  0.2718 -0.0763  1.6802
   58SAPC  H17Y 4420   7.540   5.004   8.479  0.4756  0.2924 -0.1278
   58SAPC  C318 4421   7.361   4.993   8.610 -0.1470  0.3723 -0.7897
   58SAPC  H18X 4422   7.322   4.919   8.684  0.7497  1.6932  1.1080
   58SAPC  H18Y 4423   7.302   4.989   8.517 -0.0263 -1.6749 -0.8132
   58SAPC  H18Z 4424   7.366   5.100   8.642 -2.5921  0.1649  0.5967
   59SAPC     N 4425   0.557   0.686  11.330  0.6502  0.2923 -0.4816
   59SAPC   C12 4426   0.675   0.742  11.423 -0.6035  0.1453  0.1530
   59SAPC  H12A 4427   0.720   0.655  11.466  0.8003  0.0462 -1.4027
   59SAPC  H12B 4428   0.636   0.806  11.501  0.0647  1.5022 -0.5779
   59SAPC   C13 4429   0.603   0.575  11.241 -0.6055 -0.6138 -0.1963
   59SAPC  H13A 4430   0.690   0.613  11.190 -0.6478  2.0544  1.5256
   59SAPC  H13B 4431   0.639   0.488  11.293  1.8156  0.7861  0.6474
   59SAPC  H13C 4432   0.531   0.545  11.166 -1.2305  3.2812 -1.3841
   59SAPC   C14 4433   0.444   0.641  11.425 -0.1067 -0.0801 -0.4537
   59SAPC  H14A 4434   0.391   0.730  11.455 -0.8168 -1.5278  3.0202
   59SAPC  H14B 4435   0.382   0.563  11.384 -1.4582  1.6174 -1.7435
   59SAPC  H14C 4436   0.483   0.598  11.516  0.4454  0.6476 -0.3337
   59SAPC   C15 4437   0.495   0.797  11.251 -0.3411  0.1764 -0.4317
   59SAPC  H15A 4438   0.410   0.758  11.197  0.3573 -1.5360 -0.3533
   59SAPC  H15B 4439   0.475   0.889  11.305 -1.2579 -1.5474  2.3598
   59SAPC  H15C 4440   0.571   0.824  11.179  1.5112 -1.9195  0.6164
   59SAPC   C11 4441   0.785   0.827  11.352 -0.1218  0.1734  0.1875
   59SAPC  H11A 4442   0.846   0.878  11.429  1.2012 -1.1936  0.0991
   59SAPC  H11B 4443   0.735   0.905  11.291  1.8655  0.6995 -0.8583
   59SAPC     P 4444   0.981   0.665  11.347  0.1005  0.0685 -0.2551
   59SAPC   O13 4445   1.046   0.760  11.441  0.7298  0.3468 -0.1725
   59SAPC   O14 4446   0.936   0.536  11.397 -0.1565  0.1587 -0.0022
   59SAPC   O12 4447   0.863   0.732  11.276 -0.2287 -0.4570  0.1046
   59SAPC   O11 4448   1.073   0.626  11.221 -0.5237  0.0852  0.4687
   59SAPC    C1 4449   1.003   0.566  11.103  0.1133 -0.3366  0.7099
   59SAPC    HA 4450   1.083   0.519  11.041  0.4859  3.4554 -2.0387
   59SAPC    HB 4451   0.930   0.490  11.139 -1.6846 -0.5532 -2.9686
   59SAPC    C2 4452   0.931   0.664  10.998 -0.6449 -0.3694 -0.0444
   59SAPC    HS 4453   0.830   0.694  11.032  0.7108  2.3626  1.9800
   59SAPC   O21 4454   0.934   0.601  10.869 -0.9783  0.7996 -0.2600
   59SAPC   C21 4455   0.843   0.512  10.861 -0.0209  0.7995 -1.0006
   59SAPC   O22 4456   0.767   0.475  10.950 -0.1826  0.8717  0.3817
   59SAPC   C22 4457   0.836   0.464  10.717  0.1508  0.3242  0.5697
   59SAPC   H2R 4458   0.847   0.353  10.709  1.7743  0.3186  2.2283
   59SAPC   H2S 4459   0.734   0.494  10.686 -0.3532 -1.4270  0.4189
   59SAPC    C3 4460   1.012   0.794  10.998 -0.1133 -0.4004  0.3662
   59SAPC    HX 4461   1.120   0.771  11.010 -0.0385 -1.5360 -1.9780
   59SAPC    HY 4462   0.981   0.861  11.082 -2.8867  0.9011 -1.5554
   59SAPC   O31 4463   0.983   0.875  10.880  0.6305 -0.0685 -0.2462
   59SAPC   C31 4464   1.058   0.857  10.773 -0.4022 -0.3097 -0.1167
   59SAPC   O32 4465   1.150   0.775  10.763 -0.0916 -0.2069  0.0704
   59SAPC   C32 4466   1.006   0.957  10.668  0.0426  0.1371  1.0355
   59SAPC   H2X 4467   1.072   1.046  10.676 -0.0988  0.7237 -2.5143
   59SAPC   H2Y 4468   0.908   1.004  10.692 -1.0645 -2.6254  2.4048
   59SAPC   C23 4469   0.949   0.522  10.626 -0.0956 -0.2931 -0.4664
   59SAPC   H3R 4470   1.047   0.515  10.678  0.3891 -0.9985 -1.4528
   59SAPC   H3S 4471   0.942   0.632  10.610 -0.4783 -0.0346  1.2357
   59SAPC   C24 4472   0.964   0.442  10.492 -0.2041  0.6933  0.0363
   59SAPC   H4R 4473   0.967   0.332  10.510 -0.4313  0.8685  1.1814
   59SAPC   H4S 4474   1.064   0.456  10.445 -0.2608 -0.6181 -0.5240
   59SAPC   C25 4475   0.858   0.488  10.401  0.5527 -0.2329  0.4089
   59SAPC   H5R 4476   0.852   0.596  10.383 -2.7390 -0.1531  1.4501
   59SAPC   C26 4477   0.775   0.406  10.329 -0.0094  0.5551  0.1983
   59SAPC   H6R 4478   0.705   0.457  10.262  0.1793 -1.4355 -1.6361
   59SAPC   C27 4479   0.776   0.250  10.337  0.3585 -1.0262 -0.2485
   59SAPC   H7R 4480   0.833   0.202  10.420  0.8885 -1.9013 -1.0978
   59SAPC   H7S 4481   0.838   0.220  10.250  0.9299 -2.2402  0.5459
   59SAPC   C28 4482   0.646   0.172  10.336  0.2857  0.3783  0.5584
   59SAPC   H8R 4483   0.607   0.134  10.431 -1.4085  0.8349  0.0723
   59SAPC   C29 4484   0.571   0.143  10.224 -0.0452  0.2711 -0.2042
   59SAPC   H9R 4485   0.482   0.080  10.238  1.1483 -1.7255 -1.3089
   59SAPC  C210 4486   0.599   0.181  10.085  0.1686 -0.8049 -0.1233
   59SAPC  H10R 4487   0.672   0.106  10.047  3.1943  2.3208 -0.9102
   59SAPC  H10S 4488   0.666   0.269  10.081 -1.0018  0.1593  0.5547
   59SAPC  C211 4489   0.478   0.217   9.993 -0.2341  0.0712 -0.5246
   59SAPC  H11R 4490   0.407   0.294  10.028 -1.4714 -1.5338  0.6427
   59SAPC  C212 4491   0.456   0.184   9.863 -0.4901  0.1962  0.2727
   59SAPC  H12R 4492   0.362   0.217   9.816 -0.4197  0.5280  0.3592
   59SAPC  C213 4493   0.543   0.102   9.770 -0.0013  0.4154  0.2788
   59SAPC  H13R 4494   0.644   0.149   9.759  0.2813  0.0970  1.3957
   59SAPC  H13S 4495   0.492   0.120   9.673  2.2061  0.1718 -1.0034
   59SAPC  C214 4496   0.566  -0.037   9.814  0.5196 -0.4039 -0.0304
   59SAPC  H14R 4497   0.589  -0.043   9.922  0.7111  2.7589  0.1810
   59SAPC  C215 4498   0.574  -0.135   9.724  0.6376 -0.3205 -0.3895
   59SAPC  H15R 4499   0.590  -0.238   9.760 -1.7286 -0.3224  0.8365
   59SAPC  C216 4500   0.549  -0.131   9.574 -0.0246  0.2968 -0.4198
   59SAPC  H16R 4501   0.500  -0.035   9.545  3.0198  1.7545 -1.1335
   59SAPC  H16S 4502   0.476  -0.211   9.550  0.0760  0.2556 -0.5909
   59SAPC  C217 4503   0.678  -0.138   9.502 -0.1102 -0.4107 -0.2003
   59SAPC  H17R 4504   0.720  -0.236   9.533 -2.0746 -0.3208  3.2090
   59SAPC  H17S 4505   0.754  -0.068   9.543  0.5470 -1.3950  0.2875
   59SAPC  C218 4506   0.677  -0.119   9.348  0.9299 -0.2160 -0.5609
   59SAPC  H18R 4507   0.647  -0.014   9.329 -0.7009 -0.5640 -0.0705
   59SAPC  H18S 4508   0.590  -0.173   9.303 -0.4516  0.2879  1.3597
   59SAPC  C219 4509   0.807  -0.176   9.280  0.4899  0.0079 -0.0215
   59SAPC  H19R 4510   0.834  -0.270   9.332 -0.1643  1.4308  3.0978
   59SAPC  H19S 4511   0.890  -0.103   9.294 -0.2445  0.8478  0.0626
   59SAPC  C220 4512   0.794  -0.198   9.130 -0.4659 -0.1020  0.0515
   59SAPC  H20R 4513   0.893  -0.222   9.086 -1.8701 -1.8848 -2.3310
   59SAPC  H20S 4514   0.765  -0.104   9.078  0.2504 -0.3757 -0.8465
   59SAPC  H20T 4515   0.718  -0.277   9.111 -1.5708  0.7305  0.8530
   59SAPC   C33 4516   1.009   0.887  10.526 -0.1525  0.3727 -0.1632
   59SAPC   H3X 4517   0.915   0.828  10.527  1.6570 -2.7148  2.1860
   59SAPC   H3Y 4518   1.086   0.807  10.521 -1.6649 -1.0860 -2.4482
   59SAPC   C34 4519   1.000   0.978  10.400 -0.1173  0.2573  0.3133
   59SAPC   H4X 4520   1.096   1.034  10.393 -0.8803  1.5058 -0.5063
   59SAPC   H4Y 4521   0.933   1.066  10.412 -0.0152  0.3754  0.0152
   59SAPC   C35 4522   0.964   0.913  10.267  0.7146  0.4849 -0.1209
   59SAPC   H5X 4523   0.868   0.960  10.238 -0.2784  0.3548  2.6225
   59SAPC   H5Y 4524   0.921   0.812  10.280 -3.0202  1.6797 -2.0416
   59SAPC   C36 4525   1.076   0.927  10.158  0.1360  0.1909  0.5969
   59SAPC   H6X 4526   1.147   0.844  10.174  1.1747  1.3452  2.3251
   59SAPC   H6Y 4527   1.132   1.021  10.178  0.6323  0.2847 -1.0956
   59SAPC   C37 4528   1.012   0.905  10.019  0.4471  0.1137 -0.5937
   59SAPC   H7X 4529   0.928   0.977  10.010 -1.4724 -1.7395  1.3404
   59SAPC   H7Y 4530   0.972   0.801  10.017 -0.3537  0.3777  0.7227
   59SAPC   C38 4531   1.129   0.925   9.914 -0.2664 -0.1118  0.6319
   59SAPC   H8X 4532   1.205   0.846   9.932  0.4555 -0.0686 -1.8247
   59SAPC   H8Y 4533   1.178   1.024   9.914  0.5593 -0.4649 -1.6106
   59SAPC   C39 4534   1.079   0.905   9.765 -0.1422  0.0661 -0.1672
   59SAPC   H9X 4535   1.009   0.988   9.743  0.2989  0.9945  1.6625
   59SAPC   H9Y 4536   1.037   0.802   9.762  2.4653 -1.0878  0.0617
   59SAPC  C310 4537   1.205   0.904   9.673 -0.3537  0.2287 -0.2416
   59SAPC  H10X 4538   1.281   0.829   9.704  0.1159  0.8933  0.2437
   59SAPC  H10Y 4539   1.252   1.003   9.694 -2.5949  1.1291  0.7772
   59SAPC  C311 4540   1.168   0.903   9.516  0.3511  0.6855 -0.2976
   59SAPC  H11X 4541   1.111   0.810   9.498  1.4892  0.1610 -1.3367
   59SAPC  H11Y 4542   1.259   0.887   9.454  0.1788  3.2134 -1.2828
   59SAPC  C312 4543   1.096   1.020   9.463 -0.4078 -0.0138 -0.6728
   59SAPC  H12X 4544   1.168   1.105   9.458  1.3523 -1.3311  1.1025
   59SAPC  H12Y 4545   1.006   1.039   9.524 -0.3228 -0.3367 -0.4469
   59SAPC  C313 4546   1.042   1.005   9.321 -0.6160 -0.6667 -0.0448
   59SAPC  H13X 4547   1.030   1.108   9.279  3.9777 -0.1888 -0.7167
   59SAPC  H13Y 4548   0.940   0.960   9.322 -0.7163 -0.4421  0.6051
   59SAPC  C314 4549   1.129   0.921   9.225 -0.3561 -0.2981  0.3354
   59SAPC  H14X 4550   1.127   0.815   9.258  0.9199 -0.8873 -1.3591
   59SAPC  H14Y 4551   1.236   0.946   9.245 -0.2967 -1.6598  2.0558
   59SAPC  C315 4552   1.083   0.918   9.078  0.9745  0.1613  0.2699
   59SAPC  H15X 4553   1.018   1.004   9.052  0.3785 -0.8336 -1.7580
   59SAPC  H15Y 4554   1.010   0.836   9.060  2.1722 -1.0648  0.8432
   59SAPC  C316 4555   1.195   0.918   8.969  0.3552  0.0120 -0.0015
   59SAPC  H16X 4556   1.260   0.831   8.990  2.2524  0.6420 -2.6997
   59SAPC  H16Y 4557   1.251   1.015   8.971 -1.9521  1.3988  1.6835
   59SAPC  C317 4558   1.132   0.902   8.831 -0.3396  0.5469  0.5032
   59SAPC  H17X 4559   1.047   0.830   8.838 -0.8164  1.1541  1.1087
   59SAPC  H17Y 4560   1.201   0.841   8.769  0.6584 -0.3116  2.3481
   59SAPC  C318 4561   1.107   1.033   8.757  0.2651  0.3003  0.5379
   59SAPC  H18X 4562   1.195   1.059   8.695  0.2525  0.1776  0.4681
   59SAPC  H18Y 4563   1.101   1.115   8.832  0.0003 -0.1988  1.0721
   59SAPC  H18Z 4564   1.017   1.034   8.692  0.2391 -0.6472  0.5412
   60SAPC     N 4565   3.765   3.940  11.147  0.5204 -0.3454 -0.5350
   60SAPC   C12 4566   3.825   3.828  11.067 -0.1758  0.1327 -0.2396
   60SAPC  H12A 4567   3.848   3.750  11.138  0.4089  1.2145  0.7996
   60SAPC  H12B 4568   3.923   3.863  11.037 -0.1795  1.3952  1.0843
   60SAPC   C13 4569   3.720   4.050  11.059  0.1149 -0.4287 -0.1316
   60SAPC  H13A 4570   3.633   4.019  11.002 -1.9442  0.5228  2.3232
   60SAPC  H13B 4571   3.686   4.133  11.119 -0.5541  0.2952 -1.4719
   60SAPC  H13C 4572   3.793   4.084  10.987 -0.4244  1.3532  0.0984
   60SAPC   C14 4573   3.637   3.892  11.214  1.0700 -0.4737 -0.2591
   60SAPC  H14A 4574   3.584   3.974  11.259  0.8262 -1.1352  0.6783
   60SAPC  H14B 4575   3.579   3.849  11.133 -1.9546  0.9390  1.0135
   60SAPC  H14C 4576   3.642   3.813  11.288 -0.5010 -0.5220 -0.1732
   60SAPC   C15 4577   3.873   4.008  11.239  0.2604 -0.0075 -0.0170
   60SAPC  H15A 4578   3.830   4.084  11.302  1.1735 -1.4141  2.4423
   60SAPC  H15B 4579   3.907   3.928  11.302 -1.7532 -1.1769 -0.3688
   60SAPC  H15C 4580   3.956   4.048  11.181 -0.7930 -0.4357 -1.8991
   60SAPC   C11 4581   3.755   3.770  10.945  0.3831  0.4847 -0.1930
   60SAPC  H11A 4582   3.819   3.684  10.916  1.4814  0.1774  2.7585
   60SAPC  H11B 4583   3.768   3.841  10.860  0.5455  0.3311 -0.2966
   60SAPC     P 4584   3.566   3.583  10.968  0.0113 -0.2850 -0.0694
   60SAPC   O13 4585   3.679   3.496  11.004  0.1501  0.3889  0.4164
   60SAPC   O14 4586   3.447   3.576  11.051  0.2937 -0.0519  0.6278
   60SAPC   O12 4587   3.617   3.733  10.969  0.3233 -0.5096 -0.8400
   60SAPC   O11 4588   3.527   3.562  10.816 -0.1990  0.9186 -0.4876
   60SAPC    C1 4589   3.623   3.588  10.704  0.2634 -0.0933 -0.3545
   60SAPC    HA 4590   3.565   3.587  10.609  1.0658 -5.0404 -1.0779
   60SAPC    HB 4591   3.680   3.682  10.714  1.1659 -0.7060  0.3422
   60SAPC    C2 4592   3.730   3.485  10.666 -0.4936  0.0426  0.0362
   60SAPC    HS 4593   3.810   3.484  10.743 -0.0814 -0.6404 -0.3852
   60SAPC   O21 4594   3.778   3.525  10.536  0.0229 -0.4783 -0.1161
   60SAPC   C21 4595   3.898   3.482  10.508 -0.0214 -0.0219 -0.2474
   60SAPC   O22 4596   3.965   3.413  10.588 -0.1501 -0.0782 -0.0488
   60SAPC   C22 4597   3.957   3.528  10.375  0.3482  0.5808 -1.1204
   60SAPC   H2R 4598   3.876   3.577  10.316 -0.2890  1.8920  0.7736
   60SAPC   H2S 4599   4.043   3.595  10.394  1.0999  0.0169 -2.3742
   60SAPC    C3 4600   3.661   3.348  10.651 -0.2361 -0.2006 -0.2799
   60SAPC    HX 4601   3.588   3.359  10.568  1.3753 -0.9871 -1.8632
   60SAPC    HY 4602   3.600   3.337  10.743 -1.6412  0.9122 -1.0372
   60SAPC   O31 4603   3.746   3.241  10.618  0.1463 -0.5936 -0.2919
   60SAPC   C31 4604   3.743   3.125  10.688 -0.3218 -0.3482 -0.8656
   60SAPC   O32 4605   3.664   3.105  10.781  0.4448  0.0436  0.0707
   60SAPC   C32 4606   3.819   3.021  10.605  0.3214 -0.7967 -0.2188
   60SAPC   H2X 4607   3.912   3.063  10.560  0.5964  1.0852  1.9548
   60SAPC   H2Y 4608   3.745   2.984  10.531 -0.9579  0.9585  0.1138
   60SAPC   C23 4609   4.017   3.410  10.295 -0.3033  0.2151  0.1107
   60SAPC   H3R 4610   4.072   3.345  10.366 -0.6578 -0.4585 -0.2259
   60SAPC   H3S 4611   4.089   3.462  10.228  1.5150 -0.9798  1.0455
   60SAPC   C24 4612   3.910   3.329  10.216 -0.5409 -0.1958  0.6093
   60SAPC   H4R 4613   3.842   3.398  10.162 -1.0169  0.7094  2.3123
   60SAPC   H4S 4614   3.853   3.261  10.283 -2.1136  1.2695  0.8406
   60SAPC   C25 4615   3.998   3.254  10.111 -0.0255  0.8948 -0.8544
   60SAPC   H5R 4616   4.038   3.155  10.140  1.2287  1.3105 -1.1356
   60SAPC   C26 4617   4.037   3.295   9.988 -0.1748  0.3724  0.4181
   60SAPC   H6R 4618   4.082   3.223   9.918  1.5894 -0.0313  1.8913
   60SAPC   C27 4619   4.022   3.436   9.928 -0.4120 -0.1025  0.1397
   60SAPC   H7R 4620   4.105   3.447   9.856 -0.0451 -0.2613  0.5293
   60SAPC   H7S 4621   4.057   3.506  10.007  1.7252 -0.6663 -0.2246
   60SAPC   C28 4622   3.883   3.460   9.876  0.2024 -0.9895 -0.1085
   60SAPC   H8R 4623   3.820   3.531   9.933 -2.9700 -3.0278 -0.8059
   60SAPC   C29 4624   3.833   3.412   9.760  0.1868  0.3560 -0.3955
   60SAPC   H9R 4625   3.727   3.418   9.733  0.4216 -1.4157 -1.9417
   60SAPC  C210 4626   3.899   3.331   9.651 -0.5697  0.1908 -0.6398
   60SAPC  H10R 4627   3.867   3.225   9.640 -1.6470  0.3141  1.0554
   60SAPC  H10S 4628   4.007   3.335   9.678 -0.9803  2.9738  0.8569
   60SAPC  C211 4629   3.884   3.406   9.522  0.3360 -0.2735  0.8220
   60SAPC  H11R 4630   3.845   3.509   9.520  1.1647  0.1042 -2.7629
   60SAPC  C212 4631   3.904   3.342   9.403  0.0177 -0.4911 -0.0609
   60SAPC  H12R 4632   3.878   3.395   9.310  0.8680  0.9884  0.5136
   60SAPC  C213 4633   3.942   3.197   9.380  0.1381 -0.2159 -0.7731
   60SAPC  H13R 4634   3.865   3.138   9.434  1.3530  0.3351  1.7292
   60SAPC  H13S 4635   4.034   3.190   9.441 -0.2855 -1.8744 -0.2862
   60SAPC  C214 4636   3.980   3.179   9.236  0.3812  0.2392  0.0164
   60SAPC  H14R 4637   4.087   3.200   9.222  0.5563 -0.0759  0.8568
   60SAPC  C215 4638   3.896   3.146   9.136 -0.0397  0.8228  0.4475
   60SAPC  H15R 4639   3.929   3.129   9.032 -0.7585  0.8961  0.2060
   60SAPC  C216 4640   3.749   3.114   9.155 -0.8887 -0.9927 -0.0785
   60SAPC  H16R 4641   3.729   3.124   9.264 -1.2182 -0.5027 -0.1834
   60SAPC  H16S 4642   3.740   3.008   9.124 -0.3018 -1.6160  1.7184
   60SAPC  C217 4643   3.666   3.218   9.079 -0.1751 -0.5502  0.2833
   60SAPC  H17R 4644   3.707   3.313   9.120  1.1471 -1.3441  0.8950
   60SAPC  H17S 4645   3.561   3.206   9.113 -1.3767  2.5169 -1.8790
   60SAPC  C218 4646   3.661   3.193   8.926 -0.0383  0.5762 -0.2792
   60SAPC  H18R 4647   3.640   3.085   8.910  0.3217  0.5917 -0.9141
   60SAPC  H18S 4648   3.754   3.227   8.875  0.1491 -0.6229 -0.7521
   60SAPC  C219 4649   3.544   3.269   8.861  0.1988  1.3990  0.0665
   60SAPC  H19R 4650   3.559   3.378   8.875 -1.0246  1.3156  2.5193
   60SAPC  H19S 4651   3.449   3.229   8.905  1.5497 -1.7030  0.4450
   60SAPC  C220 4652   3.529   3.238   8.707 -0.1283  0.1750 -0.4229
   60SAPC  H20R 4653   3.627   3.266   8.663 -0.7449  1.3843 -1.0823
   60SAPC  H20S 4654   3.453   3.302   8.657  0.5163  0.5807 -0.8998
   60SAPC  H20T 4655   3.508   3.130   8.692 -2.9915  0.6970 -0.8059
   60SAPC   C33 4656   3.875   2.903  10.685  0.1970  0.3060 -0.5072
   60SAPC   H3X 4657   3.878   2.810  10.623 -1.2415 -0.4937  0.5389
   60SAPC   H3Y 4658   3.803   2.884  10.768  0.0465  2.0244 -0.2178
   60SAPC   C34 4659   4.010   2.933  10.755 -0.2324 -0.0657  0.3803
   60SAPC   H4X 4660   4.005   3.038  10.791  1.2295 -0.9070  3.3530
   60SAPC   H4Y 4661   4.084   2.944  10.672 -0.0561  1.3520  0.7111
   60SAPC   C35 4662   4.072   2.832  10.847 -0.0619  0.3765  0.0044
   60SAPC   H5X 4663   4.182   2.841  10.864  0.9751 -1.6359 -4.3270
   60SAPC   H5Y 4664   4.067   2.729  10.807 -1.3292 -0.7083  2.6619
   60SAPC   C36 4665   3.996   2.825  10.980  0.2453  0.0339  0.0220
   60SAPC   H6X 4666   3.889   2.800  10.969 -0.4114  2.4820  0.2924
   60SAPC   H6Y 4667   3.997   2.924  11.032 -1.3767 -1.3027  2.7885
   60SAPC   C37 4668   4.052   2.716  11.080 -0.4093  0.2858  0.7749
   60SAPC   H7X 4669   4.160   2.724  11.104  0.3806  2.2391 -2.6881
   60SAPC   H7Y 4670   4.035   2.617  11.031 -1.7612  1.1976 -0.6980
   60SAPC   C38 4671   3.972   2.710  11.210 -0.6639 -0.7895 -0.5953
   60SAPC   H8X 4672   3.864   2.708  11.184 -1.0862  1.2423  0.7355
   60SAPC   H8Y 4673   3.990   2.808  11.259  2.1445 -0.2856 -2.4344
   60SAPC   C39 4674   4.000   2.599  11.303  0.0455  0.3422 -0.6482
   60SAPC   H9X 4675   3.986   2.623  11.410  2.0267 -0.3215 -0.2031
   60SAPC   H9Y 4676   4.110   2.585  11.294  0.3448  0.9876  1.5936
   60SAPC  C310 4677   3.923   2.463  11.270 -0.3834  1.0970 -0.2263
   60SAPC  H10X 4678   3.907   2.445  11.161  1.8849  1.1588 -0.6122
   60SAPC  H10Y 4679   3.827   2.481  11.322 -2.2831 -0.4462 -2.9206
   60SAPC  C311 4680   3.990   2.345  11.340  0.7578 -0.1111  0.7890
   60SAPC  H11X 4681   4.007   2.358  11.449 -3.2810 -0.5099  1.6222
   60SAPC  H11Y 4682   4.088   2.324  11.292  0.3259  0.1434 -0.2270
   60SAPC  C312 4683   3.910   2.219  11.341  0.7917  0.5797  0.0749
   60SAPC  H12X 4684   3.959   2.131  11.390  0.9193  1.2128  1.1046
   60SAPC  H12Y 4685   3.898   2.185  11.236  0.6161 -0.7461  0.5042
   60SAPC  C313 4686   3.770   2.231  11.397 -0.0916  0.0128  0.5168
   60SAPC  H13X 4687   3.719   2.135  11.374 -0.1404  0.5554 -1.9578
   60SAPC  H13Y 4688   3.714   2.299  11.330 -1.2009 -1.2946  0.0708
   60SAPC  C314 4689   3.764   2.279  11.542  0.0903  0.1206  0.3402
   60SAPC  H14X 4690   3.659   2.273  11.578 -0.1252  0.9350 -0.1339
   60SAPC  H14Y 4691   3.790   2.387  11.549  0.3180 -0.0204  2.8438
   60SAPC  C315 4692   3.848   2.191  11.632 -0.5086  0.7004  0.0897
   60SAPC  H15X 4693   3.957   2.210  11.615 -0.0935 -0.0654  1.6411
   60SAPC  H15Y 4694   3.851   2.084  11.603  1.7409  0.4694  0.9616
   60SAPC  C316 4695   3.835   2.212  11.780 -0.1553 -1.0525  0.0493
   60SAPC  H16X 4696   3.876   2.126  11.838 -1.9408 -0.2025  2.7960
   60SAPC  H16Y 4697   3.725   2.220  11.789 -0.1077  2.0755 -0.9396
   60SAPC  C317 4698   3.897   2.343  11.827  0.0367 -0.7835 -0.4796
   60SAPC  H17X 4699   3.850   2.382  11.920 -1.5256 -0.6794 -1.2770
   60SAPC  H17Y 4700   3.865   2.429  11.765 -0.0765  1.1665  2.1031
   60SAPC  C318 4701   4.048   2.329  11.852  0.4699  0.7077  0.4096
   60SAPC  H18X 4702   4.061   2.264  11.941 -1.0680 -2.3084 -1.4160
   60SAPC  H18Y 4703   4.101   2.427  11.860  0.4058  1.0018 -1.9867
   60SAPC  H18Z 4704   4.086   2.282  11.759 -1.3321 -2.6651  1.2462
   61SAPC     N 4705   4.419   3.696  11.273  0.3575  0.3151 -0.1540
   61SAPC   C12 4706   4.296   3.789  11.270 -0.5254  0.0635 -0.1354
   61SAPC  H12A 4707   4.327   3.888  11.240 -0.9766  0.1982 -0.1657
   61SAPC  H12B 4708   4.262   3.796  11.372  0.9887 -0.2636  0.4268
   61SAPC   C13 4709   4.499   3.722  11.398  0.1668  0.5710 -0.0568
   61SAPC  H13A 4710   4.448   3.677  11.482 -1.0453  0.7244 -0.6907
   61SAPC  H13B 4711   4.590   3.663  11.401  0.0119  0.2692 -0.9946
   61SAPC  H13C 4712   4.526   3.824  11.421 -3.2291  1.0414  2.5766
   61SAPC   C14 4713   4.360   3.556  11.278  0.7391  1.0192  0.0422
   61SAPC  H14A 4714   4.302   3.544  11.188  0.2183  2.2447  0.1956
   61SAPC  H14B 4715   4.440   3.485  11.295  1.2311  2.0218  2.2178
   61SAPC  H14C 4716   4.297   3.548  11.365  2.5089 -0.8879  1.2711
   61SAPC   C15 4717   4.502   3.696  11.153 -0.0399 -0.2791  0.1645
   61SAPC  H15A 4718   4.523   3.800  11.132 -0.6749  0.0724  1.1971
   61SAPC  H15B 4719   4.594   3.641  11.166 -0.2647  0.0119  4.0546
   61SAPC  H15C 4720   4.448   3.658  11.068 -1.3943  0.1096  0.8216
   61SAPC   C11 4721   4.183   3.758  11.172  0.2688  0.5979 -0.2520
   61SAPC  H11A 4722   4.114   3.845  11.163  1.0184  1.0781 -1.6921
   61SAPC  H11B 4723   4.130   3.676  11.224 -1.3692  0.4342 -2.0687
   61SAPC     P 4724   4.154   3.719  10.912  0.3700  0.0435 -0.0125
   61SAPC   O13 4725   4.104   3.579  10.891 -0.2526 -0.6636 -0.2638
   61SAPC   O14 4726   4.061   3.834  10.911  0.2738  0.4475  0.1989
   61SAPC   O12 4727   4.239   3.717  11.047 -0.5376  0.1023 -0.8630
   61SAPC   O11 4728   4.273   3.727  10.809  0.2784  0.2987  0.2813
   61SAPC    C1 4729   4.350   3.848  10.797  0.1716  0.1584  0.4033
   61SAPC    HA 4730   4.338   3.914  10.884 -0.6799 -1.2146  1.3698
   61SAPC    HB 4731   4.455   3.825  10.824 -0.1080 -0.6549  0.8316
   61SAPC    C2 4732   4.348   3.929  10.665  0.4537 -1.3583 -0.7107
   61SAPC    HS 4733   4.247   3.976  10.659 -0.2471 -2.7536 -0.3156
   61SAPC   O21 4734   4.375   3.848  10.547  0.7948 -0.1907  0.1075
   61SAPC   C21 4735   4.281   3.774  10.501  0.0649  0.8781 -0.1806
   61SAPC   O22 4736   4.167   3.778  10.547 -0.5029  0.5948  0.4408
   61SAPC   C22 4737   4.323   3.705  10.366 -0.2240  0.2779  0.0835
   61SAPC   H2R 4738   4.230   3.668  10.318  0.1005 -1.0986  0.4856
   61SAPC   H2S 4739   4.372   3.777  10.296 -0.8327  1.4404  0.8215
   61SAPC    C3 4740   4.450   4.045  10.679  0.3524 -0.5061  0.0545
   61SAPC    HX 4741   4.546   3.989  10.678  0.1532 -0.8494 -0.3754
   61SAPC    HY 4742   4.432   4.113  10.765 -2.1335  0.2721 -0.9733
   61SAPC   O31 4743   4.443   4.128  10.563 -0.7023 -0.1964  0.4164
   61SAPC   C31 4744   4.342   4.196  10.538  0.1469 -0.2559 -0.1882
   61SAPC   O32 4745   4.243   4.204  10.607 -0.6843 -0.7482  0.2100
   61SAPC   C32 4746   4.352   4.245  10.389 -0.3594 -0.7759  0.0252
   61SAPC   H2X 4747   4.375   4.157  10.325  1.7749 -0.4437  0.2502
   61SAPC   H2Y 4748   4.440   4.312  10.376 -1.1171  0.2643  0.1162
   61SAPC   C23 4749   4.419   3.588  10.395  0.4160 -0.4841  0.0296
   61SAPC   H3R 4750   4.378   3.503  10.453  1.6783 -1.3298 -0.2833
   61SAPC   H3S 4751   4.493   3.624  10.469 -0.0702  0.4174  0.1001
   61SAPC   C24 4752   4.482   3.538  10.266  0.3699 -0.5907  0.1244
   61SAPC   H4R 4753   4.555   3.462  10.301  0.0233 -1.5415 -1.1198
   61SAPC   H4S 4754   4.541   3.625  10.231 -0.1987 -0.7580 -1.3198
   61SAPC   C25 4755   4.375   3.475  10.177  0.1224  0.3348  0.4294
   61SAPC   H5R 4756   4.288   3.444  10.238 -1.4132  2.6957 -0.4224
   61SAPC   C26 4757   4.362   3.468  10.047  0.2311  0.1586 -0.7825
   61SAPC   H6R 4758   4.281   3.403  10.009  1.4570 -1.4778 -0.7056
   61SAPC   C27 4759   4.456   3.518   9.942  0.3658  0.3755  0.1436
   61SAPC   H7R 4760   4.536   3.581   9.987 -0.8099  0.9565  1.5164
   61SAPC   H7S 4761   4.409   3.591   9.872 -0.6299 -0.6343 -0.2537
   61SAPC   C28 4762   4.530   3.413   9.856 -0.1013 -0.4569  0.2399
   61SAPC   H8R 4763   4.639   3.414   9.872  0.3143  1.5217 -2.0684
   61SAPC   C29 4764   4.474   3.345   9.755 -0.0983 -0.0679  0.0704
   61SAPC   H9R 4765   4.541   3.271   9.708  0.4575 -0.4025  1.3464
   61SAPC  C210 4766   4.334   3.354   9.705  0.0006  0.8260 -0.2262
   61SAPC  H10R 4767   4.325   3.448   9.645 -1.9707  0.0181 -1.2934
   61SAPC  H10S 4768   4.260   3.350   9.788 -0.6783 -2.8024 -0.8630
   61SAPC  C211 4769   4.304   3.245   9.606 -0.7971  0.3887 -0.6346
   61SAPC  H11R 4770   4.311   3.269   9.499 -0.0463  0.8114 -0.4977
   61SAPC  C212 4771   4.286   3.112   9.625  0.0950 -0.5444 -0.1164
   61SAPC  H12R 4772   4.274   3.051   9.535 -0.6066  0.0652 -0.4505
   61SAPC  C213 4773   4.283   3.040   9.760 -0.6581  0.2160 -0.3964
   61SAPC  H13R 4774   4.206   2.960   9.750 -2.6842  1.6213  2.3342
   61SAPC  H13S 4775   4.233   3.108   9.833 -1.6889 -0.9808  0.0593
   61SAPC  C214 4776   4.423   2.991   9.806  0.0321  0.1040  0.6022
   61SAPC  H14R 4777   4.507   2.993   9.736  0.3896  1.9199  1.0258
   61SAPC  C215 4778   4.448   2.949   9.935 -0.4326 -0.0727  0.4693
   61SAPC  H15R 4779   4.555   2.937   9.961  0.1061  3.0760  0.1125
   61SAPC  C216 4780   4.365   2.930  10.057  0.4217 -0.1707  0.8961
   61SAPC  H16R 4781   4.398   2.844  10.118 -0.6447  0.4517  2.4239
   61SAPC  H16S 4782   4.265   2.897  10.021 -0.1120  0.6990  1.5296
   61SAPC  C217 4783   4.355   3.051  10.151  0.1715  0.2104 -0.1170
   61SAPC  H17R 4784   4.300   3.137  10.106  1.3975  0.6019 -0.9036
   61SAPC  H17S 4785   4.459   3.087  10.164  0.4214 -0.2179 -0.9058
   61SAPC  C218 4786   4.306   3.018  10.290 -0.0093 -0.0558  0.9196
   61SAPC  H18R 4787   4.373   2.944  10.340 -0.6862 -1.6214 -0.3984
   61SAPC  H18S 4788   4.198   2.993  10.282 -0.0503  0.1076  0.9739
   61SAPC  C219 4789   4.289   3.151  10.359  0.2089  0.1020  0.4301
   61SAPC  H19R 4790   4.270   3.233  10.287  0.5585  0.7440  1.0521
   61SAPC  H19S 4791   4.387   3.174  10.406  0.0220  1.1347  0.3252
   61SAPC  C220 4792   4.177   3.151  10.463 -0.7831 -0.6714 -0.6477
   61SAPC  H20R 4793   4.202   3.067  10.531 -0.9367  1.9708  2.9828
   61SAPC  H20S 4794   4.074   3.129  10.425 -1.2587 -0.4047  0.4317
   61SAPC  H20T 4795   4.179   3.234  10.536  0.9544 -1.3101  0.0759
   61SAPC   C33 4796   4.220   4.312  10.349 -0.0198 -1.1195  0.4192
   61SAPC   H3X 4797   4.194   4.395  10.417  1.6475  0.6044 -0.9356
   61SAPC   H3Y 4798   4.140   4.235  10.359  1.4439 -2.5327  2.0507
   61SAPC   C34 4799   4.230   4.371  10.212 -0.0842  0.2629  0.2693
   61SAPC   H4X 4800   4.319   4.435  10.194  0.0959 -0.2128 -0.6019
   61SAPC   H4Y 4801   4.151   4.450  10.214 -0.0080  0.3423  0.1921
   61SAPC   C35 4802   4.220   4.271  10.100  0.2436  0.1442  0.1492
   61SAPC   H5X 4803   4.120   4.228  10.120  0.7552 -1.0326  0.2461
   61SAPC   H5Y 4804   4.294   4.189  10.110 -0.5281 -0.7397 -1.1110
   61SAPC   C36 4805   4.239   4.317   9.958 -0.1939 -0.4197  0.0186
   61SAPC   H6X 4806   4.345   4.352   9.954 -0.3112  1.0544  4.4391
   61SAPC   H6Y 4807   4.170   4.404   9.948  2.0679  1.4959  0.0678
   61SAPC   C37 4808   4.199   4.206   9.864 -0.1372  0.2482 -0.0378
   61SAPC   H7X 4809   4.090   4.190   9.878 -0.8495  3.1503 -1.5089
   61SAPC   H7Y 4810   4.258   4.114   9.887 -0.6106  0.3107  1.5138
   61SAPC   C38 4811   4.219   4.234   9.713  0.0919 -0.3023  0.0623
   61SAPC   H8X 4812   4.325   4.247   9.684 -0.1783  0.7646 -0.4676
   61SAPC   H8Y 4813   4.167   4.327   9.685 -0.8924 -1.1452 -0.9962
   61SAPC   C39 4814   4.160   4.117   9.629 -0.4570  0.0753 -0.0937
   61SAPC   H9X 4815   4.052   4.108   9.653 -0.0670  1.5655  2.6602
   61SAPC   H9Y 4816   4.219   4.030   9.665  1.2222  0.8060 -0.9852
   61SAPC  C310 4817   4.187   4.136   9.477 -0.0525 -0.1951  0.3236
   61SAPC  H10X 4818   4.155   4.238   9.445 -0.1284 -0.5419 -0.7218
   61SAPC  H10Y 4819   4.128   4.060   9.422  0.7857 -0.7661  0.2113
   61SAPC  C311 4820   4.331   4.122   9.437 -0.7240 -0.0903  0.1236
   61SAPC  H11X 4821   4.365   4.032   9.493 -1.5871 -0.2832  0.3547
   61SAPC  H11Y 4822   4.392   4.212   9.461  1.8923 -1.3591 -1.4095
   61SAPC  C312 4823   4.351   4.101   9.293 -0.1128 -0.5569  0.2966
   61SAPC  H12X 4824   4.460   4.106   9.277 -0.4083  1.7847 -1.4898
   61SAPC  H12Y 4825   4.305   4.186   9.239 -2.6015 -0.6146  2.0950
   61SAPC  C313 4826   4.294   3.972   9.246  0.1641  0.4843 -0.3777
   61SAPC  H13X 4827   4.185   3.970   9.226 -0.0619  1.6191  0.6451
   61SAPC  H13Y 4828   4.305   3.891   9.320 -1.4257  0.0264 -0.6123
   61SAPC  C314 4829   4.370   3.932   9.116 -0.1215  0.6740  0.3583
   61SAPC  H14X 4830   4.354   3.822   9.109  0.0001  0.6228  0.8296
   61SAPC  H14Y 4831   4.479   3.943   9.133  0.2351 -2.6172  0.8082
   61SAPC  C315 4832   4.333   4.004   8.986  1.4133  0.0733 -0.6534
   61SAPC  H15X 4833   4.353   4.111   9.004 -1.5992  1.0808 -2.4097
   61SAPC  H15Y 4834   4.224   3.992   8.968  1.2159  1.5028 -0.4924
   61SAPC  C316 4835   4.388   3.964   8.855  0.0462  0.4352 -0.2414
   61SAPC  H16X 4836   4.382   3.856   8.832  2.3956  0.2683 -0.3134
   61SAPC  H16Y 4837   4.498   3.981   8.853  0.1289  0.2053  1.1478
   61SAPC  C317 4838   4.342   4.050   8.740  0.2922 -0.1348  0.0032
   61SAPC  H17X 4839   4.377   4.152   8.764  0.1723 -0.0770 -0.0672
   61SAPC  H17Y 4840   4.231   4.050   8.734  0.2014  1.3499  1.0848
   61SAPC  C318 4841   4.394   4.001   8.601 -0.7076 -0.0395  0.1611
   61SAPC  H18X 4842   4.392   4.089   8.534  0.7881 -0.6284 -0.7266
   61SAPC  H18Y 4843   4.350   3.903   8.571 -1.1145 -0.0751  0.8346
   61SAPC  H18Z 4844   4.504   3.987   8.612 -0.5106  0.4985 -1.0204
   62SAPC     N 4845   3.235   3.324  10.802  0.7793 -0.4100 -0.3522
   62SAPC   C12 4846   3.110   3.249  10.762  0.1385  0.1893  0.3632
   62SAPC  H12A 4847   3.030   3.321  10.750 -0.6099 -0.4268  1.3979
   62SAPC  H12B 4848   3.080   3.189  10.847  0.7836 -0.4771  0.1278
   62SAPC   C13 4849   3.346   3.236  10.830  0.0481 -0.4229  0.4171
   62SAPC  H13A 4850   3.338   3.187  10.927 -0.6028  0.3210  0.7484
   62SAPC  H13B 4851   3.356   3.169  10.746 -3.5148 -0.0184 -0.5053
   62SAPC  H13C 4852   3.428   3.305  10.843 -1.0837  0.5928  3.0364
   62SAPC   C14 4853   3.260   3.423  10.686 -0.1859  0.0699 -0.3534
   62SAPC  H14A 4854   3.175   3.488  10.672 -0.5738 -0.1927  0.7135
   62SAPC  H14B 4855   3.346   3.486  10.704  0.2910 -1.0322  1.4859
   62SAPC  H14C 4856   3.268   3.360  10.598  1.6273 -1.8321  1.0670
   62SAPC   C15 4857   3.203   3.412  10.926  0.1520 -1.2143 -0.1989
   62SAPC  H15A 4858   3.121   3.479  10.909  1.4594  0.1833 -1.2605
   62SAPC  H15B 4859   3.190   3.345  11.010  1.5838 -2.6179 -1.0276
   62SAPC  H15C 4860   3.283   3.482  10.949 -1.3911  0.6227 -0.2300
   62SAPC   C11 4861   3.111   3.151  10.634 -0.5655  0.2405 -0.8287
   62SAPC  H11A 4862   3.131   3.210  10.542 -0.3620 -0.1236 -1.0169
   62SAPC  H11B 4863   3.009   3.113  10.614 -0.4501  0.1326 -1.2096
   62SAPC     P 4864   3.172   2.915  10.731  0.2774 -0.0113  0.1093
   62SAPC   O13 4865   3.297   2.852  10.783 -0.6210  0.3936  0.5461
   62SAPC   O14 4866   3.057   2.943  10.822 -0.5080 -0.2074 -0.5680
   62SAPC   O12 4867   3.211   3.046  10.654 -0.0292 -0.1234 -0.3236
   62SAPC   O11 4868   3.117   2.827  10.611  0.8157  0.6502  0.4274
   62SAPC    C1 4869   3.030   2.869  10.505  0.1746 -0.5780  0.3673
   62SAPC    HA 4870   2.935   2.900  10.554  0.2091  2.9190 -1.4673
   62SAPC    HB 4871   3.060   2.957  10.444 -0.1383 -0.2749  0.6436
   62SAPC    C2 4872   2.983   2.751  10.411  0.0227  0.0674 -0.0215
   62SAPC    HS 4873   2.987   2.651  10.460  0.0266 -0.3706 -0.9023
   62SAPC   O21 4874   3.051   2.753  10.282  0.2243  0.3597 -0.6099
   62SAPC   C21 4875   3.056   2.639  10.213 -0.8541  0.3738  0.5782
   62SAPC   O22 4876   3.021   2.529  10.256 -0.3325  0.3446  0.3365
   62SAPC   C22 4877   3.128   2.674  10.081 -0.4770  0.9736  0.5265
   62SAPC   H2R 4878   3.131   2.782  10.058 -1.1070  0.7863 -0.4597
   62SAPC   H2S 4879   3.233   2.636  10.085 -1.3542 -1.6583  0.4030
   62SAPC    C3 4880   2.830   2.774  10.374  0.8244  0.7677  0.6527
   62SAPC    HX 4881   2.759   2.752  10.456 -0.5480 -0.5788 -0.8277
   62SAPC    HY 4882   2.793   2.699  10.300  0.1271  1.2522  0.4969
   62SAPC   O31 4883   2.812   2.913  10.329  0.2059  0.2079  0.5164
   62SAPC   C31 4884   2.775   2.926  10.208  0.6274 -0.1465 -0.4767
   62SAPC   O32 4885   2.728   2.843  10.136  0.3935 -0.3027  0.0202
   62SAPC   C32 4886   2.798   3.075  10.171 -0.8789 -0.0095 -0.3998
   62SAPC   H2X 4887   2.907   3.081  10.147 -0.1835 -0.2251  2.3120
   62SAPC   H2Y 4888   2.784   3.128  10.268  2.0817 -1.0808  0.7584
   62SAPC   C23 4889   3.053   2.595   9.971 -0.0872  0.1256  0.1708
   62SAPC   H3R 4890   3.046   2.485   9.991 -0.9345 -0.7390 -3.9812
   62SAPC   H3S 4891   3.106   2.603   9.874 -1.5593  0.9690 -0.5990
   62SAPC   C24 4892   2.914   2.671   9.954 -0.8241  0.5043 -0.1191
   62SAPC   H4R 4893   2.912   2.781   9.939 -1.5820  0.5801  0.4735
   62SAPC   H4S 4894   2.861   2.656  10.050  1.3536  0.2606  1.1306
   62SAPC   C25 4895   2.839   2.626   9.830 -0.5199  0.1623 -0.5234
   62SAPC   H5R 4896   2.770   2.540   9.837 -1.2819  0.8513  0.8246
   62SAPC   C26 4897   2.846   2.672   9.703 -0.0162 -0.1523  0.5334
   62SAPC   H6R 4898   2.780   2.626   9.628 -2.1119  0.7381  1.7150
   62SAPC   C27 4899   2.933   2.783   9.653  1.0461  0.2666  0.3233
   62SAPC   H7R 4900   2.979   2.756   9.556  0.3434  1.7342 -0.4461
   62SAPC   H7S 4901   3.020   2.811   9.715  0.9088  1.2346  0.0917
   62SAPC   C28 4902   2.848   2.906   9.638 -0.8345 -0.0128  0.3226
   62SAPC   H8R 4903   2.832   2.954   9.735 -2.0253 -0.4950  0.3828
   62SAPC   C29 4904   2.791   2.954   9.526 -0.4937 -0.6483  0.0352
   62SAPC   H9R 4905   2.732   3.047   9.531  0.8122  0.2740 -1.0386
   62SAPC  C210 4906   2.787   2.887   9.392 -0.2517 -0.1933  0.7301
   62SAPC  H10R 4907   2.854   2.798   9.390 -2.1543 -1.7080  1.6049
   62SAPC  H10S 4908   2.831   2.960   9.321  0.6840 -1.1653  0.2798
   62SAPC  C211 4909   2.654   2.832   9.360  0.4346  1.0342 -0.3133
   62SAPC  H11R 4910   2.602   2.792   9.448 -0.2952  1.3547 -0.5903
   62SAPC  C212 4911   2.592   2.826   9.239 -0.0063 -0.1477  0.3094
   62SAPC  H12R 4912   2.484   2.809   9.228  0.6786 -4.2019 -1.8334
   62SAPC  C213 4913   2.648   2.892   9.120 -0.0482  1.0514  0.1908
   62SAPC  H13R 4914   2.680   2.997   9.136  0.0816  0.5504  4.2234
   62SAPC  H13S 4915   2.563   2.907   9.049 -0.4214  0.5840  0.5329
   62SAPC  C214 4916   2.765   2.821   9.054 -0.4415 -0.2613  0.2069
   62SAPC  H14R 4917   2.845   2.811   9.128 -2.2764  0.0724  2.3640
   62SAPC  C215 4918   2.777   2.774   8.930  0.2358  0.1111 -0.7199
   62SAPC  H15R 4919   2.873   2.727   8.904  0.9779  0.9917  0.3823
   62SAPC  C216 4920   2.680   2.762   8.819 -0.4205  0.0465  0.1995
   62SAPC  H16R 4921   2.643   2.861   8.782 -0.5719 -0.5204 -1.2015
   62SAPC  H16S 4922   2.595   2.700   8.856 -0.7010  0.1843 -0.2065
   62SAPC  C217 4923   2.732   2.691   8.694  0.1872 -0.1037  0.6111
   62SAPC  H17R 4924   2.645   2.679   8.626 -0.9128 -2.0741  2.2411
   62SAPC  H17S 4925   2.763   2.588   8.725  0.5631 -0.4533 -0.8341
   62SAPC  C218 4926   2.857   2.746   8.629 -0.5756  0.2303  0.2311
   62SAPC  H18R 4927   2.901   2.682   8.549  2.7186 -0.5170  2.4195
   62SAPC  H18S 4928   2.935   2.746   8.709  1.2554 -0.7425 -1.4634
   62SAPC  C219 4929   2.849   2.893   8.583 -0.4973 -0.1330  0.3206
   62SAPC  H19R 4930   2.820   2.953   8.671  1.7542  0.3702  0.7681
   62SAPC  H19S 4931   2.781   2.875   8.497  0.1872 -1.0191 -0.0592
   62SAPC  C220 4932   2.980   2.954   8.525 -0.0311 -0.0069 -0.4185
   62SAPC  H20R 4933   2.950   3.053   8.483  0.3359 -0.0480 -0.7862
   62SAPC  H20S 4934   3.013   2.890   8.440 -0.0616 -2.1679  1.1273
   62SAPC  H20T 4935   3.064   2.958   8.597  2.4417 -2.9410 -2.8864
   62SAPC   C33 4936   2.704   3.129  10.061  0.1456  0.2388  0.4763
   62SAPC   H3X 4937   2.602   3.111  10.100 -0.4585 -0.2204 -1.2322
   62SAPC   H3Y 4938   2.719   3.079   9.963 -2.6733  0.1285  0.0159
   62SAPC   C34 4939   2.721   3.282  10.048 -0.4038 -0.2792 -0.2494
   62SAPC   H4X 4940   2.831   3.301  10.051 -0.4472 -0.0763  0.0569
   62SAPC   H4Y 4941   2.674   3.325  10.139  1.0945  0.9604 -0.0103
   62SAPC   C35 4942   2.668   3.344   9.920 -0.5179 -0.0521  0.1371
   62SAPC   H5X 4943   2.735   3.309   9.839 -0.8018  1.9344 -1.0322
   62SAPC   H5Y 4944   2.687   3.453   9.919 -1.4391  0.1225 -0.6224
   62SAPC   C36 4945   2.521   3.312   9.870 -0.1208 -0.4836  0.6154
   62SAPC   H6X 4946   2.453   3.349   9.950 -2.6489 -0.7706 -1.2833
   62SAPC   H6Y 4947   2.507   3.202   9.869 -2.0186 -0.2724  0.1929
   62SAPC   C37 4948   2.479   3.371   9.732 -0.2097 -0.3994 -0.4380
   62SAPC   H7X 4949   2.497   3.481   9.740  0.3601 -0.4896 -0.4825
   62SAPC   H7Y 4950   2.368   3.366   9.723 -0.4253  2.4863 -0.5202
   62SAPC   C38 4951   2.546   3.312   9.618 -0.1700  0.3631 -0.1212
   62SAPC   H8X 4952   2.544   3.201   9.622  0.9333  0.3583  0.6466
   62SAPC   H8Y 4953   2.647   3.355   9.636  0.3505 -0.7379 -0.3238
   62SAPC   C39 4954   2.487   3.362   9.488  0.4185 -0.8140  0.0015
   62SAPC   H9X 4955   2.498   3.472   9.485 -0.8855 -0.6451  0.6204
   62SAPC   H9Y 4956   2.382   3.329   9.473  0.3548 -1.6030  1.8687
   62SAPC  C310 4957   2.560   3.303   9.358 -0.4649 -0.3809 -0.4103
   62SAPC  H10X 4958   2.518   3.351   9.267 -3.4395 -1.2350  0.3992
   62SAPC  H10Y 4959   2.535   3.196   9.344  0.9349 -0.7199 -0.4408
   62SAPC  C311 4960   2.715   3.315   9.362  1.0684  0.1910 -0.3019
   62SAPC  H11X 4961   2.764   3.254   9.283 -2.3885 -1.2597 -1.5191
   62SAPC  H11Y 4962   2.739   3.261   9.457 -1.9918 -0.6433  0.1069
   62SAPC  C312 4963   2.772   3.457   9.356  0.4704 -0.1135 -0.7453
   62SAPC  H12X 4964   2.727   3.510   9.443 -0.4187  1.1453 -1.9402
   62SAPC  H12Y 4965   2.747   3.503   9.258  1.2945  0.5419 -0.6543
   62SAPC  C313 4966   2.925   3.474   9.369 -0.5574 -0.7278 -0.1904
   62SAPC  H13X 4967   2.960   3.577   9.349  1.8552 -1.6070 -0.9480
   62SAPC  H13Y 4968   2.974   3.405   9.297  2.8519  2.0144 -0.7460
   62SAPC  C314 4969   2.976   3.427   9.508  0.3253  0.5335 -0.4612
   62SAPC  H14X 4970   3.085   3.439   9.489  0.5057  1.7585  1.1398
   62SAPC  H14Y 4971   2.965   3.317   9.519 -1.1250  0.7598  0.5605
   62SAPC  C315 4972   2.929   3.505   9.626  0.6846  0.5108  0.1790
   62SAPC  H15X 4973   2.819   3.499   9.643  0.3425  0.7474 -1.6966
   62SAPC  H15Y 4974   2.935   3.612   9.595 -0.0499 -0.1135 -2.3638
   62SAPC  C316 4975   2.994   3.463   9.755 -0.3949 -0.7696 -0.2119
   62SAPC  H16X 4976   3.090   3.426   9.712 -1.9883 -3.2483 -1.8426
   62SAPC  H16Y 4977   2.942   3.379   9.805 -1.6142 -0.0589 -0.2473
   62SAPC  C317 4978   3.006   3.578   9.860  0.4752 -0.1476  0.0026
   62SAPC  H17X 4979   2.899   3.599   9.878  0.1755 -1.7820  0.2737
   62SAPC  H17Y 4980   3.062   3.662   9.814  0.0571  0.6598  0.9425
   62SAPC  C318 4981   3.040   3.540   9.998  0.5468  0.0609 -0.9427
   62SAPC  H18X 4982   3.140   3.493  10.006  0.5913 -0.0610 -2.0426
   62SAPC  H18Y 4983   2.963   3.464  10.026  1.1695 -0.5540 -0.8765
   62SAPC  H18Z 4984   3.034   3.623  10.072 -0.5554 -0.2105 -0.7100
   63SAPC     N 4985   0.855   0.731   6.465 -0.4992  0.3807 -0.3415
   63SAPC   C12 4986   0.791   0.863   6.510  0.6277  0.0995 -0.5902
   63SAPC  H12A 4987   0.683   0.860   6.518  0.6527  0.5996  0.1087
   63SAPC  H12B 4988   0.803   0.940   6.435 -1.2805  0.6258 -0.4171
   63SAPC   C13 4989   0.781   0.673   6.345 -0.5458 -0.4196 -0.9434
   63SAPC  H13A 4990   0.819   0.572   6.334 -1.8917 -1.0176 -0.3401
   63SAPC  H13B 4991   0.676   0.657   6.365 -0.5370 -0.2218 -0.7356
   63SAPC  H13C 4992   0.813   0.740   6.267  1.5496 -1.1613 -0.8059
   63SAPC   C14 4993   1.000   0.739   6.427  0.0545 -0.3264  0.2712
   63SAPC  H14A 4994   1.052   0.645   6.422 -1.7397 -1.3463 -0.4363
   63SAPC  H14B 4995   1.006   0.794   6.334 -0.9040  0.3460  0.5915
   63SAPC  H14C 4996   1.043   0.803   6.502  0.2077 -0.6408  0.4524
   63SAPC   C15 4997   0.845   0.625   6.579 -0.6726  0.1666  0.8365
   63SAPC  H15A 4998   0.866   0.523   6.552 -0.4993  0.2455  0.6726
   63SAPC  H15B 4999   0.913   0.651   6.659 -1.6594  0.6356  1.5475
   63SAPC  H15C 5000   0.742   0.622   6.612 -1.6490  1.2940 -1.8451
   63SAPC   C11 5001   0.826   0.934   6.643  0.5334  0.5050  0.3375
   63SAPC  H11A 5002   0.797   0.855   6.714  1.1819 -0.1717 -0.1351
   63SAPC  H11B 5003   0.776   1.029   6.670 -1.1982  0.1074 -1.2503
   63SAPC     P 5004   1.046   1.068   6.580  0.0813  0.0007  0.0559
   63SAPC   O13 5005   1.178   1.016   6.541  0.1747  0.3260  0.4740
   63SAPC   O14 5006   0.960   1.130   6.475 -0.9395  0.2291 -0.5144
   63SAPC   O12 5007   0.965   0.948   6.645 -0.5086 -0.8030  0.1801
   63SAPC   O11 5008   1.066   1.167   6.702 -0.2477  0.1132 -0.6679
   63SAPC    C1 5009   1.125   1.136   6.824  0.1598  0.2333 -0.6897
   63SAPC    HA 5010   1.079   1.205   6.898 -2.2012 -2.6123  0.6868
   63SAPC    HB 5011   1.088   1.036   6.856  0.7173  0.7978  1.9728
   63SAPC    C2 5012   1.278   1.143   6.820  0.2096 -0.2481  0.4285
   63SAPC    HS 5013   1.307   1.063   6.748 -1.0959  1.5187 -2.2360
   63SAPC   O21 5014   1.310   1.125   6.959  0.4562 -0.0964  0.5829
   63SAPC   C21 5015   1.435   1.119   6.984 -0.4096  0.3980 -0.1731
   63SAPC   O22 5016   1.523   1.082   6.904  0.5662  0.2657 -0.4246
   63SAPC   C22 5017   1.469   1.184   7.117  0.6413 -0.0354 -0.2871
   63SAPC   H2R 5018   1.384   1.253   7.137 -0.4072 -1.0929 -0.9674
   63SAPC   H2S 5019   1.468   1.108   7.198 -1.5705 -1.9400 -1.9641
   63SAPC    C3 5020   1.341   1.271   6.753 -0.8158  0.1557  0.2889
   63SAPC    HX 5021   1.296   1.289   6.652  2.8269  0.0861 -1.5159
   63SAPC    HY 5022   1.446   1.251   6.724 -0.5775  1.1687  0.4172
   63SAPC   O31 5023   1.331   1.391   6.835 -0.5167 -0.0873  0.2047
   63SAPC   C31 5024   1.387   1.507   6.796  0.1852 -0.1176 -0.5785
   63SAPC   O32 5025   1.459   1.521   6.697  0.7691 -0.0680 -0.3265
   63SAPC   C32 5026   1.355   1.624   6.893 -0.0270 -0.0057  0.0191
   63SAPC   H2X 5027   1.254   1.615   6.938 -0.4088 -0.9359 -0.9658
   63SAPC   H2Y 5028   1.337   1.708   6.822 -1.1067 -1.4164 -1.4479
   63SAPC   C23 5029   1.597   1.271   7.108  0.2239  0.7920 -0.2310
   63SAPC   H3R 5030   1.586   1.337   7.019  2.2847  1.6105  0.0794
   63SAPC   H3S 5031   1.688   1.211   7.085 -0.6036  0.4229 -2.8083
   63SAPC   C24 5032   1.618   1.365   7.227  0.2817  0.1867  0.5143
   63SAPC   H4R 5033   1.533   1.435   7.241 -0.7810 -0.4246 -2.1967
   63SAPC   H4S 5034   1.710   1.423   7.207  2.4733 -2.8037  1.3001
   63SAPC   C25 5035   1.659   1.292   7.351 -0.1025  0.8144  0.2769
   63SAPC   H5R 5036   1.761   1.253   7.337 -0.1686  1.2647 -1.9494
   63SAPC   C26 5037   1.591   1.262   7.459  0.1602  0.7195 -0.1174
   63SAPC   H6R 5038   1.630   1.199   7.540  0.4676 -0.6609 -1.3006
   63SAPC   C27 5039   1.447   1.313   7.492 -0.2683  0.8505  0.3283
   63SAPC   H7R 5040   1.406   1.392   7.425 -2.3295  0.8096  1.4642
   63SAPC   H7S 5041   1.455   1.366   7.589 -0.9647  0.6810  0.4889
   63SAPC   C28 5042   1.347   1.195   7.509 -0.6190 -0.0809 -0.1436
   63SAPC   H8R 5043   1.298   1.174   7.413 -0.5876  3.1967 -0.9970
   63SAPC   C29 5044   1.308   1.130   7.624  0.1115  0.6824  0.2989
   63SAPC   H9R 5045   1.242   1.042   7.616  0.2682  0.4203  1.6743
   63SAPC  C210 5046   1.365   1.150   7.759 -0.0134 -0.3535  0.5306
   63SAPC  H10R 5047   1.474   1.130   7.752 -0.2955 -1.9654  0.3758
   63SAPC  H10S 5048   1.329   1.070   7.827 -0.5239  0.0547  0.7519
   63SAPC  C211 5049   1.327   1.293   7.815 -0.1234 -0.4813 -0.1356
   63SAPC  H11R 5050   1.222   1.324   7.825  0.0297 -0.4234  1.6088
   63SAPC  C212 5051   1.426   1.369   7.865  0.2811 -0.2972  0.4699
   63SAPC  H12R 5052   1.396   1.470   7.896  1.3523  0.8285 -1.8998
   63SAPC  C213 5053   1.574   1.334   7.882 -0.1077 -0.7693  0.1265
   63SAPC  H13R 5054   1.615   1.339   7.779 -1.1316  0.1636 -0.2608
   63SAPC  H13S 5055   1.597   1.233   7.923 -0.5552 -0.6608  0.6655
   63SAPC  C214 5056   1.646   1.437   7.969 -0.5433 -0.2473  0.3501
   63SAPC  H14R 5057   1.726   1.492   7.917 -2.2573  0.6717 -1.4934
   63SAPC  C215 5058   1.641   1.453   8.101  0.1276  0.4434  0.5523
   63SAPC  H15R 5059   1.703   1.529   8.151  0.4088 -0.3994  1.5092
   63SAPC  C216 5060   1.546   1.382   8.193 -0.4034 -0.5117 -0.1365
   63SAPC  H16R 5061   1.596   1.294   8.239  0.8113 -1.4295 -3.0091
   63SAPC  H16S 5062   1.468   1.337   8.128 -0.6922  0.2138 -0.3025
   63SAPC  C217 5063   1.472   1.478   8.295 -0.0987  0.3685 -0.2646
   63SAPC  H17R 5064   1.397   1.422   8.354 -0.7799  2.2550  0.7275
   63SAPC  H17S 5065   1.424   1.545   8.220  1.1841 -0.2890 -1.7502
   63SAPC  C218 5066   1.560   1.554   8.394  0.2506 -0.4689 -0.3348
   63SAPC  H18R 5067   1.495   1.590   8.476  2.1383  0.6077  0.7587
   63SAPC  H18S 5068   1.609   1.635   8.336  1.4184 -2.5260 -2.4264
   63SAPC  C219 5069   1.674   1.474   8.456 -0.0720 -0.0631 -0.3181
   63SAPC  H19R 5070   1.732   1.441   8.367 -0.2870  0.9055 -0.8327
   63SAPC  H19S 5071   1.635   1.381   8.502 -0.0346  0.3969  0.6716
   63SAPC  C220 5072   1.744   1.565   8.562  0.1472 -0.1563 -0.2156
   63SAPC  H20R 5073   1.836   1.514   8.599 -1.7494 -1.3288  3.3931
   63SAPC  H20S 5074   1.680   1.573   8.652  1.1744 -1.6488  0.6936
   63SAPC  H20T 5075   1.769   1.660   8.510 -0.6553 -0.1183 -0.5502
   63SAPC   C33 5076   1.463   1.655   6.996 -0.3220 -0.0248 -0.7126
   63SAPC   H3X 5077   1.553   1.686   6.937  0.6485 -2.4195 -0.5839
   63SAPC   H3Y 5078   1.495   1.572   7.063 -0.3651  1.2421  0.9470
   63SAPC   C34 5079   1.436   1.787   7.076  0.6619  0.9192  0.5447
   63SAPC   H4X 5080   1.355   1.762   7.147 -0.3462  3.0045  0.1782
   63SAPC   H4Y 5081   1.390   1.862   7.009  1.7715  1.2051  0.0854
   63SAPC   C35 5082   1.564   1.845   7.134  0.0946  0.9509 -0.0307
   63SAPC   H5X 5083   1.533   1.949   7.158 -1.4338  0.8094 -1.2922
   63SAPC   H5Y 5084   1.644   1.843   7.057  0.3549 -1.1575  0.2359
   63SAPC   C36 5085   1.603   1.758   7.256  0.4628  0.2092 -0.0548
   63SAPC   H6X 5086   1.684   1.814   7.308  0.6408  0.7508 -0.8950
   63SAPC   H6Y 5087   1.658   1.664   7.232  0.6999  0.4427 -0.4390
   63SAPC   C37 5088   1.491   1.719   7.359 -0.8062  0.5500  0.1402
   63SAPC   H7X 5089   1.441   1.628   7.320  1.2967 -0.0313 -1.3501
   63SAPC   H7Y 5090   1.419   1.804   7.356 -1.1933  0.3059 -4.1774
   63SAPC   C38 5091   1.556   1.688   7.495  0.9482 -0.0653  0.1730
   63SAPC   H8X 5092   1.633   1.610   7.476  1.5940  0.3719  0.9431
   63SAPC   H8Y 5093   1.480   1.632   7.554  2.7634 -1.6370  1.1160
   63SAPC   C39 5094   1.606   1.811   7.570 -0.4336 -1.2831  0.4662
   63SAPC   H9X 5095   1.539   1.899   7.556  2.8103  1.1990 -0.9323
   63SAPC   H9Y 5096   1.700   1.851   7.526 -0.4799 -0.1942  1.3158
   63SAPC  C310 5097   1.629   1.783   7.719  0.6208 -0.1006  0.2303
   63SAPC  H10X 5098   1.710   1.847   7.761  1.1316 -0.3657 -0.3294
   63SAPC  H10Y 5099   1.658   1.679   7.745  1.1021  0.0635  0.3689
   63SAPC  C311 5100   1.496   1.808   7.797  0.2936  0.2621 -0.0469
   63SAPC  H11X 5101   1.449   1.709   7.783  1.6623 -0.2869 -0.9780
   63SAPC  H11Y 5102   1.433   1.884   7.745  2.0608  1.3232 -0.7261
   63SAPC  C312 5103   1.527   1.843   7.946  0.0376  0.6301 -0.1021
   63SAPC  H12X 5104   1.627   1.806   7.979  0.3585  2.2309  0.8534
   63SAPC  H12Y 5105   1.440   1.788   7.987  0.1291 -1.0539 -2.0267
   63SAPC  C313 5106   1.534   1.996   7.989 -0.4675  0.3741 -0.5011
   63SAPC  H13X 5107   1.456   2.042   8.053 -1.7964  1.0868 -2.5083
   63SAPC  H13Y 5108   1.511   2.039   7.889 -3.0340 -0.6243 -0.3854
   63SAPC  C314 5109   1.676   2.044   8.027 -0.2131  0.2064  0.0064
   63SAPC  H14X 5110   1.686   2.154   8.016 -0.5214  0.0485 -2.3417
   63SAPC  H14Y 5111   1.734   2.005   7.940  1.3661 -0.9713  1.5007
   63SAPC  C315 5112   1.739   2.000   8.160  0.5205  0.1395  0.0508
   63SAPC  H15X 5113   1.850   1.996   8.172  0.6210 -3.5229 -1.0867
   63SAPC  H15Y 5114   1.698   1.899   8.176 -0.6533 -0.1855 -3.9270
   63SAPC  C316 5115   1.669   2.084   8.273 -0.4090  0.3507 -0.2181
   63SAPC  H16X 5116   1.561   2.077   8.248 -0.6239 -0.0528  0.7658
   63SAPC  H16Y 5117   1.704   2.189   8.265 -1.3657  0.8930  1.9318
   63SAPC  C317 5118   1.686   2.025   8.411  1.0265  0.3036 -0.1854
   63SAPC  H17X 5119   1.793   2.010   8.438  1.0295 -2.1090 -1.3020
   63SAPC  H17Y 5120   1.655   1.918   8.411  1.5853  0.1314  0.6531
   63SAPC  C318 5121   1.613   2.102   8.519 -0.1152  0.6844  0.0021
   63SAPC  H18X 5122   1.504   2.093   8.501 -0.2132  1.3717  0.2331
   63SAPC  H18Y 5123   1.639   2.210   8.513 -2.5194  1.3020 -0.5130
   63SAPC  H18Z 5124   1.631   2.064   8.622  1.6817  1.2181 -0.0868
   64SAPC     N 5125   3.315   0.322   5.974 -0.4208 -0.3594 -0.0793
   64SAPC   C12 5126   3.346   0.312   6.125 -0.3541 -0.3901 -0.3973
   64SAPC  H12A 5127   3.408   0.228   6.154  0.4512  0.2270 -0.3186
   64SAPC  H12B 5128   3.246   0.305   6.165  0.3554 -3.1691  1.1822
   64SAPC   C13 5129   3.234   0.447   5.943  0.3707  0.5832  0.1232
   64SAPC  H13A 5130   3.202   0.446   5.840  0.4306  0.7160  0.1036
   64SAPC  H13B 5131   3.146   0.443   6.005  1.3174 -3.9941  1.5567
   64SAPC  H13C 5132   3.281   0.542   5.964 -0.2889  1.2534 -1.2614
   64SAPC   C14 5133   3.437   0.329   5.886 -0.0585 -0.0222  0.4599
   64SAPC  H14A 5134   3.526   0.275   5.915  0.7371  0.8560 -0.2549
   64SAPC  H14B 5135   3.417   0.293   5.786  0.3014  0.5236  0.1883
   64SAPC  H14C 5136   3.486   0.425   5.881  1.3831 -0.6057  2.2678
   64SAPC   C15 5137   3.233   0.203   5.928  0.6911 -0.7430  0.3389
   64SAPC  H15A 5138   3.273   0.110   5.965  0.3273 -0.6583  0.9612
   64SAPC  H15B 5139   3.129   0.209   5.958  0.5878  0.0840 -0.1576
   64SAPC  H15C 5140   3.238   0.194   5.820  0.6114  3.2767 -0.1486
   64SAPC   C11 5141   3.401   0.444   6.191 -0.6579  0.0734  0.1052
   64SAPC  H11A 5142   3.477   0.479   6.119 -0.0784  0.1394  0.7450
   64SAPC  H11B 5143   3.454   0.429   6.287 -1.4011 -1.5465  0.3081
   64SAPC     P 5144   3.172   0.519   6.285  0.1337  0.1984  0.1175
   64SAPC   O13 5145   3.122   0.654   6.314  0.2149  0.6805  0.5648
   64SAPC   O14 5146   3.081   0.434   6.205 -0.6373 -0.0166 -0.2727
   64SAPC   O12 5147   3.301   0.542   6.201  0.1187  0.1006 -0.0899
   64SAPC   O11 5148   3.220   0.447   6.424 -0.4434  0.0219  0.2131
   64SAPC    C1 5149   3.257   0.528   6.534 -0.0023 -0.2289  0.7730
   64SAPC    HA 5150   3.233   0.637   6.530 -1.8885 -0.6341 -0.3818
   64SAPC    HB 5151   3.210   0.492   6.628  0.8112 -0.4554  1.0936
   64SAPC    C2 5152   3.402   0.501   6.574  0.4949 -0.0681 -0.2392
   64SAPC    HS 5153   3.466   0.533   6.488 -0.1984 -1.9453 -1.5230
   64SAPC   O21 5154   3.401   0.357   6.598  0.3390 -0.1682 -0.1331
   64SAPC   C21 5155   3.512   0.294   6.631  0.1038  0.5194  0.5207
   64SAPC   O22 5156   3.628   0.344   6.629  0.8104 -0.2986  0.6785
   64SAPC   C22 5157   3.467   0.162   6.680 -0.3397 -0.4475  0.2623
   64SAPC   H2R 5158   3.370   0.164   6.733 -1.9063  2.7556 -2.3344
   64SAPC   H2S 5159   3.462   0.092   6.594  0.4290  1.2263 -1.2010
   64SAPC    C3 5160   3.440   0.584   6.695  0.3138 -0.6490 -0.6708
   64SAPC    HX 5161   3.547   0.566   6.716  0.5935 -1.0927 -2.3493
   64SAPC    HY 5162   3.389   0.544   6.785  0.2775 -1.5932 -1.1083
   64SAPC   O31 5163   3.413   0.731   6.686 -0.3970  0.5070 -0.1695
   64SAPC   C31 5164   3.437   0.800   6.799 -0.1133 -0.9284 -0.7367
   64SAPC   O32 5165   3.479   0.753   6.902  0.0480  0.0959  0.4024
   64SAPC   C32 5166   3.374   0.939   6.789  0.0744 -0.5646  0.0426
   64SAPC   H2X 5167   3.265   0.917   6.786 -0.2958  1.2366 -0.4098
   64SAPC   H2Y 5168   3.411   0.987   6.697 -0.8389  0.1490  0.0442
   64SAPC   C23 5169   3.572   0.109   6.776  0.0431 -0.7002  0.0433
   64SAPC   H3R 5170   3.606   0.182   6.853 -1.9517  1.4683 -0.9926
   64SAPC   H3S 5171   3.668   0.087   6.724  1.3848 -1.5508  2.7188
   64SAPC   C24 5172   3.508  -0.007   6.853  0.3851 -0.7221  0.4317
   64SAPC   H4R 5173   3.471  -0.078   6.776 -3.5708 -0.2100  1.6543
   64SAPC   H4S 5174   3.418   0.034   6.904  0.6303 -0.6061  0.7773
   64SAPC   C25 5175   3.609  -0.076   6.936  0.5977 -0.3722  0.0298
   64SAPC   H5R 5176   3.708  -0.074   6.888 -0.2693 -0.8478 -1.8732
   64SAPC   C26 5177   3.583  -0.122   7.062 -0.3838  0.1735  0.2988
   64SAPC   H6R 5178   3.676  -0.164   7.102 -0.8685  0.4447  1.7856
   64SAPC   C27 5179   3.462  -0.126   7.145 -0.0862 -0.1433 -0.4881
   64SAPC   H7R 5180   3.475  -0.229   7.185  0.0110 -1.0774 -2.7760
   64SAPC   H7S 5181   3.371  -0.131   7.081 -0.7113  1.8592  0.1576
   64SAPC   C28 5182   3.446  -0.010   7.248 -0.4720  0.2332 -0.4378
   64SAPC   H8R 5183   3.420   0.087   7.203 -0.5009  0.9115  0.9740
   64SAPC   C29 5184   3.450  -0.021   7.387  0.0721  0.0983 -0.0320
   64SAPC   H9R 5185   3.449   0.074   7.442  1.1280  1.3295 -2.0385
   64SAPC  C210 5186   3.479  -0.147   7.471  0.4088  0.1813 -0.0879
   64SAPC  H10R 5187   3.421  -0.217   7.407  2.8283 -0.0163 -2.2502
   64SAPC  H10S 5188   3.425  -0.146   7.568 -1.1149 -0.3089 -0.8858
   64SAPC  C211 5189   3.624  -0.189   7.493 -0.8549  1.0271 -0.7719
   64SAPC  H11R 5190   3.697  -0.178   7.411  1.9249 -1.3052  1.1591
   64SAPC  C212 5191   3.675  -0.253   7.601 -0.3557 -0.1277  0.1844
   64SAPC  H12R 5192   3.783  -0.271   7.608 -0.3906 -1.5425 -1.9689
   64SAPC  C213 5193   3.598  -0.298   7.723 -0.2874  0.3350 -0.1089
   64SAPC  H13R 5194   3.646  -0.397   7.737  2.5922  1.5140 -0.8864
   64SAPC  H13S 5195   3.490  -0.301   7.698 -0.3805  1.3166  0.1255
   64SAPC  C214 5196   3.622  -0.205   7.839  0.1436 -0.3166  0.3213
   64SAPC  H14R 5197   3.624  -0.096   7.823  2.1329 -0.1302  1.5547
   64SAPC  C215 5198   3.664  -0.248   7.959  0.9488  0.4130 -0.4352
   64SAPC  H15R 5199   3.673  -0.178   8.043  0.6702 -0.3168  0.2121
   64SAPC  C216 5200   3.686  -0.389   7.987 -0.5653  0.5189 -0.1319
   64SAPC  H16R 5201   3.755  -0.435   7.913  0.3239 -1.8483  2.0125
   64SAPC  H16S 5202   3.595  -0.453   7.983  1.4968 -3.0177  2.9349
   64SAPC  C217 5203   3.761  -0.417   8.120 -0.0390  0.9079 -0.5661
   64SAPC  H17R 5204   3.751  -0.526   8.138  3.0802  0.3395 -1.6419
   64SAPC  H17S 5205   3.721  -0.364   8.209 -0.6962  0.0181 -0.3102
   64SAPC  C218 5206   3.911  -0.392   8.112  0.6674 -0.0777 -0.1826
   64SAPC  H18R 5207   3.935  -0.283   8.103 -0.6844  0.4000  1.6211
   64SAPC  H18S 5208   3.932  -0.437   8.012 -0.8299 -0.6080 -0.2699
   64SAPC  C219 5209   3.996  -0.455   8.228  0.3931 -0.5713  0.5753
   64SAPC  H19R 5210   4.101  -0.439   8.195 -0.5594 -0.1303 -2.6608
   64SAPC  H19S 5211   3.979  -0.564   8.232 -1.1890 -0.3431  1.1163
   64SAPC  C220 5212   3.972  -0.398   8.359  0.3593  0.6134 -0.2124
   64SAPC  H20R 5213   3.867  -0.405   8.395 -0.0270 -4.5022 -1.5123
   64SAPC  H20S 5214   3.998  -0.290   8.354  1.2642  0.3648 -1.2232
   64SAPC  H20T 5215   4.034  -0.450   8.435  0.8707  0.5051 -0.7013
   64SAPC   C33 5216   3.413   1.026   6.912  0.2846 -0.4411 -0.2392
   64SAPC   H3X 5217   3.396   1.133   6.888 -0.1880  0.2061  2.6234
   64SAPC   H3Y 5218   3.522   1.016   6.935  1.3286  2.2998 -3.1801
   64SAPC   C34 5219   3.327   1.002   7.040 -0.2078  0.5635  0.4327
   64SAPC   H4X 5220   3.318   0.891   7.052 -0.5588  0.3039 -1.7673
   64SAPC   H4Y 5221   3.224   1.041   7.024 -1.6541 -1.0404  4.5387
   64SAPC   C35 5222   3.382   1.056   7.173 -0.0350 -0.0393 -0.3639
   64SAPC   H5X 5223   3.399   1.165   7.185 -1.0742 -0.0776  2.0120
   64SAPC   H5Y 5224   3.481   1.010   7.192  0.1179  0.1136 -0.7787
   64SAPC   C36 5225   3.293   1.006   7.291  0.0065  0.1151  0.0644
   64SAPC   H6X 5226   3.293   0.895   7.281  1.2736  0.0291  0.7415
   64SAPC   H6Y 5227   3.190   1.044   7.279  0.8778  2.2155 -1.1479
   64SAPC   C37 5228   3.335   1.047   7.429 -0.0588 -0.3898 -0.2920
   64SAPC   H7X 5229   3.327   1.158   7.428  2.9849 -0.0746  0.5406
   64SAPC   H7Y 5230   3.442   1.022   7.441 -0.2020 -2.0819 -2.0938
   64SAPC   C38 5231   3.248   0.985   7.550  0.3470 -0.9949  0.0714
   64SAPC   H8X 5232   3.226   0.877   7.535 -3.0019 -0.4301  0.1578
   64SAPC   H8Y 5233   3.142   1.020   7.557  0.2470 -1.0748 -0.9286
   64SAPC   C39 5234   3.311   1.016   7.694  0.2838 -0.0955 -0.4402
   64SAPC   H9X 5235   3.316   1.127   7.694  0.5266 -0.0883  1.1363
   64SAPC   H9Y 5236   3.412   0.972   7.713 -0.1221  0.2915  3.2301
   64SAPC  C310 5237   3.209   0.974   7.800 -0.1550 -0.3125  0.4420
   64SAPC  H10X 5238   3.185   0.868   7.779  0.3812 -0.5616  1.0351
   64SAPC  H10Y 5239   3.117   1.037   7.803 -0.5304 -0.8396  0.2481
   64SAPC  C311 5240   3.275   0.980   7.933  0.2576 -0.4277  0.8495
   64SAPC  H11X 5241   3.309   1.085   7.948 -0.3998 -0.1793  0.6670
   64SAPC  H11Y 5242   3.361   0.910   7.933  2.1558  1.7795  1.5555
   64SAPC  C312 5243   3.181   0.940   8.052  0.0003 -0.4759  0.8992
   64SAPC  H12X 5244   3.135   0.842   8.024 -0.5016 -0.4576  1.6484
   64SAPC  H12Y 5245   3.095   1.010   8.063  0.0235 -0.1017 -0.9638
   64SAPC  C313 5246   3.255   0.924   8.184 -0.1669 -0.4527 -0.5467
   64SAPC  H13X 5247   3.268   1.027   8.224  2.2856 -1.2587  0.8859
   64SAPC  H13Y 5248   3.343   0.860   8.163 -1.4355 -2.2043 -0.7845
   64SAPC  C314 5249   3.170   0.842   8.288  0.0446 -1.4611 -0.1399
   64SAPC  H14X 5250   3.224   0.807   8.378 -2.5039 -0.8411  1.7349
   64SAPC  H14Y 5251   3.134   0.757   8.226 -0.7067  1.6375 -4.4516
   64SAPC  C315 5252   3.039   0.912   8.337 -0.2141  0.6310 -0.4696
   64SAPC  H15X 5253   2.987   0.845   8.409  2.2668 -1.0069 -0.1109
   64SAPC  H15Y 5254   2.972   0.923   8.249  0.3487  0.0618 -0.9716
   64SAPC  C316 5255   3.051   1.046   8.408 -0.8673  0.1147 -0.0279
   64SAPC  H16X 5256   2.945   1.070   8.431 -1.4019 -2.3936  0.4534
   64SAPC  H16Y 5257   3.091   1.114   8.330  0.1846 -0.8948 -0.3804
   64SAPC  C317 5258   3.125   1.059   8.541 -0.3031 -0.5450 -0.0055
   64SAPC  H17X 5259   3.230   1.025   8.524 -1.0809 -2.3478 -1.5803
   64SAPC  H17Y 5260   3.081   0.997   8.622  0.1341 -0.9103 -0.0385
   64SAPC  C318 5261   3.134   1.199   8.604 -0.3359  0.7333 -0.4365
   64SAPC  H18X 5262   3.207   1.261   8.547  1.7600 -0.6586  0.6187
   64SAPC  H18Y 5263   3.174   1.181   8.705 -0.0309  0.2890 -0.6376
   64SAPC  H18Z 5264   3.029   1.237   8.605  0.3424  2.7782 -1.3238
   65SAPC     N 5265   3.736   4.127   6.282 -0.1108  0.5059 -0.5538
   65SAPC   C12 5266   3.751   4.035   6.406 -0.4453 -0.6645  0.6182
   65SAPC  H12A 5267   3.768   4.103   6.488  0.0647 -0.1559  0.0980
   65SAPC  H12B 5268   3.845   3.984   6.394  0.1230  0.0392  1.8220
   65SAPC   C13 5269   3.727   4.041   6.159  0.3823  0.2623  0.8493
   65SAPC  H13A 5270   3.670   3.951   6.175 -0.7983  0.6288 -0.8823
   65SAPC  H13B 5271   3.671   4.096   6.084 -1.9640 -0.1712  2.1699
   65SAPC  H13C 5272   3.824   4.012   6.123  1.0959  2.2844  1.0001
   65SAPC   C14 5273   3.612   4.207   6.285  0.0427 -0.0906 -1.0657
   65SAPC  H14A 5274   3.614   4.250   6.186 -2.0307 -2.0139 -2.0328
   65SAPC  H14B 5275   3.519   4.152   6.291 -0.2297  0.4513 -0.0812
   65SAPC  H14C 5276   3.622   4.281   6.363  2.5381 -0.9763 -0.4595
   65SAPC   C15 5277   3.854   4.219   6.275 -0.6091  0.6471 -0.0671
   65SAPC  H15A 5278   3.850   4.279   6.185 -0.0064  0.5657 -0.1559
   65SAPC  H15B 5279   3.858   4.285   6.360 -0.2622 -1.1815  1.3979
   65SAPC  H15C 5280   3.943   4.159   6.287 -0.7871  0.2998 -0.4774
   65SAPC   C11 5281   3.644   3.936   6.441 -0.3011  1.0295 -0.2002
   65SAPC  H11A 5282   3.548   3.988   6.462 -1.0035 -0.8075  1.3930
   65SAPC  H11B 5283   3.671   3.882   6.534  0.0228  2.2231  0.4178
   65SAPC     P 5284   3.675   3.701   6.346  0.0813  0.3966 -0.5079
   65SAPC   O13 5285   3.639   3.626   6.228  0.3353 -0.5467 -0.1692
   65SAPC   O14 5286   3.822   3.708   6.379  0.2459 -0.4022  0.0909
   65SAPC   O12 5287   3.616   3.841   6.336 -0.5014 -0.2703  0.2071
   65SAPC   O11 5288   3.609   3.622   6.464  0.6745  0.0206 -0.5108
   65SAPC    C1 5289   3.478   3.656   6.505 -0.4155 -0.3648  0.2517
   65SAPC    HA 5290   3.470   3.761   6.540  1.2747  0.4174 -1.5600
   65SAPC    HB 5291   3.400   3.634   6.429 -1.5692  0.3103  1.1901
   65SAPC    C2 5292   3.433   3.564   6.628 -0.3609  0.0553 -0.5806
   65SAPC    HS 5293   3.336   3.609   6.661 -0.1812 -0.1093  0.1783
   65SAPC   O21 5294   3.529   3.580   6.739  0.4834  0.2207  0.4761
   65SAPC   C21 5295   3.523   3.692   6.812 -0.0788  0.2476 -0.2875
   65SAPC   O22 5296   3.473   3.796   6.774 -0.4228  0.2066 -0.0767
   65SAPC   C22 5297   3.592   3.685   6.942 -0.1954  0.5019 -0.4362
   65SAPC   H2R 5298   3.644   3.588   6.952 -0.7696 -0.1152 -2.8803
   65SAPC   H2S 5299   3.668   3.765   6.958 -1.9666  1.6688  3.7241
   65SAPC    C3 5300   3.430   3.417   6.595  0.6494 -0.0154 -0.1872
   65SAPC    HX 5301   3.531   3.375   6.578 -0.1950 -2.0226 -0.5375
   65SAPC    HY 5302   3.374   3.399   6.501  2.0375  0.2166 -1.0775
   65SAPC   O31 5303   3.359   3.351   6.707  0.2477 -0.0973  0.3581
   65SAPC   C31 5304   3.225   3.348   6.698 -0.3984 -0.3571 -0.3945
   65SAPC   O32 5305   3.154   3.394   6.611 -0.8974  0.3867  0.1403
   65SAPC   C32 5306   3.185   3.278   6.825  0.0236  0.2411 -0.0104
   65SAPC   H2X 5307   3.251   3.317   6.905  2.5515 -0.1817 -1.7576
   65SAPC   H2Y 5308   3.210   3.169   6.817  3.0597  0.7649  0.8200
   65SAPC   C23 5309   3.502   3.699   7.066  0.2930 -0.0440 -0.3534
   65SAPC   H3R 5310   3.425   3.778   7.064  0.6974  0.3878  0.7551
   65SAPC   H3S 5311   3.577   3.711   7.147 -1.1569 -2.6771  1.5308
   65SAPC   C24 5312   3.443   3.558   7.093 -0.4176 -0.2645 -0.1434
   65SAPC   H4R 5313   3.523   3.481   7.101 -1.5175 -1.5391 -1.0769
   65SAPC   H4S 5314   3.383   3.520   7.008  2.2509 -0.9224 -1.8501
   65SAPC   C25 5315   3.354   3.539   7.216 -0.6241 -0.4035  0.4026
   65SAPC   H5R 5316   3.246   3.545   7.193 -0.3107 -1.1280 -1.4228
   65SAPC   C26 5317   3.387   3.525   7.343 -1.4263 -0.3534 -0.4386
   65SAPC   H6R 5318   3.312   3.509   7.422  1.3771 -0.0631  2.4640
   65SAPC   C27 5319   3.532   3.518   7.387 -0.4734  0.4155 -0.4994
   65SAPC   H7R 5320   3.555   3.611   7.444  0.5476  0.1165 -0.4095
   65SAPC   H7S 5321   3.603   3.522   7.302 -0.7473  0.2989 -0.7347
   65SAPC   C28 5322   3.545   3.386   7.449 -0.4331 -0.7962 -0.1889
   65SAPC   H8R 5323   3.577   3.308   7.379 -2.8170 -0.5100 -1.6887
   65SAPC   C29 5324   3.528   3.353   7.583  0.8324  0.4117  0.6875
   65SAPC   H9R 5325   3.548   3.252   7.619  1.3199  1.1142  2.4949
   65SAPC  C210 5326   3.493   3.454   7.681 -0.5566 -0.1321  0.4070
   65SAPC  H10R 5327   3.484   3.556   7.640 -0.4265  0.6699  2.2690
   65SAPC  H10S 5328   3.583   3.454   7.747  0.8094 -1.5107 -1.3430
   65SAPC  C211 5329   3.379   3.425   7.774 -0.4240  0.4675 -0.4242
   65SAPC  H11R 5330   3.279   3.426   7.730 -1.0820  0.4944  1.0134
   65SAPC  C212 5331   3.390   3.402   7.904 -0.1221  0.5800  0.1509
   65SAPC  H12R 5332   3.300   3.386   7.964 -0.2994 -0.9882 -0.4719
   65SAPC  C213 5333   3.521   3.408   7.984 -0.6617 -0.1795  0.3472
   65SAPC  H13R 5334   3.529   3.511   8.026 -1.6333  0.0085  0.0963
   65SAPC  H13S 5335   3.619   3.389   7.934 -0.3415 -1.8546  1.5514
   65SAPC  C214 5336   3.517   3.315   8.093 -0.0717 -0.2277 -0.3786
   65SAPC  H14R 5337   3.558   3.219   8.061  0.9064  0.8200 -2.4619
   65SAPC  C215 5338   3.477   3.335   8.223 -0.4365  0.3707 -0.1872
   65SAPC  H15R 5339   3.480   3.254   8.297 -0.9036  2.4472  2.2213
   65SAPC  C216 5340   3.415   3.467   8.271 -0.7310 -0.2400 -0.1366
   65SAPC  H16R 5341   3.413   3.547   8.193  0.1157  0.6711  0.7462
   65SAPC  H16S 5342   3.490   3.507   8.342  1.1674  0.0996 -2.2084
   65SAPC  C217 5343   3.283   3.460   8.339  0.9321 -0.2688  0.1688
   65SAPC  H17R 5344   3.208   3.396   8.289  0.3389  0.8421 -0.3912
   65SAPC  H17S 5345   3.239   3.561   8.350  0.5368  0.0378 -3.1756
   65SAPC  C218 5346   3.289   3.391   8.480 -0.1738  0.3417  0.5103
   65SAPC  H18R 5347   3.320   3.462   8.560 -2.4169  0.0855  1.6733
   65SAPC  H18S 5348   3.341   3.293   8.473 -1.3307 -0.1658 -1.8505
   65SAPC  C219 5349   3.146   3.360   8.530 -0.0710  0.3351 -0.0990
   65SAPC  H19R 5350   3.100   3.278   8.470  1.5319 -2.6993  2.4835
   65SAPC  H19S 5351   3.084   3.451   8.517  0.8089  1.1327  1.0366
   65SAPC  C220 5352   3.125   3.311   8.674 -0.2600  0.4059 -0.9250
   65SAPC  H20R 5353   3.199   3.355   8.744  1.1056 -1.0531 -1.4196
   65SAPC  H20S 5354   3.134   3.201   8.682 -2.7682  0.2041  0.2855
   65SAPC  H20T 5355   3.023   3.344   8.705 -0.5117  1.8855 -3.0952
   65SAPC   C33 5356   3.036   3.302   6.861 -0.2655 -0.2821 -0.0672
   65SAPC   H3X 5357   2.974   3.257   6.781  0.4810 -1.6523  0.0833
   65SAPC   H3Y 5358   3.017   3.411   6.869 -1.5493 -0.4904 -0.0773
   65SAPC   C34 5359   2.999   3.244   7.000  0.6290 -0.0353 -0.0011
   65SAPC   H4X 5360   3.010   3.134   7.002  2.5538  0.1225  1.3600
   65SAPC   H4Y 5361   2.892   3.271   7.008  0.7881  1.2602 -1.6342
   65SAPC   C35 5362   3.090   3.300   7.115  0.0466  0.7622  0.2693
   65SAPC   H5X 5363   3.152   3.382   7.073  0.7962 -0.4001 -0.9582
   65SAPC   H5Y 5364   3.163   3.219   7.135  0.3994  0.1576 -3.0076
   65SAPC   C36 5365   3.023   3.343   7.244 -0.4874  0.6043 -0.0194
   65SAPC   H6X 5366   2.942   3.408   7.205 -0.7596 -0.7393 -1.8163
   65SAPC   H6Y 5367   3.089   3.404   7.310  2.2749 -2.0577 -0.0909
   65SAPC   C37 5368   2.962   3.230   7.319 -0.4019 -0.6328  0.4418
   65SAPC   H7X 5369   2.925   3.164   7.238 -0.6605 -1.2319  1.0355
   65SAPC   H7Y 5370   2.871   3.255   7.378 -0.3518  0.7553 -0.0263
   65SAPC   C38 5371   3.066   3.164   7.404  0.2488  0.2164 -0.5625
   65SAPC   H8X 5372   3.162   3.155   7.348 -0.2747 -0.9755 -1.3138
   65SAPC   H8Y 5373   3.040   3.057   7.419  2.4367 -0.5921 -1.9518
   65SAPC   C39 5374   3.083   3.235   7.538  0.6445 -0.6628 -0.8953
   65SAPC   H9X 5375   3.075   3.346   7.539 -0.3265 -0.7283 -0.3557
   65SAPC   H9Y 5376   3.186   3.213   7.573  0.6192  0.2017 -0.2445
   65SAPC  C310 5377   2.978   3.201   7.646 -0.7199 -0.1659  0.1161
   65SAPC  H10X 5378   2.977   3.091   7.663  1.6225 -0.4464 -1.0920
   65SAPC  H10Y 5379   2.881   3.226   7.598  0.9971 -1.3771 -4.4890
   65SAPC  C311 5380   3.000   3.271   7.781  0.3594  0.4847  0.0630
   65SAPC  H11X 5381   2.996   3.381   7.771 -0.7267  0.3358 -1.5272
   65SAPC  H11Y 5382   3.103   3.252   7.818  0.5980 -0.3875 -0.9860
   65SAPC  C312 5383   2.907   3.212   7.891  0.1138 -0.5199  0.6778
   65SAPC  H12X 5384   2.924   3.103   7.903 -1.7282 -0.9732 -0.4872
   65SAPC  H12Y 5385   2.803   3.212   7.854  0.8013 -0.2874 -1.3962
   65SAPC  C313 5386   2.923   3.282   8.023 -0.1494 -0.6176 -0.0144
   65SAPC  H13X 5387   2.935   3.392   8.012  1.2122 -0.4528  2.4185
   65SAPC  H13Y 5388   3.018   3.246   8.067  0.3183  1.1760  0.5263
   65SAPC  C314 5389   2.822   3.228   8.127  0.1642  0.0218 -0.6179
   65SAPC  H14X 5390   2.834   3.118   8.138  1.7387  0.3459  1.7021
   65SAPC  H14Y 5391   2.723   3.237   8.078  0.1931 -1.6450 -1.0482
   65SAPC  C315 5392   2.829   3.272   8.278  0.0554 -0.2045 -0.2075
   65SAPC  H15X 5393   2.839   3.382   8.282 -1.6646 -0.0594  1.6476
   65SAPC  H15Y 5394   2.922   3.230   8.322 -1.5152 -1.0109  2.6121
   65SAPC  C316 5395   2.701   3.230   8.355 -0.3260 -0.1993 -0.3157
   65SAPC  H16X 5396   2.687   3.120   8.353  1.0870 -0.3789 -1.3138
   65SAPC  H16Y 5397   2.615   3.278   8.303 -0.5217 -0.9907 -0.7413
   65SAPC  C317 5398   2.688   3.276   8.503  0.3966  0.8371 -0.4254
   65SAPC  H17X 5399   2.755   3.204   8.555 -1.6882 -1.5737 -0.9220
   65SAPC  H17Y 5400   2.584   3.261   8.536 -0.0014  2.3508 -0.9143
   65SAPC  C318 5401   2.731   3.425   8.533  0.2196  0.7200 -0.6943
   65SAPC  H18X 5402   2.727   3.439   8.644 -0.7264  0.4125 -0.6888
   65SAPC  H18Y 5403   2.653   3.489   8.487 -1.8167 -2.4952 -2.0587
   65SAPC  H18Z 5404   2.836   3.443   8.500  1.6645 -0.1304  2.9001
   66SAPC     N 5405   0.027   3.534   6.267  0.2888  0.7897 -0.4111
   66SAPC   C12 5406   0.163   3.470   6.283 -0.0258  0.0917  0.4670
   66SAPC  H12A 5407   0.219   3.503   6.369 -1.3932 -0.7255  1.7136
   66SAPC  H12B 5408   0.228   3.495   6.200  0.3079  0.4815  0.8467
   66SAPC   C13 5409  -0.034   3.544   6.405 -0.1866 -0.1535 -0.2134
   66SAPC  H13A 5410  -0.127   3.598   6.403  1.0240  2.0421  0.3261
   66SAPC  H13B 5411  -0.044   3.450   6.459 -2.5167 -1.7713 -3.1383
   66SAPC  H13C 5412   0.030   3.602   6.469 -1.8051  0.7227  0.6697
   66SAPC   C14 5413   0.032   3.669   6.227  0.5283 -0.3927 -0.0380
   66SAPC  H14A 5414  -0.067   3.711   6.232  1.0153  0.7985  0.0090
   66SAPC  H14B 5415   0.101   3.724   6.289  1.4284 -1.9556  0.4059
   66SAPC  H14C 5416   0.061   3.675   6.123  1.7241 -0.4437  0.2704
   66SAPC   C15 5417  -0.074   3.453   6.191 -0.3299  0.1274 -0.0137
   66SAPC  H15A 5418  -0.172   3.499   6.184 -0.4041 -0.0503 -0.1669
   66SAPC  H15B 5419  -0.038   3.443   6.089 -0.3528  2.3969 -0.2995
   66SAPC  H15C 5420  -0.079   3.352   6.228  0.4571 -0.1748 -0.6870
   66SAPC   C11 5421   0.158   3.309   6.297 -0.7450  0.0716 -0.0399
   66SAPC  H11A 5422   0.072   3.287   6.364  1.1509 -2.0356  1.8511
   66SAPC  H11B 5423   0.250   3.274   6.348  0.1101  0.2770 -1.3764
   66SAPC     P 5424   0.172   3.095   6.152 -0.1743 -0.3201 -0.3531
   66SAPC   O13 5425   0.044   3.023   6.173 -0.2654  0.6294 -0.5054
   66SAPC   O14 5426   0.230   3.078   6.015  0.1843  0.1357 -0.5247
   66SAPC   O12 5427   0.142   3.249   6.171  0.0872 -0.5227 -0.1625
   66SAPC   O11 5428   0.281   3.062   6.262 -0.2010 -0.5015 -0.1097
   66SAPC    C1 5429   0.326   2.929   6.261  0.6347 -0.0330  0.1958
   66SAPC    HA 5430   0.361   2.882   6.167  1.6533 -0.7720  0.9211
   66SAPC    HB 5431   0.420   2.928   6.320  1.2510  0.9335 -0.7359
   66SAPC    C2 5432   0.224   2.834   6.331  0.2933 -0.0133 -0.2355
   66SAPC    HS 5433   0.158   2.814   6.243  1.6200  0.6602 -1.4182
   66SAPC   O21 5434   0.159   2.908   6.436  0.2285 -0.4227  0.0701
   66SAPC   C21 5435   0.049   2.856   6.478 -0.0482 -0.1458 -0.2624
   66SAPC   O22 5436  -0.022   2.768   6.427  0.1781 -1.0665 -0.7194
   66SAPC   C22 5437   0.013   2.926   6.611 -0.1275  0.6925 -0.6253
   66SAPC   H2R 5438   0.085   3.010   6.616  1.4596 -0.6848  0.8560
   66SAPC   H2S 5439  -0.090   2.968   6.606 -0.8449 -0.7514  1.0351
   66SAPC    C3 5440   0.288   2.703   6.371  0.2718 -0.7799 -0.8049
   66SAPC    HX 5441   0.338   2.661   6.280 -1.1352 -2.8955 -0.6723
   66SAPC    HY 5442   0.203   2.633   6.385 -0.1646 -0.1213 -0.1298
   66SAPC   O31 5443   0.376   2.715   6.481 -0.0029 -0.3796 -0.1088
   66SAPC   C31 5444   0.454   2.623   6.510 -0.0854 -0.5929  0.4403
   66SAPC   O32 5445   0.472   2.510   6.471 -0.0056  0.5837 -0.6906
   66SAPC   C32 5446   0.560   2.694   6.607  0.2082 -0.1821  0.0088
   66SAPC   H2X 5447   0.502   2.732   6.693  1.4291  1.6729  0.0603
   66SAPC   H2Y 5448   0.609   2.781   6.559  1.7995 -0.4179  1.1473
   66SAPC   C23 5449   0.022   2.830   6.734 -0.2309  0.9423 -0.0493
   66SAPC   H3R 5450  -0.038   2.738   6.716 -0.5612  0.9306  1.0304
   66SAPC   H3S 5451  -0.012   2.882   6.826  0.9950  1.3012  0.2141
   66SAPC   C24 5452   0.164   2.784   6.754  0.2671  0.5542 -0.5835
   66SAPC   H4R 5453   0.186   2.729   6.660 -2.0815 -0.2498 -0.7107
   66SAPC   H4S 5454   0.165   2.710   6.837  3.6044 -0.1827 -1.1107
   66SAPC   C25 5455   0.258   2.903   6.772  0.5732 -0.0812 -1.5446
   66SAPC   H5R 5456   0.270   2.970   6.685  0.1344 -0.5407 -1.9677
   66SAPC   C26 5457   0.331   2.925   6.884 -0.3978  0.5966 -0.2862
   66SAPC   H6R 5458   0.395   3.015   6.885  2.2052 -1.1301 -1.6810
   66SAPC   C27 5459   0.344   2.834   7.003 -0.4169  0.9112  0.3135
   66SAPC   H7R 5460   0.288   2.739   6.991 -0.8032  1.0299  1.1684
   66SAPC   H7S 5461   0.291   2.883   7.087  0.7064 -0.6592  1.9842
   66SAPC   C28 5462   0.489   2.802   7.019  0.3742 -0.2041  0.5604
   66SAPC   H8R 5463   0.542   2.781   6.925 -1.9713  2.8457 -1.6367
   66SAPC   C29 5464   0.561   2.821   7.128 -0.2182 -0.3285  0.4266
   66SAPC   H9R 5465   0.668   2.793   7.126 -0.1683 -0.8357  3.5853
   66SAPC  C210 5466   0.515   2.871   7.265 -0.0775 -0.5807 -0.3908
   66SAPC  H10R 5467   0.405   2.872   7.283 -0.0858  1.6566 -0.3284
   66SAPC  H10S 5468   0.548   2.976   7.277  1.6255 -1.1563  0.2734
   66SAPC  C211 5469   0.577   2.788   7.377  0.8668  0.0721  0.5266
   66SAPC  H11R 5470   0.634   2.699   7.345 -0.3784 -0.7588  0.5243
   66SAPC  C212 5471   0.585   2.821   7.508 -0.0338 -0.8752  0.4050
   66SAPC  H12R 5472   0.619   2.748   7.584 -1.6666  0.6930  2.7714
   66SAPC  C213 5473   0.534   2.942   7.575  0.2108  0.9311  0.3071
   66SAPC  H13R 5474   0.503   3.015   7.496  0.1396  1.0620  0.4564
   66SAPC  H13S 5475   0.616   2.983   7.638  0.0107  1.8718 -0.0266
   66SAPC  C214 5476   0.417   2.901   7.663 -0.3036  0.3349 -0.7554
   66SAPC  H14R 5477   0.318   2.902   7.614 -0.0611  0.0742 -1.2636
   66SAPC  C215 5478   0.426   2.866   7.792  0.1996  0.2977 -0.5693
   66SAPC  H15R 5479   0.331   2.848   7.846  0.0716 -1.5169 -1.3060
   66SAPC  C216 5480   0.543   2.854   7.887  0.1643  0.4975  0.4921
   66SAPC  H16R 5481   0.641   2.860   7.834 -0.6088  1.3777 -0.8897
   66SAPC  H16S 5482   0.543   2.753   7.933  1.8894  0.5627  0.7289
   66SAPC  C217 5483   0.537   2.966   7.993  0.1781 -0.3869  0.3930
   66SAPC  H17R 5484   0.450   2.956   8.061  0.6469  0.3423  1.1174
   66SAPC  H17S 5485   0.540   3.060   7.934 -1.3510 -0.7003 -0.2333
   66SAPC  C218 5486   0.662   2.956   8.084  0.4857 -0.3719 -0.0955
   66SAPC  H18R 5487   0.752   2.963   8.019  0.3844 -1.0436 -0.3222
   66SAPC  H18S 5488   0.671   2.858   8.134  1.5614 -0.5168 -0.5352
   66SAPC  C219 5489   0.660   3.060   8.190  0.2080  0.2463  0.5132
   66SAPC  H19R 5490   0.761   3.049   8.235 -0.0999  0.9404  1.4075
   66SAPC  H19S 5491   0.579   3.041   8.264 -0.6079 -0.6948 -0.5904
   66SAPC  C220 5492   0.660   3.204   8.132 -0.0789 -0.1711  0.1143
   66SAPC  H20R 5493   0.742   3.215   8.059  0.3671 -0.9923  0.4750
   66SAPC  H20S 5494   0.688   3.278   8.209  0.5576  0.8214 -1.0371
   66SAPC  H20T 5495   0.561   3.213   8.082 -0.7098 -1.4395  1.0676
   66SAPC   C33 5496   0.661   2.588   6.660  0.0172 -0.7029 -0.1851
   66SAPC   H3X 5497   0.696   2.512   6.587  0.1376 -1.6578  0.8464
   66SAPC   H3Y 5498   0.629   2.523   6.744 -2.1631  0.2822 -0.1795
   66SAPC   C34 5499   0.795   2.657   6.694 -0.4555  0.2572  0.5472
   66SAPC   H4X 5500   0.768   2.753   6.743  1.3535  2.6723 -2.7688
   66SAPC   H4Y 5501   0.844   2.674   6.596 -1.4162  0.2809  0.0603
   66SAPC   C35 5502   0.882   2.578   6.795 -0.1582  0.2371  0.4939
   66SAPC   H5X 5503   0.978   2.634   6.788 -1.0935  1.8473 -0.0973
   66SAPC   H5Y 5504   0.893   2.472   6.766 -1.0568  0.2769 -0.0358
   66SAPC   C36 5505   0.822   2.585   6.939  0.3154 -0.4717 -0.0225
   66SAPC   H6X 5506   0.717   2.549   6.940 -0.2473  1.0778  0.2132
   66SAPC   H6Y 5507   0.819   2.691   6.972  0.0384 -0.4165 -0.2114
   66SAPC   C37 5508   0.906   2.504   7.047 -0.2802  0.1836  0.1908
   66SAPC   H7X 5509   1.012   2.537   7.038  0.1406 -1.1909 -0.1386
   66SAPC   H7Y 5510   0.906   2.398   7.013 -0.1341  0.2940 -0.1628
   66SAPC   C38 5511   0.839   2.506   7.184 -0.1726 -0.6860  0.0030
   66SAPC   H8X 5512   0.761   2.428   7.189  0.7690 -1.6213  0.4622
   66SAPC   H8Y 5513   0.780   2.598   7.207 -0.5640 -1.0404  0.4326
   66SAPC   C39 5514   0.935   2.492   7.305 -0.2717  0.3520  0.0680
   66SAPC   H9X 5515   1.024   2.556   7.288 -0.4413  0.2264 -1.3742
   66SAPC   H9Y 5516   0.974   2.389   7.321 -2.6304 -0.5180  0.6597
   66SAPC  C310 5517   0.877   2.538   7.438  0.4888  0.4338 -0.1867
   66SAPC  H10X 5518   0.787   2.478   7.464  0.0739  1.6080  1.2256
   66SAPC  H10Y 5519   0.856   2.646   7.424  2.6377  1.1933  1.7803
   66SAPC  C311 5520   0.974   2.511   7.550 -0.3287  0.9669  0.0081
   66SAPC  H11X 5521   1.067   2.564   7.519  0.0234  0.7458  0.6645
   66SAPC  H11Y 5522   0.994   2.404   7.577 -1.1111  0.8305  0.0636
   66SAPC  C312 5523   0.929   2.585   7.678 -0.3441 -0.6033 -0.5715
   66SAPC  H12X 5524   0.838   2.529   7.708 -1.2845 -0.8384 -3.5417
   66SAPC  H12Y 5525   0.904   2.692   7.661  0.1107 -0.3569  0.2599
   66SAPC  C313 5526   1.034   2.600   7.785  0.1045  0.7294 -0.0410
   66SAPC  H13X 5527   1.118   2.667   7.758  2.2208 -0.5844  2.6721
   66SAPC  H13Y 5528   1.071   2.498   7.811 -4.7635 -2.0761 -2.5813
   66SAPC  C314 5529   0.973   2.665   7.917  0.4541  0.1336  0.2120
   66SAPC  H14X 5530   0.906   2.592   7.967  0.0067 -0.3362 -1.0551
   66SAPC  H14Y 5531   0.908   2.750   7.885  2.1462  0.4878 -2.5611
   66SAPC  C315 5532   1.077   2.721   8.010  0.1296  0.2208  0.3843
   66SAPC  H15X 5533   1.124   2.800   7.947  1.4247 -1.1214 -0.3971
   66SAPC  H15Y 5534   1.158   2.647   8.029 -0.8804 -1.0154  0.0016
   66SAPC  C316 5535   1.014   2.768   8.144  0.6161  0.0856  0.2518
   66SAPC  H16X 5536   0.977   2.685   8.209  3.4469 -2.1135 -0.7626
   66SAPC  H16Y 5537   0.922   2.823   8.113 -0.4478 -2.4605 -1.4707
   66SAPC  C317 5538   1.109   2.855   8.224 -0.5344  0.4800 -0.0431
   66SAPC  H17X 5539   1.140   2.945   8.166 -1.5464  0.5488 -0.4998
   66SAPC  H17Y 5540   1.195   2.790   8.249 -1.7852 -1.6355 -0.9812
   66SAPC  C318 5541   1.033   2.905   8.352 -0.3150 -0.0727  0.7527
   66SAPC  H18X 5542   1.014   2.814   8.413  0.9975 -2.1087 -1.6433
   66SAPC  H18Y 5543   0.934   2.942   8.317  0.8610  0.1420 -2.7326
   66SAPC  H18Z 5544   1.104   2.981   8.390  0.4529  0.5062 -1.6300
   67SAPC     N 5545   3.892   5.141   6.520  0.4442 -0.2006  0.6596
   67SAPC   C12 5546   3.770   5.112   6.596  0.1738  0.1389  0.2617
   67SAPC  H12A 5547   3.793   5.135   6.699 -0.0969  1.4167  0.0569
   67SAPC  H12B 5548   3.752   5.006   6.596  1.1332 -0.0852 -2.0268
   67SAPC   C13 5549   3.929   5.277   6.533 -0.5813  0.0480 -0.1464
   67SAPC  H13A 5550   4.006   5.299   6.461 -2.1239  0.4967 -1.7216
   67SAPC  H13B 5551   3.845   5.339   6.506 -0.9612 -1.1870 -1.9261
   67SAPC  H13C 5552   3.970   5.296   6.632 -2.5640 -2.4287  1.2483
   67SAPC   C14 5553   4.002   5.053   6.580 -0.1979  0.1568  0.0321
   67SAPC  H14A 5554   3.971   4.951   6.602 -0.1905  0.6446  2.6229
   67SAPC  H14B 5555   4.088   5.046   6.515  0.5342 -0.1076  1.0126
   67SAPC  H14C 5556   4.054   5.094   6.664  3.2497 -0.4917 -1.5944
   67SAPC   C15 5557   3.882   5.111   6.378  0.0799  0.3124 -0.3148
   67SAPC  H15A 5558   3.801   5.168   6.334 -0.5938  1.3503  2.1205
   67SAPC  H15B 5559   3.981   5.118   6.337  0.7125 -0.8274  0.9391
   67SAPC  H15C 5560   3.860   5.005   6.367  0.6610 -0.0790  1.8356
   67SAPC   C11 5561   3.639   5.188   6.569 -0.0275  0.2720  0.3399
   67SAPC  H11A 5562   3.558   5.144   6.630  1.1712 -3.1154 -0.2717
   67SAPC  H11B 5563   3.619   5.178   6.460  2.3032  2.2948 -0.3683
   67SAPC     P 5564   3.560   5.433   6.599  0.0847  0.0926 -0.0881
   67SAPC   O13 5565   3.574   5.513   6.479  0.0754 -0.7124 -0.2635
   67SAPC   O14 5566   3.425   5.380   6.627  0.1194  0.4546 -0.5559
   67SAPC   O12 5567   3.665   5.323   6.597 -0.8099  0.0615  0.1223
   67SAPC   O11 5568   3.608   5.528   6.722  0.3258 -0.0902  0.0072
   67SAPC    C1 5569   3.714   5.490   6.808  0.3699  0.6146 -0.1803
   67SAPC    HA 5570   3.805   5.459   6.752  1.3941  1.4010  1.0086
   67SAPC    HB 5571   3.734   5.586   6.859  0.0089  1.1056 -0.9446
   67SAPC    C2 5572   3.682   5.386   6.920 -0.2604 -0.1741 -0.3921
   67SAPC    HS 5573   3.663   5.290   6.868  1.3096  0.9484 -3.3044
   67SAPC   O21 5574   3.571   5.423   6.996  0.0773 -0.1743 -0.2522
   67SAPC   C21 5575   3.502   5.327   7.055 -0.0020 -0.6194 -0.8718
   67SAPC   O22 5576   3.494   5.211   7.023  0.1203 -0.3009  0.2919
   67SAPC   C22 5577   3.426   5.393   7.173 -0.0246 -0.1731  0.8425
   67SAPC   H2R 5578   3.469   5.494   7.187  2.9920 -1.0568 -1.0833
   67SAPC   H2S 5579   3.320   5.399   7.140 -0.0408  0.3662  0.9935
   67SAPC    C3 5580   3.804   5.372   7.015 -0.6320 -0.7724 -0.2903
   67SAPC    HX 5581   3.802   5.464   7.078  1.8777 -0.6622 -0.2706
   67SAPC    HY 5582   3.896   5.370   6.953 -2.0315 -0.9744 -2.4684
   67SAPC   O31 5583   3.788   5.248   7.087 -0.3629 -0.2861 -0.0243
   67SAPC   C31 5584   3.819   5.128   7.040  0.1345 -0.0566  0.3429
   67SAPC   O32 5585   3.883   5.106   6.943 -0.4155 -0.0311  0.4187
   67SAPC   C32 5586   3.764   5.026   7.142  0.6635 -0.2984  0.6320
   67SAPC   H2X 5587   3.677   5.069   7.196  1.1298 -1.7547  2.7082
   67SAPC   H2Y 5588   3.851   5.010   7.210  2.2809 -0.2902 -1.3575
   67SAPC   C23 5589   3.433   5.313   7.304 -0.0372 -0.5146  0.0220
   67SAPC   H3R 5590   3.491   5.379   7.373 -2.2186  1.7622 -0.1492
   67SAPC   H3S 5591   3.486   5.218   7.284  0.8247  0.1156 -0.7867
   67SAPC   C24 5592   3.288   5.283   7.359  0.1580 -0.2041 -0.0414
   67SAPC   H4R 5593   3.310   5.219   7.448  1.5556  0.5280  0.1783
   67SAPC   H4S 5594   3.261   5.213   7.278  1.8810  0.1329 -0.9651
   67SAPC   C25 5595   3.202   5.413   7.369 -0.5419  0.6983  0.0756
   67SAPC   H5R 5596   3.254   5.503   7.334  0.0924  0.3524  0.1163
   67SAPC   C26 5597   3.085   5.413   7.435  0.9108  0.4121 -0.9818
   67SAPC   H6R 5598   3.025   5.505   7.442 -0.2241 -0.3867  0.7026
   67SAPC   C27 5599   3.026   5.287   7.498 -0.0099 -0.2158  0.2015
   67SAPC   H7R 5600   3.106   5.225   7.543 -1.6709 -0.2790  3.3441
   67SAPC   H7S 5601   2.968   5.229   7.423  1.0570 -1.1987  0.1193
   67SAPC   C28 5602   2.923   5.323   7.604  0.0390  0.5099 -1.1449
   67SAPC   H8R 5603   2.821   5.314   7.563 -0.6489 -0.1135  0.6251
   67SAPC   C29 5604   2.945   5.370   7.729 -0.1115  0.2569  0.3881
   67SAPC   H9R 5605   2.858   5.383   7.796 -0.7579 -1.5221 -0.0440
   67SAPC  C210 5606   3.076   5.396   7.795  0.1352 -0.5548  0.6177
   67SAPC  H10R 5607   3.069   5.488   7.855  0.4710  1.1344 -1.7841
   67SAPC  H10S 5608   3.156   5.420   7.721 -0.1410  0.8246  0.7520
   67SAPC  C211 5609   3.125   5.281   7.872  0.2597  0.2805 -0.0100
   67SAPC  H11R 5610   3.166   5.193   7.819 -2.2872 -0.8378 -0.2861
   67SAPC  C212 5611   3.091   5.253   7.998 -0.5819  0.5745  0.3202
   67SAPC  H12R 5612   3.137   5.162   8.039 -0.7554  1.1640  1.8871
   67SAPC  C213 5613   2.991   5.334   8.075  0.2069 -0.0345 -0.0361
   67SAPC  H13R 5614   2.932   5.392   8.001 -1.5678 -0.7902  0.7403
   67SAPC  H13S 5615   3.053   5.405   8.134  0.3784  0.4826 -0.8105
   67SAPC  C214 5616   2.885   5.261   8.158  0.0372  0.1327  0.1549
   67SAPC  H14R 5617   2.856   5.162   8.120 -0.2563  0.5569 -0.7694
   67SAPC  C215 5618   2.819   5.321   8.264  0.3948  0.1522  0.3816
   67SAPC  H15R 5619   2.744   5.266   8.321 -0.3914 -1.0222 -1.6742
   67SAPC  C216 5620   2.826   5.465   8.300 -0.3675 -0.3525 -0.1081
   67SAPC  H16R 5621   2.738   5.525   8.267 -0.3862 -1.0102 -1.3273
   67SAPC  H16S 5622   2.908   5.507   8.239 -0.5892  1.1611  0.6052
   67SAPC  C217 5623   2.848   5.492   8.442 -0.7366  0.9272 -0.7382
   67SAPC  H17R 5624   2.903   5.413   8.497 -2.1511 -1.3237 -2.3570
   67SAPC  H17S 5625   2.746   5.489   8.488  0.6020 -0.3713  2.4321
   67SAPC  C218 5626   2.918   5.627   8.470  0.1820  0.7272  1.1632
   67SAPC  H18R 5627   2.865   5.718   8.434  1.7713  0.3931 -2.4299
   67SAPC  H18S 5628   3.017   5.607   8.424 -0.0442 -2.0253  1.7061
   67SAPC  C219 5629   2.947   5.638   8.623 -0.1354 -0.1366  0.8833
   67SAPC  H19R 5630   3.016   5.725   8.632  0.0653  0.2340 -2.5571
   67SAPC  H19S 5631   3.001   5.548   8.660  1.5403 -0.0181 -1.0917
   67SAPC  C220 5632   2.822   5.676   8.710 -0.5383  0.3329  0.0751
   67SAPC  H20R 5633   2.747   5.595   8.698  0.3164 -0.8658  2.2977
   67SAPC  H20S 5634   2.769   5.765   8.671 -2.0230 -0.0926  1.0599
   67SAPC  H20T 5635   2.841   5.679   8.819 -0.9157  0.8718  0.1285
   67SAPC   C33 5636   3.732   4.891   7.082 -0.3303 -0.9874 -0.2177
   67SAPC   H3X 5637   3.817   4.824   7.054 -0.7062 -0.7925 -1.9619
   67SAPC   H3Y 5638   3.668   4.912   6.993 -1.4126  1.8947  1.0980
   67SAPC   C34 5639   3.646   4.805   7.177 -0.0470  0.4394 -0.1861
   67SAPC   H4X 5640   3.635   4.710   7.122  0.8050  0.3141 -0.1399
   67SAPC   H4Y 5641   3.543   4.842   7.197  0.1827  2.0132 -1.6460
   67SAPC   C35 5642   3.719   4.771   7.312 -0.2352  0.1416 -0.0541
   67SAPC   H5X 5643   3.695   4.851   7.386  0.0155  0.2365 -0.0731
   67SAPC   H5Y 5644   3.828   4.768   7.288 -0.6435 -2.1503 -1.9506
   67SAPC   C36 5645   3.660   4.637   7.359  0.2762 -0.4145 -0.7012
   67SAPC   H6X 5646   3.692   4.572   7.275  0.8728  0.5499 -1.2390
   67SAPC   H6Y 5647   3.552   4.629   7.383 -0.0933  0.8848 -1.8114
   67SAPC   C37 5648   3.735   4.589   7.484 -0.0286  0.3727 -0.9346
   67SAPC   H7X 5649   3.845   4.603   7.484  0.1164 -0.7035 -0.3460
   67SAPC   H7Y 5650   3.716   4.481   7.501  0.2529  0.7619  2.4859
   67SAPC   C38 5651   3.679   4.653   7.614 -0.4276 -0.1568 -0.5882
   67SAPC   H8X 5652   3.572   4.625   7.627 -1.2620  2.7920 -0.1783
   67SAPC   H8Y 5653   3.685   4.764   7.608  1.0548 -0.2216 -0.4754
   67SAPC   C39 5654   3.749   4.596   7.742 -0.3282  0.1073 -0.3430
   67SAPC   H9X 5655   3.850   4.642   7.746 -0.9986  1.5642  0.6759
   67SAPC   H9Y 5656   3.776   4.488   7.749  1.1452  0.4909  0.2154
   67SAPC  C310 5657   3.683   4.639   7.870 -0.2394 -0.7174 -0.2148
   67SAPC  H10X 5658   3.572   4.630   7.870 -0.1107 -3.9415 -2.1670
   67SAPC  H10Y 5659   3.709   4.742   7.903  0.9284 -1.1108  0.1119
   67SAPC  C311 5660   3.747   4.563   7.987  0.4516 -0.1115 -0.0116
   67SAPC  H11X 5661   3.857   4.575   7.989  0.3422  1.3438  2.4885
   67SAPC  H11Y 5662   3.723   4.455   7.977  1.6980 -0.4947  0.8694
   67SAPC  C312 5663   3.695   4.623   8.116 -0.3697  0.2042 -0.6333
   67SAPC  H12X 5664   3.587   4.599   8.124 -0.2398  0.1497  1.8525
   67SAPC  H12Y 5665   3.719   4.731   8.129 -0.7853  0.6197 -2.9446
   67SAPC  C313 5666   3.765   4.564   8.239 -0.9905 -0.1426 -0.3765
   67SAPC  H13X 5667   3.745   4.632   8.325  2.5922  0.3990  0.1611
   67SAPC  H13Y 5668   3.874   4.580   8.232 -1.1191  0.7563 -0.5159
   67SAPC  C314 5669   3.718   4.426   8.275  0.2252  0.2935  0.2767
   67SAPC  H14X 5670   3.735   4.359   8.189 -0.4834 -0.0635  0.4053
   67SAPC  H14Y 5671   3.611   4.429   8.307  0.3634  1.8137  0.6802
   67SAPC  C315 5672   3.794   4.348   8.389 -0.6110  0.2189  0.0394
   67SAPC  H15X 5673   3.793   4.394   8.491  1.0589  0.9591 -0.2496
   67SAPC  H15Y 5674   3.903   4.346   8.369 -0.8828  2.0363 -2.0585
   67SAPC  C316 5675   3.744   4.207   8.394 -0.2364 -0.4318 -0.0586
   67SAPC  H16X 5676   3.726   4.153   8.298 -1.9365 -2.2041  1.1799
   67SAPC  H16Y 5677   3.641   4.209   8.436 -0.1277  1.1136  0.2019
   67SAPC  C317 5678   3.823   4.109   8.485  0.2768  0.2137 -0.0767
   67SAPC  H17X 5679   3.763   4.016   8.495  0.1044  0.1815 -1.2414
   67SAPC  H17Y 5680   3.837   4.152   8.586  2.5399 -0.2272 -0.1448
   67SAPC  C318 5681   3.970   4.053   8.439  0.9925 -0.5410 -0.7195
   67SAPC  H18X 5682   3.967   3.994   8.344  0.7084  2.0349 -2.4086
   67SAPC  H18Y 5683   4.013   3.994   8.523  0.2917 -1.0476 -0.7106
   67SAPC  H18Z 5684   4.045   4.134   8.425  0.3758  0.5028  1.6613
   68SAPC     N 5685   3.205   3.051   6.181  0.3032 -0.6952  0.3647
   68SAPC   C12 5686   3.161   3.140   6.304 -0.4844  0.2349 -0.4937
   68SAPC  H12A 5687   3.171   3.246   6.286  1.1199 -0.0260 -1.2489
   68SAPC  H12B 5688   3.230   3.110   6.381 -0.8470  0.5142 -0.0554
   68SAPC   C13 5689   3.136   3.084   6.047  0.2656  0.3541  0.2866
   68SAPC  H13A 5690   3.136   3.190   6.027 -2.1300  0.5058  0.7549
   68SAPC  H13B 5691   3.177   3.025   5.966 -3.0219 -0.3581 -1.0012
   68SAPC  H13C 5692   3.033   3.055   6.061  0.3701 -0.9292 -1.3061
   68SAPC   C14 5693   3.350   3.094   6.166  0.4799 -0.0406  0.3459
   68SAPC  H14A 5694   3.356   3.202   6.162 -1.1000  0.0901  0.9291
   68SAPC  H14B 5695   3.409   3.043   6.241  1.5656  2.5480  1.3793
   68SAPC  H14C 5696   3.389   3.050   6.075  1.5416 -3.3745  2.2725
   68SAPC   C15 5697   3.203   2.902   6.206  0.4321 -0.0572 -0.3156
   68SAPC  H15A 5698   3.102   2.868   6.219  0.0724  1.1284  0.0704
   68SAPC  H15B 5699   3.246   2.849   6.122 -2.6287 -1.7949 -0.9372
   68SAPC  H15C 5700   3.263   2.876   6.292  1.2386  3.0716  0.2063
   68SAPC   C11 5701   3.030   3.113   6.389 -0.4746  0.6307  0.1017
   68SAPC  H11A 5702   3.021   3.174   6.481 -2.2345 -1.0254  1.0842
   68SAPC  H11B 5703   3.042   3.007   6.417 -0.6668  0.4098 -0.6189
   68SAPC     P 5704   2.856   3.286   6.289 -0.4234 -0.1449 -0.1791
   68SAPC   O13 5705   2.956   3.377   6.343  0.3735 -0.5042 -0.1532
   68SAPC   O14 5706   2.811   3.315   6.154 -0.2103  0.0071  0.1948
   68SAPC   O12 5707   2.916   3.139   6.304  0.3035  0.3484  0.7218
   68SAPC   O11 5708   2.736   3.269   6.391  0.0265  0.1050 -0.1745
   68SAPC    C1 5709   2.631   3.174   6.363 -0.1256 -0.3084 -0.0875
   68SAPC    HA 5710   2.551   3.232   6.312  1.1440  1.5912 -0.0337
   68SAPC    HB 5711   2.670   3.094   6.296 -1.0745  1.5977 -3.1532
   68SAPC    C2 5712   2.587   3.132   6.505  0.4745  0.2748 -0.1769
   68SAPC    HS 5713   2.503   3.059   6.498  0.5599  0.1037  0.4885
   68SAPC   O21 5714   2.549   3.246   6.579 -0.2705  0.1907 -0.7102
   68SAPC   C21 5715   2.433   3.308   6.538  0.2024 -0.2097  0.3436
   68SAPC   O22 5716   2.351   3.269   6.460 -0.2750  0.2607 -0.4923
   68SAPC   C22 5717   2.425   3.438   6.614 -0.4530 -0.7709  0.4521
   68SAPC   H2R 5718   2.521   3.492   6.627 -1.5695  0.5609  4.8369
   68SAPC   H2S 5719   2.355   3.511   6.568  0.5054  0.5164  0.9664
   68SAPC    C3 5720   2.697   3.056   6.590 -0.2375  0.1257  0.8142
   68SAPC    HX 5721   2.784   3.124   6.601  0.5537 -0.1175 -2.6961
   68SAPC    HY 5722   2.739   2.971   6.532 -1.1993  0.0516  0.2042
   68SAPC   O31 5723   2.646   3.012   6.715  0.0220 -0.1691 -0.0197
   68SAPC   C31 5724   2.665   3.091   6.818  0.0928  0.0646 -0.3854
   68SAPC   O32 5725   2.712   3.203   6.821  0.0850 -0.2868 -0.4012
   68SAPC   C32 5726   2.587   3.026   6.939 -0.5486 -0.3066 -0.2503
   68SAPC   H2X 5727   2.637   2.932   6.969  0.0208  0.6661  2.1603
   68SAPC   H2Y 5728   2.482   3.007   6.909 -0.8350  1.7563 -0.7041
   68SAPC   C23 5729   2.398   3.404   6.768 -0.1790 -0.0424 -0.3242
   68SAPC   H3R 5730   2.428   3.493   6.828 -1.3408 -0.1256  0.4040
   68SAPC   H3S 5731   2.468   3.326   6.806 -0.2500 -0.7397 -1.5735
   68SAPC   C24 5732   2.255   3.369   6.802 -1.1567 -0.0060 -0.3091
   68SAPC   H4R 5733   2.229   3.349   6.908 -4.6199  1.3393 -0.7778
   68SAPC   H4S 5734   2.244   3.270   6.754 -0.0181  0.1705 -0.9531
   68SAPC   C25 5735   2.152   3.464   6.753 -0.7911  0.4147  0.1895
   68SAPC   H5R 5736   2.135   3.443   6.647  1.5182 -0.8182 -0.0014
   68SAPC   C26 5737   2.097   3.568   6.821 -0.0875 -0.2298 -0.0947
   68SAPC   H6R 5738   2.027   3.626   6.759 -0.0360 -1.5951 -1.4831
   68SAPC   C27 5739   2.137   3.608   6.957 -0.5896 -0.2463 -0.6645
   68SAPC   H7R 5740   2.136   3.718   6.972 -2.2071 -0.2095 -0.8018
   68SAPC   H7S 5741   2.246   3.599   6.976 -0.2535  0.6391 -2.0441
   68SAPC   C28 5742   2.034   3.547   7.050 -0.8273 -0.2899 -0.6611
   68SAPC   H8R 5743   2.001   3.444   7.027 -0.9364 -0.3393 -0.2745
   68SAPC   C29 5744   2.012   3.596   7.171 -0.0577 -0.7584 -0.3590
   68SAPC   H9R 5745   1.936   3.556   7.240 -0.9229  1.1987 -0.1158
   68SAPC  C210 5746   2.082   3.715   7.232  0.5481  0.2595 -0.0662
   68SAPC  H10R 5747   2.023   3.803   7.195  1.1856  0.2037 -1.2538
   68SAPC  H10S 5748   2.184   3.722   7.189  1.0327 -2.8943  0.3322
   68SAPC  C211 5749   2.069   3.728   7.383  0.1009  0.1750  0.5598
   68SAPC  H11R 5750   2.021   3.640   7.428 -0.4091 -1.4370 -2.7580
   68SAPC  C212 5751   2.127   3.827   7.446  0.1607 -0.5130  0.4452
   68SAPC  H12R 5752   2.103   3.844   7.552  2.4227  2.6042  0.5866
   68SAPC  C213 5753   2.208   3.947   7.387 -0.0632  0.5009 -0.3977
   68SAPC  H13R 5754   2.158   4.039   7.424 -0.1523  0.7031 -1.0143
   68SAPC  H13S 5755   2.197   3.959   7.277  1.2846  3.3117 -0.2986
   68SAPC  C214 5756   2.342   3.939   7.449  0.0721 -0.6496  0.0468
   68SAPC  H14R 5757   2.425   3.894   7.392 -0.4476 -0.6888 -0.6948
   68SAPC  C215 5758   2.363   3.980   7.571 -0.4411  0.1289 -0.2216
   68SAPC  H15R 5759   2.462   3.962   7.616 -0.2876  1.2124 -0.1023
   68SAPC  C216 5760   2.261   4.030   7.669  0.0425  0.3242 -0.0400
   68SAPC  H16R 5761   2.164   4.067   7.629 -0.0605 -0.6550 -0.7479
   68SAPC  H16S 5762   2.291   4.114   7.734  1.1001  1.2182 -1.6176
   68SAPC  C217 5763   2.225   3.931   7.772  0.0171  0.2706  0.4495
   68SAPC  H17R 5764   2.316   3.904   7.831  0.9034  0.6371 -0.7251
   68SAPC  H17S 5765   2.201   3.833   7.727  1.4933  0.1135 -0.0565
   68SAPC  C218 5766   2.114   3.972   7.864 -0.2759  0.1553  0.0231
   68SAPC  H18R 5767   2.028   4.022   7.815 -0.3150  1.0581  0.9612
   68SAPC  H18S 5768   2.163   4.047   7.930  0.3985 -0.6632  0.4743
   68SAPC  C219 5769   2.060   3.848   7.944 -0.9617  0.5797 -0.7675
   68SAPC  H19R 5770   2.144   3.809   8.006 -3.8813  0.0132  3.2055
   68SAPC  H19S 5771   2.008   3.765   7.891 -2.1092  0.2716  0.7458
   68SAPC  C220 5772   1.961   3.896   8.059 -0.2578  0.5511 -0.1031
   68SAPC  H20R 5773   1.944   3.811   8.129  2.8996 -0.7687 -0.7177
   68SAPC  H20S 5774   1.865   3.926   8.013 -0.5584 -2.0144 -1.3730
   68SAPC  H20T 5775   2.002   3.981   8.117 -0.3259  0.1893  0.4787
   68SAPC   C33 5776   2.600   3.118   7.071 -0.6743  0.3317 -0.5464
   68SAPC   H3X 5777   2.696   3.174   7.075 -0.6887  0.7210 -3.4082
   68SAPC   H3Y 5778   2.592   3.052   7.160 -1.2799  1.1261 -0.0062
   68SAPC   C34 5779   2.485   3.221   7.096  0.2078 -0.2019 -0.1692
   68SAPC   H4X 5780   2.395   3.158   7.111  1.0258 -1.4683 -0.3930
   68SAPC   H4Y 5781   2.487   3.293   7.011  3.9002  0.3858  0.2088
   68SAPC   C35 5782   2.503   3.315   7.215  0.0596  0.4923  0.4119
   68SAPC   H5X 5783   2.412   3.376   7.234 -0.3792  0.1668 -0.5680
   68SAPC   H5Y 5784   2.590   3.379   7.189  1.4607 -1.1017  0.9619
   68SAPC   C36 5785   2.530   3.246   7.344 -0.2876 -0.0158 -0.8302
   68SAPC   H6X 5786   2.615   3.178   7.318  0.1700  0.4929 -0.6896
   68SAPC   H6Y 5787   2.452   3.176   7.381  0.8239 -0.6536  0.3891
   68SAPC   C37 5788   2.578   3.343   7.445  0.1337 -0.0111  0.7096
   68SAPC   H7X 5789   2.499   3.419   7.462 -1.1065 -1.3254  1.0334
   68SAPC   H7Y 5790   2.669   3.396   7.409  0.6095 -1.7480 -0.8031
   68SAPC   C38 5791   2.611   3.277   7.580  0.2331 -0.4997  0.2052
   68SAPC   H8X 5792   2.666   3.358   7.633  0.7263  1.1900 -2.6683
   68SAPC   H8Y 5793   2.670   3.184   7.570  0.6627 -0.2136  0.0453
   68SAPC   C39 5794   2.482   3.254   7.653 -0.3803 -0.4025 -0.0442
   68SAPC   H9X 5795   2.417   3.181   7.601  1.0302 -1.4902 -0.3659
   68SAPC   H9Y 5796   2.416   3.343   7.653 -2.4127 -1.5916 -4.8617
   68SAPC  C310 5797   2.510   3.197   7.795  0.4951  0.3114 -0.1406
   68SAPC  H10X 5798   2.587   3.266   7.836 -0.5009  1.0846  0.4829
   68SAPC  H10Y 5799   2.545   3.092   7.783 -2.4013 -0.8478  0.8481
   68SAPC  C311 5800   2.384   3.184   7.871 -0.0619  0.5558 -0.3684
   68SAPC  H11X 5801   2.316   3.106   7.832 -1.8630 -0.2699  3.9303
   68SAPC  H11Y 5802   2.338   3.284   7.852 -1.5372 -0.0218  0.0488
   68SAPC  C312 5803   2.400   3.154   8.025 -0.0002  0.2236  0.0525
   68SAPC  H12X 5804   2.464   3.233   8.070 -2.1114  1.8081  0.4139
   68SAPC  H12Y 5805   2.455   3.058   8.034  2.0932  1.3055 -0.3703
   68SAPC  C313 5806   2.264   3.153   8.095 -0.4046  0.3961  0.1708
   68SAPC  H13X 5807   2.194   3.072   8.063 -2.3607  1.0516  2.4550
   68SAPC  H13Y 5808   2.213   3.246   8.063  0.3823  0.2122 -1.7771
   68SAPC  C314 5809   2.277   3.149   8.255  0.6128 -0.3592 -0.1969
   68SAPC  H14X 5810   2.181   3.190   8.291 -0.2847  0.4641 -3.2546
   68SAPC  H14Y 5811   2.358   3.219   8.285 -0.1600  0.3672  0.2351
   68SAPC  C315 5812   2.307   3.014   8.318 -0.3002 -0.6919 -0.0024
   68SAPC  H15X 5813   2.405   2.991   8.272  0.0961  0.2927  0.3273
   68SAPC  H15Y 5814   2.230   2.942   8.283  2.3600 -3.6147 -0.3254
   68SAPC  C316 5815   2.318   3.033   8.473 -0.2975 -0.2460 -0.2273
   68SAPC  H16X 5816   2.224   3.059   8.526 -0.4625 -2.2303  0.5222
   68SAPC  H16Y 5817   2.383   3.123   8.475 -0.5857  0.1861 -3.8821
   68SAPC  C317 5818   2.365   2.908   8.551 -0.1865  0.4369 -0.5870
   68SAPC  H17X 5819   2.370   2.929   8.660  2.0293 -0.6199 -0.4286
   68SAPC  H17Y 5820   2.468   2.876   8.523 -1.0831 -1.8218 -1.5543
   68SAPC  C318 5821   2.268   2.791   8.530 -0.2725  0.9408  0.0162
   68SAPC  H18X 5822   2.284   2.700   8.591 -1.1707 -0.2609 -1.4510
   68SAPC  H18Y 5823   2.284   2.765   8.423 -1.2888  1.1809 -0.2120
   68SAPC  H18Z 5824   2.165   2.832   8.536  0.6039  3.7031 -1.7271
   69SLPC     N 5825   5.378   3.348  11.393 -0.0954  0.1648  0.0363
   69SLPC   C13 5826   5.308   3.468  11.451 -0.5844 -0.1609 -0.3862
   69SLPC  H13A 5827   5.299   3.542  11.373 -0.8282 -1.4011 -1.5713
   69SLPC  H13B 5828   5.209   3.440  11.482  0.2251 -0.9685  1.6169
   69SLPC  H13C 5829   5.350   3.516  11.539 -2.6982  0.2387  0.4557
   69SLPC   C14 5830   5.271   3.269  11.316 -0.0552 -0.6759  0.1926
   69SLPC  H14A 5831   5.193   3.239  11.386 -1.3277  1.9949  0.0453
   69SLPC  H14B 5832   5.225   3.335  11.244  0.9144 -0.6998 -0.4653
   69SLPC  H14C 5833   5.317   3.185  11.266  0.6013 -1.6142  2.2466
   69SLPC   C15 5834   5.430   3.258  11.501 -0.0482  0.4318  0.1408
   69SLPC  H15A 5835   5.348   3.207  11.550  1.1861 -0.7710  1.0716
   69SLPC  H15B 5836   5.500   3.184  11.464  0.4679  0.3621  1.1964
   69SLPC  H15C 5837   5.475   3.328  11.570 -0.0243  0.5751 -0.0212
   69SLPC   C12 5838   5.500   3.391  11.308  0.3190  0.4311 -0.4121
   69SLPC  H12A 5839   5.532   3.300  11.260  2.1494 -0.9363  3.0603
   69SLPC  H12B 5840   5.578   3.420  11.377  0.6175 -1.6928  0.2103
   69SLPC   C11 5841   5.478   3.497  11.208 -0.6371  0.1366 -0.5496
   69SLPC  H11A 5842   5.373   3.475  11.177 -0.1144 -1.3588 -1.3291
   69SLPC  H11B 5843   5.538   3.479  11.117 -2.3966  2.6107 -2.3422
   69SLPC     P 5844   5.407   3.748  11.207  0.0365  0.2353 -0.1297
   69SLPC   O13 5845   5.319   3.777  11.321 -0.0811  0.4208 -0.5766
   69SLPC   O14 5846   5.490   3.858  11.160  0.5017  0.5221 -0.2631
   69SLPC   O12 5847   5.496   3.633  11.246  0.6132  0.3849  0.0633
   69SLPC   O11 5848   5.325   3.696  11.080  0.2039 -0.2654 -0.1878
   69SLPC    C1 5849   5.382   3.700  10.952 -0.1629  1.0471  0.4507
   69SLPC    HA 5850   5.377   3.803  10.911  0.8080  1.0332  0.2820
   69SLPC    HB 5851   5.489   3.670  10.948 -0.4772 -0.2152 -3.6775
   69SLPC    C2 5852   5.309   3.610  10.851  0.4598 -0.7186  0.4875
   69SLPC    HS 5853   5.322   3.503  10.880 -1.2134 -0.3045  3.0088
   69SLPC   O21 5854   5.360   3.644  10.722 -0.3309  0.3306  0.2007
   69SLPC   C21 5855   5.477   3.579  10.688 -0.6374 -0.2583  0.4548
   69SLPC   O22 5856   5.523   3.490  10.753 -0.4165  0.1867  0.4200
   69SLPC   C22 5857   5.539   3.652  10.573 -0.0216 -0.1670 -0.3926
   69SLPC   H2R 5858   5.532   3.761  10.592  0.1256 -0.3484  0.7972
   69SLPC   H2S 5859   5.645   3.621  10.564  0.4846  1.0163  1.0531
   69SLPC    C3 5860   5.152   3.638  10.842 -0.4093  0.0329  0.7838
   69SLPC    HX 5861   5.144   3.740  10.799  2.4529  0.0917  0.2144
   69SLPC    HY 5862   5.110   3.623  10.944 -0.9806 -0.4480  0.4864
   69SLPC   O31 5863   5.094   3.538  10.751 -1.3100  0.3782 -0.7705
   69SLPC   C31 5864   5.019   3.581  10.647  0.2216  0.3796 -0.0553
   69SLPC   O32 5865   4.987   3.698  10.631 -0.1097 -0.3594 -0.1476
   69SLPC   C32 5866   4.984   3.471  10.549 -0.0858  0.1616 -0.1921
   69SLPC   H2X 5867   4.874   3.458  10.561 -0.2539  2.3572  1.1219
   69SLPC   H2Y 5868   5.041   3.378  10.573  1.0686  1.1013  0.8732
   69SLPC   C23 5869   5.465   3.621  10.441 -0.4417 -0.4268  0.1756
   69SLPC   H3R 5870   5.367   3.672  10.457  0.3219  0.8298  1.0735
   69SLPC   H3S 5871   5.442   3.514  10.428 -0.6323 -0.2422 -1.0991
   69SLPC   C24 5872   5.534   3.692  10.320  0.4645 -0.2072  0.0369
   69SLPC   H4R 5873   5.625   3.632  10.296  0.2474 -0.5943  0.1712
   69SLPC   H4S 5874   5.579   3.788  10.353  0.9929 -0.5705  0.3973
   69SLPC   C25 5875   5.435   3.700  10.204  0.0449 -0.3735  0.1167
   69SLPC   H5R 5876   5.336   3.743  10.231 -0.2687 -1.7154  1.2271
   69SLPC   H5S 5877   5.413   3.599  10.163  0.3427 -1.4870  2.5190
   69SLPC   C26 5878   5.502   3.782  10.087  0.0018  0.5523  0.2350
   69SLPC   H6R 5879   5.611   3.762  10.101  0.4473  0.6348 -2.5968
   69SLPC   H6S 5880   5.476   3.887  10.112  1.8764  1.0921  0.0637
   69SLPC   C27 5881   5.460   3.732   9.951 -0.3463  0.3545 -0.0458
   69SLPC   H7R 5882   5.369   3.793   9.935 -0.7567 -0.3623 -0.4942
   69SLPC   H7S 5883   5.441   3.623   9.943  1.1161 -0.1051  1.9211
   69SLPC   C28 5884   5.559   3.767   9.838 -0.0697  0.5694 -0.7578
   69SLPC   H8R 5885   5.664   3.737   9.857  0.0452  1.0627 -0.6103
   69SLPC   H8S 5886   5.545   3.876   9.822 -4.2960  0.6565  1.9759
   69SLPC   C29 5887   5.503   3.725   9.704  0.9207 -0.1947  0.1881
   69SLPC   H9R 5888   5.468   3.621   9.704  0.7252 -0.1292  0.4679
   69SLPC  C210 5889   5.507   3.788   9.586  0.4377  0.2044 -0.2374
   69SLPC  H10R 5890   5.453   3.742   9.502 -0.7747 -1.3815  1.3368
   69SLPC  C211 5891   5.566   3.920   9.563 -0.2521 -0.6327  0.6955
   69SLPC  H11R 5892   5.645   3.943   9.639  0.0054  1.1069 -0.0356
   69SLPC  H11S 5893   5.478   3.988   9.566 -1.2383 -1.8019 -0.5531
   69SLPC  C212 5894   5.630   3.934   9.428  0.7073  0.1142  0.1897
   69SLPC  H12R 5895   5.725   3.879   9.423  1.5946  1.6151 -0.3769
   69SLPC  C213 5896   5.587   4.001   9.318  0.1533 -0.8328  0.1848
   69SLPC  H13R 5897   5.643   3.989   9.224 -1.9079 -1.8763 -0.9868
   69SLPC  C214 5898   5.457   4.079   9.320 -0.5199  0.4351  0.2025
   69SLPC  H14R 5899   5.434   4.144   9.407  0.4500 -1.5272  2.0032
   69SLPC  H14S 5900   5.379   4.000   9.324  2.6575 -3.4891 -3.9777
   69SLPC  C215 5901   5.433   4.156   9.186 -0.0714  0.3479  0.4396
   69SLPC  H15R 5902   5.364   4.237   9.217  1.7267  2.2013 -0.1414
   69SLPC  H15S 5903   5.383   4.092   9.110  1.4312  0.0180 -0.3279
   69SLPC  C216 5904   5.562   4.224   9.133 -0.3065  0.4910  0.0070
   69SLPC  H16R 5905   5.620   4.150   9.073 -1.7386 -2.1634  1.7052
   69SLPC  H16S 5906   5.620   4.255   9.222 -0.5020  1.7927 -0.3067
   69SLPC  C217 5907   5.529   4.341   9.043 -0.2269  0.7185  0.4409
   69SLPC  H17R 5908   5.623   4.388   9.005 -0.6952  0.4745 -1.0907
   69SLPC  H17S 5909   5.467   4.414   9.098  0.2327  0.5380  1.2112
   69SLPC  C218 5910   5.452   4.311   8.913 -0.6986  0.1605  0.6512
   69SLPC  H18R 5911   5.439   4.403   8.852  1.6486 -1.0401 -1.9159
   69SLPC  H18S 5912   5.367   4.240   8.921 -0.4462 -0.0646  1.4407
   69SLPC  H18T 5913   5.519   4.253   8.846 -0.8996 -1.0578  1.4731
   69SLPC   C33 5914   5.019   3.518  10.412 -0.0320  0.8113 -0.6023
   69SLPC   H3X 5915   5.056   3.435  10.348  1.7931 -1.1964  2.7470
   69SLPC   H3Y 5916   5.102   3.591  10.406  0.6721  0.0730 -0.0254
   69SLPC   C34 5917   4.910   3.575  10.316  0.5389 -0.2907  0.6154
   69SLPC   H4X 5918   4.845   3.651  10.363 -0.8156 -0.8781 -0.2517
   69SLPC   H4Y 5919   4.837   3.499  10.281  1.0110 -0.6700  0.4353
   69SLPC   C35 5920   4.970   3.629  10.182 -0.4012 -0.7545  0.2509
   69SLPC   H5X 5921   5.043   3.713  10.191 -0.9950  0.0066 -1.4510
   69SLPC   H5Y 5922   4.881   3.668  10.127 -0.6895 -1.2405  0.3763
   69SLPC   C36 5923   5.045   3.529  10.092 -0.0974 -0.4255 -0.3684
   69SLPC   H6X 5924   4.986   3.436  10.082 -1.1169 -0.2971  3.1377
   69SLPC   H6Y 5925   5.130   3.502  10.158  0.1004  0.9612 -0.0130
   69SLPC   C37 5926   5.084   3.597   9.965  0.2160 -0.8178 -0.3205
   69SLPC   H7X 5927   5.180   3.552   9.930 -0.2745 -1.0560 -1.4201
   69SLPC   H7Y 5928   5.116   3.702   9.978  1.0914 -1.0189 -0.7765
   69SLPC   C38 5929   4.991   3.585   9.845 -0.5608 -0.0140 -0.2665
   69SLPC   H8X 5930   4.900   3.647   9.857 -1.0318 -0.5632 -0.9089
   69SLPC   H8Y 5931   4.954   3.480   9.836  0.8442 -0.6682  1.0080
   69SLPC   C39 5932   5.048   3.622   9.706  0.3299 -0.0529 -0.6759
   69SLPC   H9X 5933   5.128   3.546   9.691  1.1268  0.8528 -1.1031
   69SLPC   H9Y 5934   5.080   3.728   9.706  0.8019 -0.1543  1.2709
   69SLPC  C310 5935   4.943   3.605   9.590  0.1958 -0.1621 -0.5798
   69SLPC  H10X 5936   4.859   3.677   9.597 -0.6417 -0.5534 -4.3304
   69SLPC  H10Y 5937   4.902   3.501   9.585  1.0999 -0.6342  1.0160
   69SLPC  C311 5938   5.017   3.625   9.453 -0.1786  0.3743 -0.3297
   69SLPC  H11X 5939   5.100   3.698   9.454 -0.4405  0.6970 -1.0129
   69SLPC  H11Y 5940   4.935   3.659   9.385  0.3238  1.4067 -0.4367
   69SLPC  C312 5941   5.068   3.498   9.383  0.4543  0.8651 -0.8636
   69SLPC  H12X 5942   4.979   3.432   9.372  2.1885 -1.4335 -1.9755
   69SLPC  H12Y 5943   5.141   3.442   9.445  1.3461  1.1112 -1.6598
   69SLPC  C313 5944   5.127   3.517   9.250 -0.0960 -0.2162  0.1771
   69SLPC  H13X 5945   5.053   3.564   9.182 -0.8962  0.6891  1.6220
   69SLPC  H13Y 5946   5.156   3.416   9.216  2.2199 -0.3584  2.2461
   69SLPC  C314 5947   5.258   3.605   9.246 -0.8928 -0.5619 -0.1150
   69SLPC  H14X 5948   5.338   3.570   9.314 -0.6435  1.0534  0.4672
   69SLPC  H14Y 5949   5.231   3.707   9.282  0.2787  0.3298 -1.6422
   69SLPC  C315 5950   5.315   3.610   9.102 -0.0572 -0.5716  0.0795
   69SLPC  H15X 5951   5.243   3.664   9.037 -0.3375 -0.1315  0.7511
   69SLPC  H15Y 5952   5.336   3.507   9.064 -0.4126 -0.9804  0.9519
   69SLPC  C316 5953   5.436   3.705   9.097  0.2031  0.0354 -0.0933
   69SLPC  H16X 5954   5.522   3.672   9.159  0.2758 -2.1528 -1.2497
   69SLPC  H16Y 5955   5.414   3.805   9.140  1.3851 -0.1055  0.8807
   69SLPC  C317 5956   5.492   3.724   8.952  0.1980 -0.1812 -0.1577
   69SLPC  H17X 5957   5.451   3.640   8.892 -2.5321  0.6306  0.4281
   69SLPC  H17Y 5958   5.602   3.725   8.964  0.0114 -1.7428  2.6465
   69SLPC  C318 5959   5.443   3.853   8.888  0.0521  0.4239 -0.0330
   69SLPC  H18X 5960   5.334   3.866   8.870 -0.1150 -1.0578 -0.2566
   69SLPC  H18Y 5961   5.497   3.883   8.796 -0.5449  0.5104 -0.3619
   69SLPC  H18Z 5962   5.476   3.926   8.964  0.3633 -0.4594  0.6981
   70SLPC     N 5963   5.434   5.476  11.285 -0.4613  0.2925 -0.4088
   70SLPC   C13 5964   5.400   5.369  11.189 -0.3973  0.4493 -0.6129
   70SLPC  H13A 5965   5.302   5.389  11.148 -1.8928 -3.1815  0.7891
   70SLPC  H13B 5966   5.477   5.364  11.114 -0.0186  0.0036 -0.1978
   70SLPC  H13C 5967   5.395   5.273  11.239  0.2199  0.6857 -0.0830
   70SLPC   C14 5968   5.569   5.439  11.332  0.4185 -0.0346 -0.2811
   70SLPC  H14A 5969   5.640   5.440  11.251 -0.7160 -0.6984 -1.3186
   70SLPC  H14B 5970   5.605   5.518  11.396 -0.0962  1.6110 -1.9484
   70SLPC  H14C 5971   5.571   5.346  11.386  0.2020 -1.0819 -2.0049
   70SLPC   C15 5972   5.343   5.449  11.395 -0.0046  0.2463 -0.0545
   70SLPC  H15A 5973   5.382   5.486  11.488 -1.9036 -0.5862  1.1586
   70SLPC  H15B 5974   5.248   5.494  11.370  1.3942  2.3306 -1.9974
   70SLPC  H15C 5975   5.332   5.343  11.413  0.4185 -0.0809 -1.5634
   70SLPC   C12 5976   5.416   5.622  11.236  0.1313 -0.0772 -0.7547
   70SLPC  H12A 5977   5.487   5.637  11.156  1.8541  0.4143  0.7917
   70SLPC  H12B 5978   5.448   5.678  11.322  1.6401  0.5336 -1.6685
   70SLPC   C11 5979   5.275   5.659  11.186  0.5542 -0.1338 -0.5345
   70SLPC  H11A 5980   5.258   5.768  11.201 -1.3747 -0.5829  0.9896
   70SLPC  H11B 5981   5.203   5.612  11.256  1.6363  1.9354  2.1613
   70SLPC     P 5982   5.313   5.716  10.945 -0.0963  0.7106 -0.2450
   70SLPC   O13 5983   5.230   5.834  10.969 -0.3614 -0.6234  0.8056
   70SLPC   O14 5984   5.460   5.731  10.950  0.1444  0.3306  0.3376
   70SLPC   O12 5985   5.259   5.613  11.050 -0.0471 -0.3033  0.1310
   70SLPC   O11 5986   5.256   5.640  10.815 -0.4479  0.1536 -0.0756
   70SLPC    C1 5987   5.283   5.499  10.793  0.2076  0.2195 -0.6591
   70SLPC    HA 5988   5.316   5.442  10.883  0.4971 -0.9657 -1.4801
   70SLPC    HB 5989   5.191   5.445  10.765  0.2699  0.3206 -1.0604
   70SLPC    C2 5990   5.386   5.485  10.676 -0.5144  0.6572  0.0533
   70SLPC    HS 5991   5.481   5.536  10.704 -1.1520  1.3013  1.0652
   70SLPC   O21 5992   5.320   5.530  10.556  0.7115  0.2848 -0.1168
   70SLPC   C21 5993   5.397   5.605  10.481 -0.5035 -0.5451  0.1306
   70SLPC   O22 5994   5.509   5.644  10.507 -0.0813  0.1047  0.0436
   70SLPC   C22 5995   5.316   5.640  10.354  0.5311 -0.3194 -0.3109
   70SLPC   H2R 5996   5.305   5.546  10.295 -2.6923  0.1652 -0.6591
   70SLPC   H2S 5997   5.214   5.663  10.393 -0.5393  0.0671 -3.0864
   70SLPC    C3 5998   5.425   5.333  10.648 -0.6534  0.4476  0.1341
   70SLPC    HX 5999   5.339   5.264  10.637 -0.1678 -0.1359 -0.1096
   70SLPC    HY 6000   5.479   5.293  10.736  1.2862 -1.4459 -1.7874
   70SLPC   O31 6001   5.518   5.322  10.531  0.8244 -0.2905 -0.4361
   70SLPC   C31 6002   5.644   5.341  10.555  0.0961 -0.2565 -0.2562
   70SLPC   O32 6003   5.693   5.371  10.662  0.1070 -0.2409  0.5033
   70SLPC   C32 6004   5.721   5.330  10.422  0.3044 -0.4669  0.4200
   70SLPC   H2X 6005   5.736   5.223  10.397  1.2442 -0.0943 -0.7066
   70SLPC   H2Y 6006   5.823   5.375  10.431 -0.3283  1.4175 -1.1097
   70SLPC   C23 6007   5.361   5.759  10.267  0.2382  0.3958 -0.5549
   70SLPC   H3R 6008   5.455   5.728  10.215  0.6291 -2.2139  1.4544
   70SLPC   H3S 6009   5.385   5.832  10.347 -0.1517 -1.6773  1.5968
   70SLPC   C24 6010   5.258   5.809  10.166  0.1212  0.1536  0.4433
   70SLPC   H4R 6011   5.176   5.846  10.231  2.0297  1.9332  1.9573
   70SLPC   H4S 6012   5.223   5.726  10.101  0.8724  2.5221 -3.2978
   70SLPC   C25 6013   5.298   5.922  10.078  0.4589  0.3114  0.9392
   70SLPC   H5R 6014   5.392   5.887  10.029  1.2933  2.2123  1.1068
   70SLPC   H5S 6015   5.338   6.002  10.143 -1.3546  0.3179  2.1102
   70SLPC   C26 6016   5.182   5.972   9.994  0.9394 -0.5400  0.4393
   70SLPC   H6R 6017   5.212   6.062   9.936 -2.7936  1.7727  1.7957
   70SLPC   H6S 6018   5.087   5.993  10.047  0.1969 -1.1110 -0.6270
   70SLPC   C27 6019   5.128   5.871   9.888  0.0333  0.4034 -0.3624
   70SLPC   H7R 6020   5.098   5.772   9.929  0.4960  0.2225 -0.4482
   70SLPC   H7S 6021   5.220   5.840   9.834  0.1189 -1.8743  0.9567
   70SLPC   C28 6022   5.022   5.924   9.794  0.2488 -0.0687 -0.0494
   70SLPC   H8R 6023   4.933   5.947   9.856 -0.4081 -2.3031 -0.0990
   70SLPC   H8S 6024   4.986   5.850   9.720 -0.4606 -0.3217  0.5421
   70SLPC   C29 6025   5.057   6.043   9.711 -0.1862  0.0954  0.5673
   70SLPC   H9R 6026   5.165   6.057   9.695  0.2343 -0.0575  2.9280
   70SLPC  C210 6027   4.975   6.121   9.643  0.1878 -0.2472 -0.1296
   70SLPC  H10R 6028   5.018   6.206   9.588  0.1848  0.6270  1.1858
   70SLPC  C211 6029   4.826   6.095   9.638  0.6044  0.2044  0.6527
   70SLPC  H11R 6030   4.790   6.105   9.743  0.7259  1.3840  0.5897
   70SLPC  H11S 6031   4.801   5.998   9.590 -0.0994  0.8348 -0.3028
   70SLPC  C212 6032   4.750   6.191   9.555  0.1916 -0.6755 -0.2569
   70SLPC  H12R 6033   4.735   6.168   9.449  1.9341  3.3579 -1.5627
   70SLPC  C213 6034   4.704   6.306   9.592 -0.1784  0.0964  0.6947
   70SLPC  H13R 6035   4.647   6.364   9.519  1.6046  0.8362 -0.1825
   70SLPC  C214 6036   4.728   6.364   9.725  0.0070  0.4502  0.8470
   70SLPC  H14R 6037   4.789   6.455   9.708  1.3612 -0.2347  1.7825
   70SLPC  H14S 6038   4.782   6.298   9.796 -1.5379 -1.4758  0.3182
   70SLPC  C215 6039   4.596   6.397   9.793  0.6191 -0.0722 -0.4205
   70SLPC  H15R 6040   4.504   6.347   9.756 -0.2612  1.5722 -0.5728
   70SLPC  H15S 6041   4.588   6.507   9.776  0.3090  0.0853  0.6768
   70SLPC  C216 6042   4.617   6.399   9.942 -0.9267  0.4028  0.3890
   70SLPC  H16R 6043   4.698   6.467   9.973  0.9278 -1.6039  0.1743
   70SLPC  H16S 6044   4.638   6.294   9.973  0.3847 -0.4868 -3.1286
   70SLPC  C217 6045   4.488   6.449  10.015  0.5269 -0.3905  0.4522
   70SLPC  H17R 6046   4.435   6.532   9.964  0.0221  0.1877  1.8503
   70SLPC  H17S 6047   4.520   6.495  10.111  0.0301  1.9136 -0.3984
   70SLPC  C218 6048   4.391   6.330  10.051  0.3295 -0.2214 -0.1277
   70SLPC  H18R 6049   4.301   6.376  10.098  1.4600 -1.1819  3.2675
   70SLPC  H18S 6050   4.433   6.253  10.119  0.1300  0.5520  0.9026
   70SLPC  H18T 6051   4.369   6.287   9.951  0.1502 -1.4328  0.4185
   70SLPC   C33 6052   5.646   5.390  10.295  0.4379 -0.5371  0.7456
   70SLPC   H3X 6053   5.615   5.496  10.306  3.0362  0.6137 -1.7093
   70SLPC   H3Y 6054   5.552   5.330  10.289  1.3396 -1.9205 -0.2388
   70SLPC   C34 6055   5.729   5.373  10.168  0.1772  0.8511  0.0175
   70SLPC   H4X 6056   5.773   5.271  10.171 -1.2858  0.1466 -0.9206
   70SLPC   H4Y 6057   5.808   5.450  10.155  2.7313 -1.6693 -0.3206
   70SLPC   C35 6058   5.635   5.364  10.040 -0.3523  0.4074  0.2364
   70SLPC   H5X 6059   5.573   5.456  10.046  1.3522  1.6689 -0.6155
   70SLPC   H5Y 6060   5.573   5.272  10.042  0.3017 -0.0630 -0.6117
   70SLPC   C36 6061   5.711   5.369   9.911 -0.2419  0.2738 -0.1845
   70SLPC   H6X 6062   5.773   5.277   9.904 -0.9437 -0.1697 -0.8254
   70SLPC   H6Y 6063   5.781   5.455   9.916 -1.4175  1.2393  0.0814
   70SLPC   C37 6064   5.637   5.373   9.774 -0.1781  0.0166 -0.5355
   70SLPC   H7X 6065   5.596   5.271   9.758 -0.7522  0.2825 -0.7775
   70SLPC   H7Y 6066   5.706   5.408   9.695  1.2157  0.1738  0.7137
   70SLPC   C38 6067   5.524   5.475   9.770  0.0393  0.6804  0.3816
   70SLPC   H8X 6068   5.579   5.561   9.814  0.5320  1.4935 -1.7167
   70SLPC   H8Y 6069   5.434   5.450   9.831 -0.8150  1.2071 -0.6283
   70SLPC   C39 6070   5.478   5.514   9.632  0.4270 -0.4263  0.5879
   70SLPC   H9X 6071   5.419   5.436   9.579 -1.8474  1.4232  0.2135
   70SLPC   H9Y 6072   5.563   5.541   9.566 -0.6407  0.5876 -0.4146
   70SLPC  C310 6073   5.387   5.643   9.632  0.2416 -0.5183  0.0103
   70SLPC  H10X 6074   5.432   5.719   9.700 -1.5186  0.4610  0.1338
   70SLPC  H10Y 6075   5.287   5.616   9.673  0.1580 -0.0571  0.1243
   70SLPC  C311 6076   5.359   5.698   9.489 -0.9367 -0.7918 -0.1126
   70SLPC  H11X 6077   5.295   5.617   9.447 -3.3976  0.7199  0.5535
   70SLPC  H11Y 6078   5.455   5.721   9.438 -0.6803 -1.4509  0.0527
   70SLPC  C312 6079   5.263   5.822   9.497 -0.1570 -0.5448  0.8298
   70SLPC  H12X 6080   5.315   5.901   9.555  1.6218 -0.4915 -0.7450
   70SLPC  H12Y 6081   5.166   5.804   9.549 -0.5722  1.7079  0.9126
   70SLPC  C313 6082   5.236   5.866   9.351  0.5885 -0.2486  0.5384
   70SLPC  H13X 6083   5.219   5.774   9.292  3.4675 -1.9029  2.0566
   70SLPC  H13Y 6084   5.327   5.912   9.308  0.3735  1.2902  1.6393
   70SLPC  C314 6085   5.107   5.950   9.331  0.6005 -0.9422  0.0887
   70SLPC  H14X 6086   5.125   6.051   9.374 -0.3860 -1.1841  1.1382
   70SLPC  H14Y 6087   5.021   5.918   9.394  1.0634 -0.2757  1.0949
   70SLPC  C315 6088   5.064   5.964   9.182  1.2714 -0.4257 -0.2933
   70SLPC  H15X 6089   5.074   5.870   9.123 -0.9880 -1.8815  1.4436
   70SLPC  H15Y 6090   5.126   6.041   9.132  0.6702  0.3002  0.0530
   70SLPC  C316 6091   4.913   6.010   9.182 -0.0774  0.1317  0.1847
   70SLPC  H16X 6092   4.853   5.949   9.253 -0.8554 -0.6789 -1.1188
   70SLPC  H16Y 6093   4.875   5.995   9.079  2.1731  0.3741 -0.7434
   70SLPC  C317 6094   4.891   6.154   9.222  0.4659  0.3670 -0.1266
   70SLPC  H17X 6095   4.924   6.166   9.328 -0.8955 -1.8396  0.6086
   70SLPC  H17Y 6096   4.780   6.161   9.217  0.4777 -0.2947 -2.1181
   70SLPC  C318 6097   4.953   6.250   9.123  0.3974  0.4627 -0.2907
   70SLPC  H18X 6098   4.906   6.350   9.135 -0.9929 -0.0235 -1.4056
   70SLPC  H18Y 6099   4.927   6.227   9.018 -1.4846  1.3166 -0.0673
   70SLPC  H18Z 6100   5.063   6.250   9.137  0.2392  0.6130  1.1008
   71SLPC     N 6101   4.858   5.620  10.822 -0.1824  0.2051 -0.4218
   71SLPC   C13 6102   4.800   5.748  10.786  0.1792  0.8630 -0.3932
   71SLPC  H13A 6103   4.702   5.730  10.744  0.1558 -2.6012  0.7795
   71SLPC  H13B 6104   4.798   5.816  10.870 -0.3203  0.6071 -0.1916
   71SLPC  H13C 6105   4.858   5.794  10.708  0.2929 -1.0800 -1.5285
   71SLPC   C14 6106   4.978   5.641  10.904  0.2204 -0.1088  0.2035
   71SLPC  H14A 6107   4.954   5.697  10.993 -0.0257 -2.0324  1.3982
   71SLPC  H14B 6108   5.014   5.550  10.948  0.8276  0.0287  0.0073
   71SLPC  H14C 6109   5.060   5.685  10.848  1.8750 -4.2098 -0.9475
   71SLPC   C15 6110   4.900   5.541  10.699  0.2675 -0.6901 -0.2686
   71SLPC  H15A 6111   4.963   5.454  10.713 -0.1338 -0.8714  0.4876
   71SLPC  H15B 6112   4.810   5.519  10.643 -0.1901  0.2140  0.0995
   71SLPC  H15C 6113   4.956   5.601  10.629  1.2495 -1.5075 -0.2048
   71SLPC   C12 6114   4.752   5.546  10.902 -0.5920  0.1032  0.6657
   71SLPC  H12A 6115   4.746   5.587  11.002  1.0817 -1.3275  1.4176
   71SLPC  H12B 6116   4.778   5.442  10.916  0.0800  0.3368  1.2153
   71SLPC   C11 6117   4.604   5.534  10.845  0.6392  0.4479 -0.1244
   71SLPC  H11A 6118   4.562   5.633  10.817 -1.0856 -0.2019  0.0356
   71SLPC  H11B 6119   4.535   5.498  10.925  0.1707  2.3066  0.3401
   71SLPC     P 6120   4.608   5.303  10.738 -0.0395  0.1441  0.2083
   71SLPC   O13 6121   4.741   5.262  10.785  0.2814 -0.4372 -0.1699
   71SLPC   O14 6122   4.494   5.257  10.829 -0.4524 -0.2554 -0.6219
   71SLPC   O12 6123   4.605   5.458  10.725 -0.3083  0.0176  0.0605
   71SLPC   O11 6124   4.588   5.256  10.593 -0.7082  0.0159 -0.1682
   71SLPC    C1 6125   4.652   5.332  10.488  1.0293 -0.1097  0.1569
   71SLPC    HA 6126   4.590   5.422  10.470 -0.8950 -1.2774  0.5714
   71SLPC    HB 6127   4.754   5.366  10.515  1.6978  0.9507 -3.2730
   71SLPC    C2 6128   4.649   5.259  10.353 -0.5022  0.5050 -0.1866
   71SLPC    HS 6129   4.711   5.318  10.283 -1.0181  0.7402 -0.4530
   71SLPC   O21 6130   4.514   5.232  10.309  0.1469  0.8662  0.2617
   71SLPC   C21 6131   4.471   5.303  10.205  0.2721 -0.6282  0.7847
   71SLPC   O22 6132   4.536   5.387  10.147  0.2309 -0.3118 -0.0759
   71SLPC   C22 6133   4.328   5.268  10.173 -0.3204  0.2693 -0.0734
   71SLPC   H2R 6134   4.312   5.163  10.205 -0.9874  0.4456  0.1846
   71SLPC   H2S 6135   4.256   5.324  10.236 -1.0170  0.2810 -0.8488
   71SLPC    C3 6136   4.717   5.118  10.354  0.1758  0.0938 -0.0764
   71SLPC    HX 6137   4.655   5.056  10.422 -1.5189 -0.6673 -2.2258
   71SLPC    HY 6138   4.819   5.122  10.398  0.4608  0.6650 -0.7669
   71SLPC   O31 6139   4.704   5.058  10.221 -0.0787 -0.1439 -0.0277
   71SLPC   C31 6140   4.784   5.088  10.133 -0.5291  0.6385 -0.3300
   71SLPC   O32 6141   4.870   5.176  10.139 -0.1810 -0.0613 -0.5270
   71SLPC   C32 6142   4.744   5.006  10.007 -0.4671 -0.2983  0.1014
   71SLPC   H2X 6143   4.669   5.067   9.952 -0.3709 -1.2514 -1.1301
   71SLPC   H2Y 6144   4.701   4.911  10.044 -0.9115  0.4776  1.6677
   71SLPC   C23 6145   4.294   5.289  10.029 -0.1849  0.1857 -0.2501
   71SLPC   H3R 6146   4.336   5.382   9.985  1.1541  0.5532  1.6542
   71SLPC   H3S 6147   4.184   5.299  10.019 -0.2860  3.8218  2.5031
   71SLPC   C24 6148   4.346   5.170   9.945 -0.0610  0.0147  0.3187
   71SLPC   H4R 6149   4.283   5.084   9.976 -0.1858  0.6524  1.9421
   71SLPC   H4S 6150   4.453   5.139   9.956  0.3086  1.2039  0.2155
   71SLPC   C25 6151   4.346   5.199   9.798 -0.2245  0.0004  0.0584
   71SLPC   H5R 6152   4.384   5.301   9.776 -0.8026 -0.0072 -1.0956
   71SLPC   H5S 6153   4.240   5.195   9.763  0.4597 -0.4743 -2.1037
   71SLPC   C26 6154   4.432   5.105   9.716 -0.1239  0.3021  0.8385
   71SLPC   H6R 6155   4.537   5.140   9.720  0.5926 -1.6769  0.4100
   71SLPC   H6S 6156   4.398   5.129   9.613  0.1343  2.3274  1.1831
   71SLPC   C27 6157   4.413   4.954   9.738 -0.6384  0.2335 -0.7012
   71SLPC   H7R 6158   4.459   4.944   9.839  0.3901 -0.1899 -1.2035
   71SLPC   H7S 6159   4.480   4.893   9.674 -2.4504 -0.0387 -2.4527
   71SLPC   C28 6160   4.270   4.902   9.721 -1.0918  0.0036 -0.1615
   71SLPC   H8R 6161   4.250   4.906   9.612  0.8677  2.7199 -0.5332
   71SLPC   H8S 6162   4.190   4.969   9.759 -1.1699  0.5938 -1.3302
   71SLPC   C29 6163   4.258   4.774   9.795  0.3221  0.1258 -0.5185
   71SLPC   H9R 6164   4.263   4.780   9.905 -1.6021 -2.7465 -0.1694
   71SLPC  C210 6165   4.242   4.652   9.737 -0.4027  0.5992  0.1833
   71SLPC  H10R 6166   4.257   4.567   9.805  0.8619  0.4818 -0.2120
   71SLPC  C211 6167   4.241   4.622   9.587  0.5725 -0.6674 -0.2355
   71SLPC  H11R 6168   4.230   4.514   9.565 -0.7477 -0.5101 -0.4499
   71SLPC  H11S 6169   4.329   4.654   9.528  0.1918 -1.3838 -1.2206
   71SLPC  C212 6170   4.113   4.681   9.525 -0.4814 -0.1308 -0.3686
   71SLPC  H12R 6171   4.028   4.712   9.588 -0.2735  2.0741 -1.1038
   71SLPC  C213 6172   4.089   4.696   9.396  0.2806 -0.4049  0.1963
   71SLPC  H13R 6173   3.995   4.745   9.366 -0.1169 -0.7003  0.9336
   71SLPC  C214 6174   4.182   4.660   9.288 -0.1114  0.4929 -1.1274
   71SLPC  H14R 6175   4.285   4.674   9.326 -0.8955  0.4375  1.1578
   71SLPC  H14S 6176   4.168   4.726   9.199 -2.4526  1.2219 -0.2951
   71SLPC  C215 6177   4.172   4.508   9.247  0.3381 -0.5250 -0.0859
   71SLPC  H15R 6178   4.165   4.439   9.334  2.2264  0.6959  1.1333
   71SLPC  H15S 6179   4.267   4.495   9.191  1.0380  0.1253  0.9101
   71SLPC  C216 6180   4.062   4.487   9.148  0.2879 -0.3876  0.2466
   71SLPC  H16R 6181   4.074   4.553   9.060  0.2921 -1.2784 -0.4367
   71SLPC  H16S 6182   3.967   4.511   9.199  0.1159 -0.9053  0.1784
   71SLPC  C217 6183   4.062   4.341   9.106 -0.2811  0.2601 -0.3190
   71SLPC  H17R 6184   4.077   4.271   9.191  0.7560 -0.3224 -0.9605
   71SLPC  H17S 6185   4.147   4.328   9.037 -1.0578  0.7024 -1.3866
   71SLPC  C218 6186   3.945   4.280   9.037  0.1904  0.0779  0.1934
   71SLPC  H18R 6187   3.857   4.278   9.104 -1.3707  2.7453 -1.5311
   71SLPC  H18S 6188   3.972   4.173   9.029  2.4981  0.6227  0.1699
   71SLPC  H18T 6189   3.925   4.303   8.930 -0.1046 -0.6558  0.0858
   71SLPC   C33 6190   4.874   4.972   9.930  0.3817 -0.7408  0.6692
   71SLPC   H3X 6191   4.936   4.900   9.989  2.4104  1.2009  1.0260
   71SLPC   H3Y 6192   4.929   5.065   9.907  2.4859 -2.7380 -3.4210
   71SLPC   C34 6193   4.831   4.912   9.785  0.4228 -0.4417  0.3729
   71SLPC   H4X 6194   4.764   4.988   9.740 -0.6046 -1.0106  0.9171
   71SLPC   H4Y 6195   4.780   4.815   9.805  2.4038 -1.1837  2.1949
   71SLPC   C35 6196   4.952   4.887   9.690  0.4898 -0.1139  0.0425
   71SLPC   H5X 6197   5.041   4.865   9.752  0.4456 -4.9729 -1.1891
   71SLPC   H5Y 6198   4.972   4.985   9.642  2.1114  0.3034  1.4882
   71SLPC   C36 6199   4.933   4.784   9.583 -0.0805  0.5778  0.1785
   71SLPC   H6X 6200   4.952   4.683   9.626  2.7945 -0.0995 -2.3407
   71SLPC   H6Y 6201   4.999   4.797   9.495 -0.8479 -3.9093 -1.3422
   71SLPC   C37 6202   4.792   4.789   9.516  0.1088  0.2475  0.1853
   71SLPC   H7X 6203   4.711   4.756   9.585 -0.5557  1.5112  0.0337
   71SLPC   H7Y 6204   4.795   4.716   9.432 -1.3090  0.3368  0.0398
   71SLPC   C38 6205   4.767   4.924   9.447 -0.4945  0.2503  0.2559
   71SLPC   H8X 6206   4.850   4.935   9.374 -1.6058  0.3027 -1.0256
   71SLPC   H8Y 6207   4.764   4.998   9.530 -1.6497  0.6151 -0.0844
   71SLPC   C39 6208   4.633   4.931   9.370 -0.3411  0.1143  0.9356
   71SLPC   H9X 6209   4.613   5.035   9.335 -0.1537  0.5663  2.1378
   71SLPC   H9Y 6210   4.553   4.913   9.445 -1.5222 -0.6668 -0.4749
   71SLPC  C310 6211   4.633   4.844   9.238 -0.5694 -0.8608 -0.2171
   71SLPC  H10X 6212   4.651   4.737   9.260  0.4913 -0.1173  3.0972
   71SLPC  H10Y 6213   4.727   4.875   9.187 -0.2943  1.3644  1.4758
   71SLPC  C311 6214   4.510   4.869   9.150 -0.4167 -0.4983  0.4316
   71SLPC  H11X 6215   4.500   4.978   9.131  1.4568 -0.5206 -0.9652
   71SLPC  H11Y 6216   4.419   4.822   9.195 -0.1255 -0.4982  1.0345
   71SLPC  C312 6217   4.532   4.779   9.030  0.2322 -0.3431 -0.2895
   71SLPC  H12X 6218   4.546   4.674   9.062  0.4493 -0.0282  0.7019
   71SLPC  H12Y 6219   4.620   4.813   8.971  1.2792 -1.4390  0.5808
   71SLPC  C313 6220   4.405   4.779   8.943 -0.0984  0.4895  0.4710
   71SLPC  H13X 6221   4.358   4.879   8.934  0.0825  0.5446  0.1338
   71SLPC  H13Y 6222   4.331   4.715   8.996  0.9861  1.4576  3.3549
   71SLPC  C314 6223   4.432   4.724   8.802 -0.8620  0.0175 -0.4848
   71SLPC  H14X 6224   4.474   4.621   8.807 -3.3732 -1.0412  0.2198
   71SLPC  H14Y 6225   4.505   4.789   8.750 -0.0185  0.2318  0.8951
   71SLPC  C315 6226   4.301   4.732   8.720  0.5039  0.0396 -0.3603
   71SLPC  H15X 6227   4.305   4.666   8.632 -2.9873 -1.6413  0.5704
   71SLPC  H15Y 6228   4.288   4.834   8.678  0.5694 -0.1776 -0.9127
   71SLPC  C316 6229   4.177   4.684   8.796 -0.5667 -1.1984 -0.2478
   71SLPC  H16X 6230   4.137   4.760   8.866  0.4754 -0.8629 -0.0056
   71SLPC  H16Y 6231   4.206   4.591   8.849  0.6120 -0.7259 -0.0392
   71SLPC  C317 6232   4.064   4.634   8.702 -0.4810 -0.3528 -0.0893
   71SLPC  H17X 6233   4.115   4.558   8.638 -4.4066 -3.9376  0.6598
   71SLPC  H17Y 6234   4.032   4.718   8.637  1.5336  1.0851  0.6479
   71SLPC  C318 6235   3.947   4.567   8.778 -0.5816  0.0132  0.7221
   71SLPC  H18X 6236   3.862   4.555   8.707  0.4813  1.6687 -0.9326
   71SLPC  H18Y 6237   3.923   4.639   8.860  2.6300  0.4114  1.4577
   71SLPC  H18Z 6238   3.995   4.482   8.831 -0.4474  0.7767  1.8564
   72SLPC     N 6239   6.142   4.679  10.946  0.8858 -0.0154 -0.0415
   72SLPC   C13 6240   6.002   4.671  10.899  0.3531 -0.0441  0.1768
   72SLPC  H13A 6241   5.962   4.771  10.898  0.9686  0.2005 -0.2112
   72SLPC  H13B 6242   5.991   4.634  10.798  2.6768  0.0384 -0.1569
   72SLPC  H13C 6243   5.945   4.610  10.968  0.6996 -3.1718 -2.0738
   72SLPC   C14 6244   6.139   4.717  11.096 -0.5026 -0.0089  1.1147
   72SLPC  H14A 6245   6.241   4.732  11.130  0.6017  1.5879 -2.4406
   72SLPC  H14B 6246   6.099   4.816  11.107  0.4146  0.3290  1.5590
   72SLPC  H14C 6247   6.081   4.644  11.152 -1.1218  0.1522  0.6859
   72SLPC   C15 6248   6.211   4.784  10.874 -0.2119 -0.5027  0.6860
   72SLPC  H15A 6249   6.230   4.760  10.771  3.0338 -1.1658  1.3259
   72SLPC  H15B 6250   6.157   4.877  10.888  3.8012  1.9966  1.2808
   72SLPC  H15C 6251   6.315   4.789  10.906  0.5852 -0.5325 -1.7395
   72SLPC   C12 6252   6.215   4.550  10.933  0.2457 -0.4681 -0.0187
   72SLPC  H12A 6253   6.208   4.511  10.833  0.0668 -0.6291  0.0564
   72SLPC  H12B 6254   6.162   4.480  10.996  0.5576 -2.1868 -1.5582
   72SLPC   C11 6255   6.370   4.548  10.964  0.7746 -0.3868 -0.3333
   72SLPC  H11A 6256   6.392   4.439  10.964  2.5284 -0.0602 -0.5282
   72SLPC  H11B 6257   6.388   4.589  11.065 -0.4651  3.2377 -1.4334
   72SLPC     P 6258   6.552   4.564  10.768  0.2567  0.2684  0.7598
   72SLPC   O13 6259   6.638   4.668  10.709  0.1324 -0.5214 -0.4668
   72SLPC   O14 6260   6.624   4.451  10.844  0.0861 -0.1836 -0.4986
   72SLPC   O12 6261   6.439   4.620  10.863  0.1369 -0.7113  0.6572
   72SLPC   O11 6262   6.461   4.498  10.658  0.1031 -0.0999 -0.2615
   72SLPC    C1 6263   6.369   4.578  10.587 -0.1006 -0.2671 -0.0051
   72SLPC    HA 6264   6.268   4.531  10.585  0.1857 -0.9242 -3.2814
   72SLPC    HB 6265   6.364   4.681  10.630  0.6169 -0.4716  0.5901
   72SLPC    C2 6266   6.409   4.621  10.444 -0.5508  0.5126  0.0244
   72SLPC    HS 6267   6.497   4.689  10.445  0.6762 -0.7859 -3.4977
   72SLPC   O21 6268   6.301   4.681  10.365 -0.2549 -0.3146 -0.1836
   72SLPC   C21 6269   6.294   4.814  10.376  0.1680 -0.1933 -0.0082
   72SLPC   O22 6270   6.360   4.891  10.443  0.0307 -0.0562 -0.3974
   72SLPC   C22 6271   6.177   4.862  10.294  0.7919  0.1620  0.8269
   72SLPC   H2R 6272   6.190   4.836  10.186  2.4972  1.4269  0.6894
   72SLPC   H2S 6273   6.081   4.819  10.330  0.4076  0.2651 -0.0508
   72SLPC    C3 6274   6.465   4.503  10.368  0.4374 -0.2355  0.0157
   72SLPC    HX 6275   6.388   4.423  10.372  0.8942 -0.6952 -0.3088
   72SLPC    HY 6276   6.553   4.463  10.421  0.2055  0.1394  0.6937
   72SLPC   O31 6277   6.500   4.522  10.225 -0.2237 -0.8664  0.7431
   72SLPC   C31 6278   6.610   4.593  10.209  0.5985 -1.2042 -0.7589
   72SLPC   O32 6279   6.687   4.620  10.302 -0.3596  0.4715 -0.3497
   72SLPC   C32 6280   6.618   4.642  10.066  0.3955  0.2664  0.1835
   72SLPC   H2X 6281   6.595   4.552  10.005  0.0062 -1.2210  2.4236
   72SLPC   H2Y 6282   6.724   4.664  10.043  0.8677 -4.0751 -3.2210
   72SLPC   C23 6283   6.163   5.018  10.300  1.1440  0.4632 -0.2604
   72SLPC   H3R 6284   6.263   5.064  10.284  0.9637  0.2835 -2.0621
   72SLPC   H3S 6285   6.118   5.040  10.399 -1.2072 -2.7375 -0.4732
   72SLPC   C24 6286   6.053   5.065  10.209  1.1237 -0.1163 -0.3849
   72SLPC   H4R 6287   6.007   5.163  10.236 -2.0982 -1.2229 -1.2936
   72SLPC   H4S 6288   5.974   4.990  10.232 -0.7000  2.0377  0.9104
   72SLPC   C25 6289   6.101   5.070  10.062  0.0266  0.3143  0.3600
   72SLPC   H5R 6290   6.172   4.985  10.048  0.3276  0.2527  2.0355
   72SLPC   H5S 6291   6.163   5.161  10.049  0.6337 -0.1622 -0.1287
   72SLPC   C26 6292   5.985   5.066   9.957 -0.4595  0.3883  0.0437
   72SLPC   H6R 6293   5.911   5.145   9.983  0.0853  1.1949 -0.8239
   72SLPC   H6S 6294   5.939   4.965   9.950  3.3094 -1.4653 -0.2982
   72SLPC   C27 6295   6.045   5.097   9.819 -0.2310 -0.3353 -0.0917
   72SLPC   H7R 6296   6.130   5.031   9.792 -0.6456 -1.0389  0.2852
   72SLPC   H7S 6297   6.081   5.202   9.814 -2.0922  0.2864 -1.3642
   72SLPC   C28 6298   5.944   5.065   9.698 -1.1242 -0.3316 -0.4556
   72SLPC   H8R 6299   5.847   5.115   9.720 -0.6133 -0.2672  2.0065
   72SLPC   H8S 6300   5.937   4.955   9.707  1.5870 -0.5121  0.6366
   72SLPC   C29 6301   5.998   5.103   9.564 -0.6176  0.1398  0.4258
   72SLPC   H9R 6302   6.094   5.058   9.534 -1.4469 -0.0516 -2.1887
   72SLPC  C210 6303   5.939   5.179   9.463  0.1942 -0.7335 -0.7254
   72SLPC  H10R 6304   5.999   5.206   9.374  2.0772 -1.4178  0.2668
   72SLPC  C211 6305   5.805   5.234   9.465  0.5977 -0.4602 -0.2063
   72SLPC  H11R 6306   5.816   5.345   9.455 -1.1069 -0.2766 -0.4866
   72SLPC  H11S 6307   5.744   5.228   9.557 -0.9594  0.4671 -1.1214
   72SLPC  C212 6308   5.724   5.169   9.355  0.5659 -0.0702 -0.0873
   72SLPC  H12R 6309   5.717   5.062   9.378 -1.4412  0.0759  0.1488
   72SLPC  C213 6310   5.667   5.221   9.241 -0.0595  0.3257 -0.3703
   72SLPC  H13R 6311   5.616   5.152   9.172  2.0504 -2.2842  0.5033
   72SLPC  C214 6312   5.668   5.369   9.202  0.3462  0.2189  0.0095
   72SLPC  H14R 6313   5.693   5.387   9.095  1.9867 -2.2895 -0.0860
   72SLPC  H14S 6314   5.738   5.428   9.264  1.1131 -0.2630 -0.3898
   72SLPC  C215 6315   5.529   5.438   9.210  0.3802 -0.7839 -0.5087
   72SLPC  H15R 6316   5.540   5.543   9.178 -1.4807 -0.4600 -0.2444
   72SLPC  H15S 6317   5.500   5.431   9.318 -5.0652 -0.9864 -1.6664
   72SLPC  C216 6318   5.417   5.384   9.122  1.5371  0.3674  0.0093
   72SLPC  H16R 6319   5.340   5.351   9.195  1.5445  2.1458  0.8653
   72SLPC  H16S 6320   5.451   5.300   9.057  2.1848  1.8152 -1.5986
   72SLPC  C217 6321   5.350   5.486   9.029  0.3008  0.1688  0.0184
   72SLPC  H17R 6322   5.307   5.576   9.078  2.1298  0.7580  0.6366
   72SLPC  H17S 6323   5.258   5.448   8.979 -0.1318  0.2722  0.7246
   72SLPC  C218 6324   5.453   5.532   8.925 -0.4154 -0.5017 -0.5668
   72SLPC  H18R 6325   5.406   5.550   8.825  0.4412 -0.6877 -1.0095
   72SLPC  H18S 6326   5.528   5.453   8.907  1.5216  1.3070 -0.8651
   72SLPC  H18T 6327   5.510   5.617   8.968 -0.2239 -0.9849  0.1343
   72SLPC   C33 6328   6.510   4.744  10.021  0.2773  0.2285 -0.3995
   72SLPC   H3X 6329   6.520   4.838  10.080  0.7808 -0.6721  0.9955
   72SLPC   H3Y 6330   6.407   4.715  10.050  0.7699  0.3195  1.5947
   72SLPC   C34 6331   6.511   4.773   9.871  0.4172 -0.7124 -0.4149
   72SLPC   H4X 6332   6.465   4.690   9.813  0.8172 -0.7178 -0.7281
   72SLPC   H4Y 6333   6.615   4.784   9.834 -0.1526 -0.0291 -1.8923
   72SLPC   C35 6334   6.439   4.902   9.842  1.0399 -0.0368 -0.3541
   72SLPC   H5X 6335   6.490   4.993   9.879  0.1266  0.2197  0.3079
   72SLPC   H5Y 6336   6.344   4.898   9.899  0.6662 -2.1673 -1.0167
   72SLPC   C36 6337   6.392   4.922   9.698 -0.0372  0.4982  0.0656
   72SLPC   H6X 6338   6.330   5.014   9.691 -0.2605  0.2377 -3.6412
   72SLPC   H6Y 6339   6.324   4.842   9.662 -0.5531  0.1124  1.8142
   72SLPC   C37 6340   6.515   4.925   9.605  0.3772  0.3749  0.0132
   72SLPC   H7X 6341   6.574   4.832   9.618 -0.2307  0.2513  2.2250
   72SLPC   H7Y 6342   6.571   5.015   9.640  0.0639 -0.2499  2.3088
   72SLPC   C38 6343   6.473   4.955   9.464 -0.8992 -0.1656 -0.2935
   72SLPC   H8X 6344   6.415   5.050   9.471  0.5688  0.9169 -2.0554
   72SLPC   H8Y 6345   6.398   4.882   9.426 -0.6158  0.4988 -2.2329
   72SLPC   C39 6346   6.592   4.968   9.364  0.0019  0.6068  0.3408
   72SLPC   H9X 6347   6.668   4.892   9.390 -0.2872  0.2593  0.1688
   72SLPC   H9Y 6348   6.645   5.065   9.376 -0.0035  0.8556 -1.3854
   72SLPC  C310 6349   6.546   4.957   9.220 -0.0879  0.2827 -0.5556
   72SLPC  H10X 6350   6.477   4.871   9.216  2.0156 -1.5786  0.8057
   72SLPC  H10Y 6351   6.637   4.924   9.164  1.7496 -0.9643  2.8558
   72SLPC  C311 6352   6.472   5.079   9.166  0.3014  0.1480  0.4608
   72SLPC  H11X 6353   6.542   5.165   9.173 -1.2970  1.5672 -0.0915
   72SLPC  H11Y 6354   6.390   5.108   9.235 -0.1302 -0.1841  0.0963
   72SLPC  C312 6355   6.426   5.056   9.025 -0.6502  0.0921  0.2616
   72SLPC  H12X 6356   6.359   4.967   9.027 -2.4716  1.3937  0.3075
   72SLPC  H12Y 6357   6.517   5.045   8.963 -0.5585 -3.1627  0.8374
   72SLPC  C313 6358   6.348   5.171   8.965  0.0840 -0.1118 -0.2305
   72SLPC  H13X 6359   6.316   5.154   8.860 -0.7701 -3.1442  0.4568
   72SLPC  H13Y 6360   6.410   5.263   8.956 -0.1379  0.1113  0.4710
   72SLPC  C314 6361   6.217   5.213   9.041 -0.6765 -0.1276  0.6366
   72SLPC  H14X 6362   6.230   5.247   9.146  0.0436 -2.6144  1.4115
   72SLPC  H14Y 6363   6.149   5.126   9.032 -1.1080  0.0672  1.7712
   72SLPC  C315 6364   6.150   5.332   8.970 -0.4827  0.0899  0.2983
   72SLPC  H15X 6365   6.122   5.297   8.869 -1.8922 -2.0623  1.3508
   72SLPC  H15Y 6366   6.215   5.422   8.966  0.9967 -0.9139  0.8819
   72SLPC  C316 6367   6.016   5.375   9.033 -0.2054  0.2641  0.6652
   72SLPC  H16X 6368   6.039   5.406   9.137 -1.2056 -0.4986  1.1276
   72SLPC  H16Y 6369   5.951   5.286   9.048 -1.5529  0.7614 -1.8114
   72SLPC  C317 6370   5.945   5.486   8.958  0.3442 -0.2597 -0.0077
   72SLPC  H17X 6371   6.016   5.550   8.901 -0.3510  0.4222 -0.1389
   72SLPC  H17Y 6372   5.885   5.552   9.024 -2.5398 -1.8205 -0.8802
   72SLPC  C318 6373   5.828   5.442   8.862 -0.3921 -0.0904 -0.2464
   72SLPC  H18X 6374   5.763   5.528   8.833  0.0488 -0.3842 -2.2766
   72SLPC  H18Y 6375   5.777   5.353   8.905 -0.6742 -0.2872 -0.9767
   72SLPC  H18Z 6376   5.875   5.406   8.768  2.5055 -0.4887  1.2476
   73SLPC     N 6377   6.531   1.872  10.929  0.2753  0.5920 -0.6286
   73SLPC   C13 6378   6.642   1.862  10.835  0.0946 -0.5577 -0.2090
   73SLPC  H13A 6379   6.716   1.941  10.846 -2.9910  2.6026 -0.4591
   73SLPC  H13B 6380   6.675   1.760  10.848  1.5206  0.0526  1.4230
   73SLPC  H13C 6381   6.595   1.861  10.738 -2.0436  0.1493  0.7639
   73SLPC   C14 6382   6.576   1.928  11.059 -0.4499 -0.1819 -0.3016
   73SLPC  H14A 6383   6.494   1.951  11.126 -0.8314 -4.0080  0.7846
   73SLPC  H14B 6384   6.637   1.854  11.108 -0.2799 -1.2722 -2.0485
   73SLPC  H14C 6385   6.633   2.018  11.045 -0.6122  0.3151  1.9052
   73SLPC   C15 6386   6.484   1.734  10.956  0.3570  0.1398 -0.5650
   73SLPC  H15A 6387   6.401   1.725  11.024  1.3233  3.3063  1.2447
   73SLPC  H15B 6388   6.461   1.683  10.864 -0.9302  0.3186 -0.3572
   73SLPC  H15C 6389   6.562   1.671  10.997 -0.5111 -1.9003 -1.8815
   73SLPC   C12 6390   6.415   1.958  10.880  0.5264 -0.2036  0.3404
   73SLPC  H12A 6391   6.440   2.062  10.867  0.6034 -0.2247  0.3163
   73SLPC  H12B 6392   6.346   1.961  10.963  0.8179  0.7308  0.5554
   73SLPC   C11 6393   6.344   1.923  10.751 -0.3839  0.0041 -0.6263
   73SLPC  H11A 6394   6.318   1.815  10.745 -1.3990  0.1694  0.4811
   73SLPC  H11B 6395   6.411   1.944  10.665 -0.0817  1.1829 -0.1192
   73SLPC     P 6396   6.100   1.973  10.818  0.0440  0.3506  0.2095
   73SLPC   O13 6397   6.079   1.824  10.812 -0.1897  0.0525 -0.7255
   73SLPC   O14 6398   6.113   2.027  10.956 -0.0662 -0.1425 -0.1237
   73SLPC   O12 6399   6.232   2.002  10.738  0.5750 -0.0903 -0.6646
   73SLPC   O11 6400   5.972   2.024  10.738 -0.1790 -0.4251  0.7009
   73SLPC    C1 6401   5.996   2.140  10.653  0.0869  0.3873 -0.2298
   73SLPC    HA 6402   6.082   2.208  10.676 -0.8085  1.4328  0.1332
   73SLPC    HB 6403   6.017   2.118  10.546  1.5637  0.9579 -0.0862
   73SLPC    C2 6404   5.865   2.227  10.649 -0.5573  0.0749 -0.9418
   73SLPC    HS 6405   5.849   2.257  10.754 -0.4283  0.2515 -0.9714
   73SLPC   O21 6406   5.754   2.139  10.605 -0.0129  0.3223  0.0135
   73SLPC   C21 6407   5.636   2.183  10.645  0.7056  0.0990 -0.3674
   73SLPC   O22 6408   5.614   2.283  10.713 -0.0021 -0.1735  0.1145
   73SLPC   C22 6409   5.529   2.092  10.584 -0.0030 -0.5793 -0.3254
   73SLPC   H2R 6410   5.571   2.016  10.514 -1.4653 -1.2888 -0.4604
   73SLPC   H2S 6411   5.494   2.031  10.669 -0.9203 -2.4640 -1.9851
   73SLPC    C3 6412   5.881   2.341  10.554  0.3936 -0.7475 -0.1721
   73SLPC    HX 6413   5.978   2.394  10.563 -0.1652  0.0114  2.1913
   73SLPC    HY 6414   5.823   2.427  10.595  1.5786  0.6503 -1.3269
   73SLPC   O31 6415   5.847   2.313  10.412  0.3171 -0.3260  0.1901
   73SLPC   C31 6416   5.741   2.371  10.365  0.5730  0.5053 -0.2070
   73SLPC   O32 6417   5.660   2.434  10.430 -0.5718 -0.2263 -0.3627
   73SLPC   C32 6418   5.723   2.322  10.212 -0.4362 -0.3728 -0.1314
   73SLPC   H2X 6419   5.728   2.211  10.212  2.7190 -0.3316  1.4425
   73SLPC   H2Y 6420   5.800   2.363  10.144 -1.2137  0.3448 -0.5897
   73SLPC   C23 6421   5.405   2.171  10.543 -0.2925 -0.4660 -0.5116
   73SLPC   H3R 6422   5.421   2.264  10.486 -1.6550 -1.2829 -2.3101
   73SLPC   H3S 6423   5.353   2.184  10.641  3.4543  0.3497  1.5749
   73SLPC   C24 6424   5.318   2.093  10.443  0.2373  0.6102 -0.9373
   73SLPC   H4R 6425   5.223   2.151  10.449 -2.3257 -3.3673  0.6826
   73SLPC   H4S 6426   5.302   1.994  10.490 -2.8340  1.6914  0.5354
   73SLPC   C25 6427   5.388   2.086  10.300 -0.2578 -0.2245 -0.5191
   73SLPC   H5R 6428   5.445   1.991  10.296  2.1255  1.0220  1.5603
   73SLPC   H5S 6429   5.459   2.171  10.293 -0.9344  0.3488 -0.5796
   73SLPC   C26 6430   5.286   2.089  10.191  0.1577  0.1277  0.2790
   73SLPC   H6R 6431   5.268   2.196  10.165  0.7388  0.6900  2.0016
   73SLPC   H6S 6432   5.187   2.049  10.219  1.3734 -2.8875  0.6757
   73SLPC   C27 6433   5.343   2.005  10.062 -0.2397  0.2675  0.4144
   73SLPC   H7R 6434   5.386   1.910  10.101 -0.5574 -0.6876 -1.4234
   73SLPC   H7S 6435   5.427   2.061  10.016  1.5913 -0.1900  3.0032
   73SLPC   C28 6436   5.234   1.958   9.959  0.1554 -0.1912  0.4927
   73SLPC   H8R 6437   5.144   1.938  10.021 -0.2508 -1.7790 -0.5473
   73SLPC   H8S 6438   5.275   1.873   9.900  2.5873  0.7626  0.6950
   73SLPC   C29 6439   5.178   2.056   9.859 -0.3241  0.4124 -0.0390
   73SLPC   H9R 6440   5.185   2.160   9.895 -0.1170  0.0119  1.1426
   73SLPC  C210 6441   5.128   2.029   9.738  0.1628  0.2009  0.4475
   73SLPC  H10R 6442   5.107   2.111   9.668  3.2872  0.9054  0.1582
   73SLPC  C211 6443   5.117   1.896   9.673  0.2555  0.6502  0.2615
   73SLPC  H11R 6444   5.205   1.833   9.700  0.3071 -0.0735 -1.4753
   73SLPC  H11S 6445   5.133   1.911   9.564 -0.5522  2.7904  0.3913
   73SLPC  C212 6446   4.990   1.816   9.689  0.7760 -0.2171  0.8582
   73SLPC  H12R 6447   4.919   1.863   9.759 -0.1127 -1.7236  1.0205
   73SLPC  C213 6448   4.964   1.695   9.636  0.5823  0.5685  0.2920
   73SLPC  H13R 6449   4.871   1.643   9.664  0.2332  1.8478  1.6063
   73SLPC  C214 6450   5.054   1.621   9.548  0.4313 -0.4181  0.5581
   73SLPC  H14R 6451   5.103   1.543   9.610 -1.2648 -2.4912 -0.5768
   73SLPC  H14S 6452   5.120   1.698   9.503  0.3641 -1.7227 -1.9108
   73SLPC  C215 6453   4.987   1.551   9.433 -1.1709  0.6811  0.0402
   73SLPC  H15R 6454   4.897   1.494   9.467 -0.4249 -0.2807  0.4377
   73SLPC  H15S 6455   5.051   1.472   9.389 -1.7735  1.0776 -1.6382
   73SLPC  C216 6456   4.941   1.641   9.314 -0.4320  0.3399 -0.2406
   73SLPC  H16R 6457   5.020   1.718   9.296  0.0094 -0.2949 -1.0677
   73SLPC  H16S 6458   4.850   1.701   9.337  0.3796  2.6289 -2.4606
   73SLPC  C217 6459   4.936   1.563   9.179  0.6662 -0.2035  0.1640
   73SLPC  H17R 6460   5.039   1.537   9.146  0.5972 -0.8028  0.4071
   73SLPC  H17S 6461   4.887   1.631   9.106 -4.3232 -1.6762  1.7545
   73SLPC  C218 6462   4.854   1.435   9.186 -0.1433  0.1139  0.1478
   73SLPC  H18R 6463   4.867   1.383   9.089  0.3155  0.0015  0.2690
   73SLPC  H18S 6464   4.746   1.460   9.197  0.1211  2.4129 -1.6885
   73SLPC  H18T 6465   4.892   1.369   9.266  0.4020 -0.0261 -0.2235
   73SLPC   C33 6466   5.589   2.378  10.147 -0.4475  0.7154 -0.4971
   73SLPC   H3X 6467   5.595   2.489  10.143 -0.8297  0.7434 -0.3565
   73SLPC   H3Y 6468   5.503   2.350  10.211  1.0380  2.2089  2.3025
   73SLPC   C34 6469   5.566   2.330  10.004  0.2095 -0.0768  0.5458
   73SLPC   H4X 6470   5.461   2.348   9.973 -0.4116 -0.0331  2.5373
   73SLPC   H4Y 6471   5.584   2.222   9.988 -0.8543 -0.1762 -0.0947
   73SLPC   C35 6472   5.653   2.390   9.888 -0.0596  0.3078  0.4030
   73SLPC   H5X 6473   5.761   2.367   9.896 -0.0960 -0.5523 -1.1101
   73SLPC   H5Y 6474   5.649   2.501   9.895 -0.9282  0.3437 -0.4837
   73SLPC   C36 6475   5.612   2.339   9.750 -1.0011  0.1143 -0.1802
   73SLPC   H6X 6476   5.630   2.229   9.750 -0.5310  0.1251  2.4764
   73SLPC   H6Y 6477   5.675   2.382   9.669  0.0845  0.9875  1.0871
   73SLPC   C37 6478   5.473   2.353   9.699  0.5515  0.4185  0.6091
   73SLPC   H7X 6479   5.447   2.461   9.701  0.0797  0.3440 -0.5466
   73SLPC   H7Y 6480   5.399   2.302   9.764 -0.6728  0.6954 -0.5247
   73SLPC   C38 6481   5.453   2.308   9.549 -0.3671 -0.2261 -0.0773
   73SLPC   H8X 6482   5.472   2.200   9.534 -3.3017 -0.8156 -0.1682
   73SLPC   H8Y 6483   5.540   2.362   9.507 -0.8103 -1.1183 -2.2313
   73SLPC   C39 6484   5.318   2.356   9.486  0.7398 -0.5806  0.2717
   73SLPC   H9X 6485   5.305   2.466   9.489  0.3289 -0.6210  0.0072
   73SLPC   H9Y 6486   5.239   2.319   9.555  0.8319 -0.3323  0.5124
   73SLPC  C310 6487   5.307   2.315   9.337 -0.2303  0.6179  0.2201
   73SLPC  H10X 6488   5.406   2.325   9.288 -0.1781 -2.3358 -0.5136
   73SLPC  H10Y 6489   5.234   2.380   9.285  0.0001  0.0767 -0.8188
   73SLPC  C311 6490   5.257   2.165   9.313 -0.9129 -0.0086  0.0530
   73SLPC  H11X 6491   5.156   2.150   9.357 -1.4761 -1.9511 -1.7290
   73SLPC  H11Y 6492   5.318   2.088   9.362 -1.3825 -1.0706 -0.9734
   73SLPC  C312 6493   5.236   2.143   9.170 -0.3688  0.0870  0.4429
   73SLPC  H12X 6494   5.332   2.121   9.118 -0.3265 -0.6972  0.8306
   73SLPC  H12Y 6495   5.206   2.239   9.124  0.3870  0.0736 -0.1011
   73SLPC  C313 6496   5.135   2.027   9.136 -0.2776  0.3286 -0.1595
   73SLPC  H13X 6497   5.040   2.045   9.190 -0.7016 -0.5232 -0.6121
   73SLPC  H13Y 6498   5.169   1.928   9.172  0.2898  0.1463 -1.1516
   73SLPC  C314 6499   5.112   2.013   8.982  0.4234 -1.1334 -1.1675
   73SLPC  H14X 6500   5.201   2.015   8.915  0.0238 -1.1191 -1.7090
   73SLPC  H14Y 6501   5.049   2.099   8.949  0.9330 -0.2787  0.0148
   73SLPC  C315 6502   5.035   1.887   8.961  0.3559 -0.3899  0.1774
   73SLPC  H15X 6503   4.956   1.876   9.039  0.1163  0.6938  0.0967
   73SLPC  H15Y 6504   5.096   1.794   8.972  1.0116 -0.0638 -0.6202
   73SLPC  C316 6505   4.976   1.882   8.818 -0.1916 -0.5667  0.0694
   73SLPC  H16X 6506   5.058   1.908   8.748 -0.7161 -1.1436 -0.7675
   73SLPC  H16Y 6507   4.897   1.960   8.817 -0.6412 -0.9518  1.5953
   73SLPC  C317 6508   4.914   1.749   8.776  0.2713 -0.2280  0.3641
   73SLPC  H17X 6509   4.881   1.750   8.670  0.0395 -1.3605  0.4075
   73SLPC  H17Y 6510   4.829   1.719   8.841  1.1534 -1.3466  1.0349
   73SLPC  C318 6511   5.006   1.630   8.779 -0.0425 -0.6641  1.0834
   73SLPC  H18X 6512   4.969   1.545   8.718  1.3368  0.6079 -1.6935
   73SLPC  H18Y 6513   5.022   1.585   8.880  1.4261 -0.7034  0.8623
   73SLPC  H18Z 6514   5.110   1.655   8.748  0.2751 -3.3218 -0.2066
   74SLPC     N 6515   1.577   5.072  10.874 -0.2260  0.1125 -0.5620
   74SLPC   C13 6516   1.596   4.971  10.985  0.2064  0.1182 -0.2445
   74SLPC  H13A 6517   1.658   5.006  11.067  1.2229  0.0958 -0.9918
   74SLPC  H13B 6518   1.506   4.961  11.043 -1.1940  1.8922 -1.9775
   74SLPC  H13C 6519   1.636   4.875  10.956 -1.6267 -0.4077 -1.1679
   74SLPC   C14 6520   1.703   5.074  10.786 -0.1141  0.8056 -0.3963
   74SLPC  H14A 6521   1.786   5.113  10.843  0.4284  1.1660 -1.4061
   74SLPC  H14B 6522   1.728   4.980  10.739  2.3169  0.2025  1.8500
   74SLPC  H14C 6523   1.679   5.147  10.710 -1.5449  2.8664  1.8902
   74SLPC   C15 6524   1.556   5.204  10.940  0.7522  0.1439  0.5190
   74SLPC  H15A 6525   1.574   5.290  10.877  0.9158  0.2087  0.6537
   74SLPC  H15B 6526   1.457   5.218  10.980  0.6298  2.7781 -0.5088
   74SLPC  H15C 6527   1.620   5.224  11.024 -0.4239  3.6685  0.7284
   74SLPC   C12 6528   1.455   5.036  10.791  0.7980  0.4909 -0.7065
   74SLPC  H12A 6529   1.374   5.014  10.860  0.7497 -1.4658 -1.3256
   74SLPC  H12B 6530   1.460   4.945  10.734 -2.4560 -0.4163  0.2262
   74SLPC   C11 6531   1.401   5.143  10.695 -1.0340  0.3985  0.1626
   74SLPC  H11A 6532   1.470   5.144  10.608 -0.4349  1.8376  0.6302
   74SLPC  H11B 6533   1.405   5.245  10.738  1.2757  0.3140  0.2695
   74SLPC     P 6534   1.147   5.200  10.676 -0.5609  0.3470  0.9373
   74SLPC   O13 6535   1.033   5.121  10.640  0.6228 -0.5496 -0.7704
   74SLPC   O14 6536   1.145   5.257  10.815  0.1683 -0.4657  0.3109
   74SLPC   O12 6537   1.273   5.108  10.649  0.3724 -0.0867 -0.3147
   74SLPC   O11 6538   1.161   5.324  10.583 -0.5447 -0.3783 -0.2281
   74SLPC    C1 6539   1.120   5.321  10.446  0.0933 -0.0765 -0.6090
   74SLPC    HA 6540   1.201   5.368  10.386 -0.2202  0.8650 -0.3037
   74SLPC    HB 6541   1.113   5.213  10.420  0.3551 -1.4679  4.2003
   74SLPC    C2 6542   1.004   5.421  10.409  0.0227 -0.3131  0.7022
   74SLPC    HS 6543   0.911   5.373  10.447 -1.0003  2.6872  2.2627
   74SLPC   O21 6544   1.006   5.442  10.262  0.1352  0.2724 -0.2397
   74SLPC   C21 6545   0.988   5.331  10.192 -0.2781  0.1185 -0.0765
   74SLPC   O22 6546   0.950   5.224  10.234  0.1977  0.3060 -0.1722
   74SLPC   C22 6547   1.001   5.361  10.040 -0.4294 -0.1992  0.0346
   74SLPC   H2R 6548   0.947   5.454  10.013 -0.8788 -0.6769 -0.7501
   74SLPC   H2S 6549   1.108   5.371  10.013 -0.2397 -2.7892 -0.3948
   74SLPC    C3 6550   1.018   5.554  10.480 -0.4297 -0.4104 -0.5545
   74SLPC    HX 6551   1.110   5.610  10.455 -3.2052  3.7866 -2.5798
   74SLPC    HY 6552   1.019   5.545  10.591  0.4185  1.4961 -0.3602
   74SLPC   O31 6553   0.910   5.653  10.450 -0.0737 -0.0528 -0.3266
   74SLPC   C31 6554   0.793   5.611  10.487  0.1033 -0.0699 -1.1505
   74SLPC   O32 6555   0.776   5.517  10.561 -0.0142  0.8761 -0.1703
   74SLPC   C32 6556   0.694   5.706  10.420 -0.3523  0.5687 -0.7726
   74SLPC   H2X 6557   0.705   5.697  10.310  1.8577 -0.4743 -0.5324
   74SLPC   H2Y 6558   0.732   5.805  10.452  0.8266 -0.2482  0.4768
   74SLPC   C23 6559   0.962   5.250   9.940  0.4347 -0.5705  0.2088
   74SLPC   H3R 6560   0.883   5.186   9.984  1.9912 -2.3206  0.5780
   74SLPC   H3S 6561   1.053   5.188   9.927 -0.1925 -2.0166  2.2107
   74SLPC   C24 6562   0.932   5.310   9.806 -0.3557 -0.9267  0.7656
   74SLPC   H4R 6563   1.019   5.376   9.785 -0.0131 -1.4575  0.4984
   74SLPC   H4S 6564   0.839   5.369   9.811  0.7765  1.2414 -1.5757
   74SLPC   C25 6565   0.938   5.212   9.690 -0.1949  1.1872  0.2219
   74SLPC   H5R 6566   0.853   5.140   9.687  1.8396 -1.3469 -0.5825
   74SLPC   H5S 6567   1.027   5.146   9.700 -1.7483 -0.9334  0.8369
   74SLPC   C26 6568   0.961   5.282   9.548  0.2557 -0.5511 -0.6312
   74SLPC   H6R 6569   1.049   5.351   9.550  0.9630 -1.4428  0.1880
   74SLPC   H6S 6570   0.875   5.345   9.519  1.7054  0.8986 -1.9956
   74SLPC   C27 6571   0.988   5.178   9.438  0.2870 -0.3187  0.4244
   74SLPC   H7R 6572   0.962   5.075   9.472  2.7771 -0.8154  1.0088
   74SLPC   H7S 6573   1.096   5.176   9.411  0.2310 -3.5013 -0.0254
   74SLPC   C28 6574   0.905   5.206   9.309 -0.1727  0.1885 -0.2672
   74SLPC   H8R 6575   0.948   5.145   9.227 -1.7392  0.6152 -1.4365
   74SLPC   H8S 6576   0.903   5.312   9.276 -0.5552  0.3241  0.1823
   74SLPC   C29 6577   0.760   5.154   9.317  0.1004 -0.2983 -0.2834
   74SLPC   H9R 6578   0.726   5.156   9.421  1.0209  2.3590  0.0368
   74SLPC  C210 6579   0.672   5.131   9.222  0.3917  0.4409 -0.0623
   74SLPC  H10R 6580   0.570   5.094   9.240  0.4147 -0.6232 -1.9434
   74SLPC  C211 6581   0.696   5.158   9.073 -0.4251  0.0851 -0.0562
   74SLPC  H11R 6582   0.713   5.061   9.022  0.7078  0.0565  0.3396
   74SLPC  H11S 6583   0.783   5.227   9.065 -0.3001 -0.2589 -1.9950
   74SLPC  C212 6584   0.580   5.235   9.010 -0.3726  0.6435  0.5059
   74SLPC  H12R 6585   0.482   5.223   9.059 -0.1873  0.3884  0.8208
   74SLPC  C213 6586   0.587   5.311   8.894 -0.1207  0.2263 -0.3779
   74SLPC  H13R 6587   0.509   5.380   8.857  1.4352  2.2820  0.0251
   74SLPC  C214 6588   0.715   5.323   8.809  0.3848 -0.0695 -0.1575
   74SLPC  H14R 6589   0.693   5.293   8.704  1.3649 -0.2973 -0.3138
   74SLPC  H14S 6590   0.786   5.240   8.833  1.9398  0.7050 -1.8297
   74SLPC  C215 6591   0.787   5.452   8.818  0.0017 -0.2256 -0.5061
   74SLPC  H15R 6592   0.719   5.525   8.770  0.6316 -0.2683 -1.4942
   74SLPC  H15S 6593   0.881   5.456   8.759 -0.7753 -0.5782 -1.7905
   74SLPC  C216 6594   0.824   5.476   8.968 -0.7747  0.5021  0.1016
   74SLPC  H16R 6595   0.899   5.402   9.004 -0.5109 -1.1479 -3.4729
   74SLPC  H16S 6596   0.734   5.472   9.033  0.5738  4.7556  2.6351
   74SLPC  C217 6597   0.881   5.616   8.983 -0.0003 -0.2177  0.5947
   74SLPC  H17R 6598   0.806   5.697   8.970  1.4114  0.7470 -2.4378
   74SLPC  H17S 6599   0.970   5.638   8.920  0.1311  0.6952  1.0770
   74SLPC  C218 6600   0.946   5.638   9.122 -0.6187  0.2881 -0.1460
   74SLPC  H18R 6601   1.018   5.559   9.152 -3.7202 -1.6880  2.9573
   74SLPC  H18S 6602   0.868   5.637   9.201  0.3140 -0.6144  0.7915
   74SLPC  H18T 6603   0.993   5.739   9.117  3.9437 -1.4388  2.3351
   74SLPC   C33 6604   0.556   5.656  10.464 -0.0492  0.4150 -0.0799
   74SLPC   H3X 6605   0.556   5.693  10.569 -2.0714  0.1290  0.0560
   74SLPC   H3Y 6606   0.548   5.546  10.466 -1.3055  0.4952 -0.0757
   74SLPC   C34 6607   0.437   5.702  10.380  1.0367 -0.2003  0.5265
   74SLPC   H4X 6608   0.466   5.687  10.274  1.4452 -0.7971  0.7103
   74SLPC   H4Y 6609   0.431   5.813  10.383 -2.0040 -0.2685 -0.3879
   74SLPC   C35 6610   0.299   5.642  10.413 -0.0160  0.2487  0.1453
   74SLPC   H5X 6611   0.267   5.684  10.511  1.3498  0.3762  0.5521
   74SLPC   H5Y 6612   0.314   5.533  10.433  1.4605  0.5107  0.6340
   74SLPC   C36 6613   0.187   5.685  10.314  0.3567  0.1391 -0.8728
   74SLPC   H6X 6614   0.222   5.636  10.220  1.5750 -2.0246  0.6326
   74SLPC   H6Y 6615   0.199   5.794  10.296  3.3563  0.1345  0.4562
   74SLPC   C37 6616   0.051   5.621  10.352  0.2136 -0.2267  0.1595
   74SLPC   H7X 6617   0.024   5.652  10.455  0.0545  2.0902 -0.5180
   74SLPC   H7Y 6618   0.065   5.511  10.344 -0.9184 -0.2976 -1.1390
   74SLPC   C38 6619  -0.060   5.681  10.257 -0.7156 -0.4841  0.7040
   74SLPC   H8X 6620  -0.118   5.592  10.224 -0.2614 -0.2943 -0.6662
   74SLPC   H8Y 6621  -0.011   5.727  10.168 -1.8710 -1.0477 -0.2580
   74SLPC   C39 6622  -0.143   5.797  10.309  0.4203  0.2217  1.0191
   74SLPC   H9X 6623  -0.084   5.890  10.300 -1.6953  1.4529 -1.5848
   74SLPC   H9Y 6624  -0.174   5.766  10.411  0.5708 -1.0411  0.6906
   74SLPC  C310 6625  -0.270   5.806  10.215 -0.6662 -0.0008  0.5089
   74SLPC  H10X 6626  -0.324   5.709  10.205  2.4789 -1.8258 -0.1606
   74SLPC  H10Y 6627  -0.229   5.837  10.117  0.7861  0.0119  1.0910
   74SLPC  C311 6628  -0.366   5.922  10.247 -0.3855  0.2259 -0.1222
   74SLPC  H11X 6629  -0.311   6.018  10.262  2.8313 -1.4873 -0.1708
   74SLPC  H11Y 6630  -0.410   5.900  10.347  0.6556  0.2788  0.3663
   74SLPC  C312 6631  -0.477   5.940  10.142 -0.7604 -0.3471  0.0276
   74SLPC  H12X 6632  -0.558   6.000  10.189  0.3438  0.4722  0.9667
   74SLPC  H12Y 6633  -0.511   5.837  10.122  0.2658 -1.0356  1.6573
   74SLPC  C313 6634  -0.447   6.011  10.009 -0.7004 -0.0625 -0.1648
   74SLPC  H13X 6635  -0.357   5.956   9.973  0.9692 -0.7971  4.4326
   74SLPC  H13Y 6636  -0.409   6.113  10.030 -1.0876 -0.0586  0.5179
   74SLPC  C314 6637  -0.546   6.005   9.898 -0.1130  0.0102 -0.1943
   74SLPC  H14X 6638  -0.651   6.029   9.926 -0.8769 -1.0840 -1.9846
   74SLPC  H14Y 6639  -0.577   5.910   9.849 -1.2680  0.7799 -1.0268
   74SLPC  C315 6640  -0.504   6.106   9.791  0.1871 -0.4193 -0.2650
   74SLPC  H15X 6641  -0.425   6.065   9.725 -0.1514  1.7877 -2.1694
   74SLPC  H15Y 6642  -0.465   6.195   9.844  2.5753 -0.7940 -1.2616
   74SLPC  C316 6643  -0.620   6.164   9.703 -0.0498 -0.3188 -0.0447
   74SLPC  H16X 6644  -0.564   6.227   9.630 -0.8822 -2.5261 -2.7981
   74SLPC  H16Y 6645  -0.690   6.226   9.763  1.9785  1.6112  0.4557
   74SLPC  C317 6646  -0.702   6.063   9.622 -0.1680 -0.7540  0.1560
   74SLPC  H17X 6647  -0.752   5.991   9.690  1.2565 -2.9232 -0.9731
   74SLPC  H17Y 6648  -0.625   6.005   9.567 -0.2399 -0.4547 -0.2609
   74SLPC  C318 6649  -0.807   6.126   9.528 -0.3883 -0.4254 -0.2462
   74SLPC  H18X 6650  -0.883   6.188   9.580 -0.2765 -0.7992  0.3699
   74SLPC  H18Y 6651  -0.861   6.050   9.468 -0.7466  0.3577 -0.9384
   74SLPC  H18Z 6652  -0.753   6.194   9.459  1.5130 -2.0028 -0.4047
   75SLPC     N 6653   6.587   6.435   6.457  0.8238  0.0659 -0.0528
   75SLPC   C13 6654   6.453   6.418   6.392  0.7548 -0.1938  0.0772
   75SLPC  H13A 6655   6.373   6.468   6.445  0.3147 -0.2931 -0.4883
   75SLPC  H13B 6656   6.468   6.451   6.290  0.8301  1.8822  0.7158
   75SLPC  H13C 6657   6.427   6.315   6.378  0.3683  0.2168 -2.8990
   75SLPC   C14 6658   6.650   6.570   6.444 -0.4818 -0.1893 -0.0527
   75SLPC  H14A 6659   6.568   6.639   6.456 -2.2467 -2.3758  1.2665
   75SLPC  H14B 6660   6.717   6.591   6.526 -2.4154 -0.4027  1.6609
   75SLPC  H14C 6661   6.696   6.576   6.346  2.3994  1.9624  1.2886
   75SLPC   C15 6662   6.680   6.341   6.386 -0.2564  0.6208 -0.4836
   75SLPC  H15A 6663   6.651   6.335   6.282  2.7651  0.1815 -1.3791
   75SLPC  H15B 6664   6.784   6.362   6.401  0.0550 -1.5076  0.5922
   75SLPC  H15C 6665   6.671   6.240   6.422  3.1268  0.8567  1.3978
   75SLPC   C12 6666   6.587   6.396   6.602  0.4571  0.2158 -0.5303
   75SLPC  H12A 6667   6.686   6.401   6.644 -0.2827 -1.0371  1.4773
   75SLPC  H12B 6668   6.556   6.293   6.610  1.5277 -0.1011 -0.3319
   75SLPC   C11 6669   6.493   6.475   6.699  0.1097 -0.0823 -0.0205
   75SLPC  H11A 6670   6.531   6.579   6.710 -1.5674  0.6263 -0.5664
   75SLPC  H11B 6671   6.482   6.417   6.793 -3.9475  1.7526  0.8556
   75SLPC     P 6672   6.276   6.621   6.655 -0.3530 -0.7069  0.1995
   75SLPC   O13 6673   6.348   6.721   6.573  0.6942  0.2563  0.6151
   75SLPC   O14 6674   6.138   6.589   6.608 -0.4840  0.0050 -0.0001
   75SLPC   O12 6675   6.356   6.484   6.644 -0.5375  0.1648  0.0580
   75SLPC   O11 6676   6.281   6.661   6.801 -0.3895 -0.2921 -0.1805
   75SLPC    C1 6677   6.268   6.570   6.911  0.4859  0.0016  0.6117
   75SLPC    HA 6678   6.182   6.603   6.974  0.6040  3.3372 -0.7754
   75SLPC    HB 6679   6.263   6.467   6.871 -0.2208 -0.1541  1.0863
   75SLPC    C2 6680   6.377   6.584   7.020 -0.2499  0.4380 -0.1997
   75SLPC    HS 6681   6.470   6.541   6.977  0.3146  0.9774  0.4422
   75SLPC   O21 6682   6.327   6.534   7.148 -0.1969 -1.0325 -0.2918
   75SLPC   C21 6683   6.398   6.448   7.210  0.1968 -0.4839 -0.5162
   75SLPC   O22 6684   6.493   6.383   7.170  0.3284 -0.4580  0.5349
   75SLPC   C22 6685   6.357   6.450   7.359 -0.4037 -0.4268 -0.7350
   75SLPC   H2R 6686   6.340   6.557   7.381 -3.8688 -0.8838 -0.6280
   75SLPC   H2S 6687   6.264   6.391   7.375  0.2337 -1.1507  0.5392
   75SLPC    C3 6688   6.407   6.733   7.042  0.0604  0.5034 -0.6464
   75SLPC    HX 6689   6.314   6.775   7.084 -0.0817 -0.7832  0.3780
   75SLPC    HY 6690   6.434   6.783   6.946  1.0547  1.9756  0.3571
   75SLPC   O31 6691   6.518   6.727   7.145 -0.4032  0.4520  0.4269
   75SLPC   C31 6692   6.643   6.726   7.092 -0.1458 -0.5712 -0.1348
   75SLPC   O32 6693   6.670   6.721   6.972  0.7381  0.1603 -0.1497
   75SLPC   C32 6694   6.747   6.749   7.199  0.1953 -0.2667  0.2425
   75SLPC   H2X 6695   6.805   6.841   7.176 -3.4902  1.9895 -0.9108
   75SLPC   H2Y 6696   6.819   6.666   7.184  1.1432  0.7309 -0.9482
   75SLPC   C23 6697   6.458   6.389   7.458 -0.0852  0.7250 -0.4379
   75SLPC   H3R 6698   6.551   6.449   7.452 -0.0382  0.6864 -0.0892
   75SLPC   H3S 6699   6.489   6.286   7.432 -1.2456  0.0216  0.8086
   75SLPC   C24 6700   6.410   6.388   7.602 -0.1930 -0.7116  0.7639
   75SLPC   H4R 6701   6.302   6.365   7.606 -0.7697  1.8836  3.0534
   75SLPC   H4S 6702   6.428   6.492   7.636  1.3416 -1.4024  2.1872
   75SLPC   C25 6703   6.488   6.292   7.688 -0.1543 -0.7437 -0.2510
   75SLPC   H5R 6704   6.596   6.319   7.691 -0.3610  0.0750  0.5718
   75SLPC   H5S 6705   6.488   6.198   7.630  1.4545 -0.0765 -1.4240
   75SLPC   C26 6706   6.441   6.253   7.831 -0.8613 -0.4286  0.4948
   75SLPC   H6R 6707   6.512   6.180   7.876 -0.7273 -0.8248 -0.3480
   75SLPC   H6S 6708   6.341   6.210   7.808  0.2628 -2.4572 -0.8830
   75SLPC   C27 6709   6.422   6.379   7.917 -0.3520 -0.6847 -0.9924
   75SLPC   H7R 6710   6.322   6.424   7.901  0.9154  2.1388 -1.5432
   75SLPC   H7S 6711   6.502   6.452   7.892  1.2955 -2.1898 -0.3628
   75SLPC   C28 6712   6.434   6.348   8.066  0.4251 -0.2727  0.8563
   75SLPC   H8R 6713   6.425   6.442   8.126  0.5429  0.8160 -0.7673
   75SLPC   H8S 6714   6.539   6.312   8.072  0.9606  1.3166  1.7253
   75SLPC   C29 6715   6.338   6.249   8.112  0.6983 -0.3198 -0.9440
   75SLPC   H9R 6716   6.275   6.201   8.036 -0.7458 -1.1768  0.7094
   75SLPC  C210 6717   6.315   6.228   8.246 -0.5911 -0.3135 -0.4258
   75SLPC  H10R 6718   6.238   6.156   8.277 -0.0927 -0.8000 -0.2996
   75SLPC  C211 6719   6.400   6.300   8.353  0.0636 -0.0150  0.3713
   75SLPC  H11R 6720   6.397   6.410   8.344 -0.1010 -0.0141  0.4380
   75SLPC  H11S 6721   6.502   6.257   8.344 -0.8626 -2.3336  0.2209
   75SLPC  C212 6722   6.346   6.277   8.493 -0.1801 -0.5244 -0.5907
   75SLPC  H12R 6723   6.376   6.182   8.538  0.0986 -0.3828 -0.4748
   75SLPC  C213 6724   6.252   6.352   8.554  0.5884 -0.4174 -0.5089
   75SLPC  H13R 6725   6.217   6.320   8.653 -2.0539  2.0108 -0.5478
   75SLPC  C214 6726   6.183   6.475   8.507 -0.3357 -0.4264 -0.5734
   75SLPC  H14R 6727   6.128   6.466   8.411  0.6042 -1.6393 -1.0462
   75SLPC  H14S 6728   6.261   6.554   8.506 -0.9716  0.2102 -1.0494
   75SLPC  C215 6729   6.071   6.506   8.595  0.3733  0.3642 -0.8255
   75SLPC  H15R 6730   6.099   6.516   8.703 -0.5329 -1.2720 -0.4133
   75SLPC  H15S 6731   6.000   6.422   8.582 -1.3215  1.8228 -1.4763
   75SLPC  C216 6732   5.987   6.631   8.570  0.3264 -0.4723  0.1277
   75SLPC  H16R 6733   5.925   6.614   8.480  0.6107 -0.8760  0.0028
   75SLPC  H16S 6734   6.054   6.719   8.556  1.6508 -1.5386 -0.4323
   75SLPC  C217 6735   5.889   6.651   8.685  0.8105 -0.3538 -0.5944
   75SLPC  H17R 6736   5.950   6.678   8.774  1.4258 -4.7389  0.5895
   75SLPC  H17S 6737   5.828   6.560   8.706 -4.9167  3.5470  2.2324
   75SLPC  C218 6738   5.790   6.767   8.656 -0.4498 -0.7044  0.1469
   75SLPC  H18R 6739   5.701   6.729   8.602 -0.9212 -1.3250  1.3392
   75SLPC  H18S 6740   5.839   6.858   8.613 -0.5720 -0.5717  0.2862
   75SLPC  H18T 6741   5.747   6.804   8.752 -1.5539  1.1739 -0.9980
   75SLPC   C33 6742   6.703   6.746   7.344 -0.0785 -0.9858  0.3224
   75SLPC   H3X 6743   6.628   6.827   7.354 -0.4017 -0.9856 -1.7176
   75SLPC   H3Y 6744   6.647   6.655   7.377  1.1356 -1.0811  2.2996
   75SLPC   C34 6745   6.820   6.758   7.441  0.2028  0.0258 -0.2470
   75SLPC   H4X 6746   6.860   6.861   7.434  3.0604 -0.9090  0.9171
   75SLPC   H4Y 6747   6.904   6.690   7.416 -0.0787 -0.1721 -0.6902
   75SLPC   C35 6748   6.777   6.725   7.582  0.2841 -0.5628  0.1177
   75SLPC   H5X 6749   6.726   6.627   7.582  0.8011 -0.8387  0.6142
   75SLPC   H5Y 6750   6.718   6.814   7.612  1.5441  0.4549 -0.3428
   75SLPC   C36 6751   6.892   6.729   7.682 -1.0776  0.4921  0.0613
   75SLPC   H6X 6752   6.929   6.832   7.704 -0.4357  0.7017 -1.8133
   75SLPC   H6Y 6753   6.972   6.662   7.645 -0.7506  1.1590 -0.4568
   75SLPC   C37 6754   6.853   6.691   7.825 -0.3019  0.3737  0.2755
   75SLPC   H7X 6755   6.803   6.592   7.823 -1.1372  0.7827 -1.9895
   75SLPC   H7Y 6756   6.789   6.766   7.877  0.7306  1.1117  0.5102
   75SLPC   C38 6757   6.968   6.693   7.932  0.8012  0.1837  0.4690
   75SLPC   H8X 6758   7.057   6.636   7.897  0.7229  0.9088 -0.9885
   75SLPC   H8Y 6759   6.915   6.648   8.019  1.0047  1.5960  1.3411
   75SLPC   C39 6760   7.009   6.834   7.973 -0.4090 -0.4329  0.7510
   75SLPC   H9X 6761   6.926   6.904   7.994 -0.1425 -0.2166  1.0961
   75SLPC   H9Y 6762   7.065   6.881   7.890  0.0980  0.0386  1.3471
   75SLPC  C310 6763   7.108   6.832   8.090 -0.4951  0.3452  0.0895
   75SLPC  H10X 6764   7.170   6.925   8.085  1.3550 -0.8236  0.1814
   75SLPC  H10Y 6765   7.177   6.745   8.093 -0.2078  0.3965 -2.5640
   75SLPC  C311 6766   7.029   6.848   8.224  0.2719 -0.7061 -0.0266
   75SLPC  H11X 6767   6.969   6.755   8.237 -0.8739  0.0135 -0.0150
   75SLPC  H11Y 6768   6.959   6.933   8.206  1.9055  0.6884 -0.0239
   75SLPC  C312 6769   7.113   6.878   8.351 -0.0068  0.1882  0.4772
   75SLPC  H12X 6770   7.169   6.973   8.343  0.8278 -0.2389  1.0877
   75SLPC  H12Y 6771   7.189   6.804   8.384 -1.3208 -0.2789  2.7340
   75SLPC  C313 6772   7.030   6.896   8.481  0.3602 -0.3935  0.1356
   75SLPC  H13X 6773   6.991   6.798   8.517 -1.0285  0.0443 -0.1127
   75SLPC  H13Y 6774   6.940   6.954   8.452  0.5060 -1.4284 -2.7913
   75SLPC  C314 6775   7.121   6.964   8.587 -0.4064  0.2304 -1.0489
   75SLPC  H14X 6776   7.066   6.980   8.681  2.3040  1.7531  0.4184
   75SLPC  H14Y 6777   7.169   7.062   8.563  0.7470 -0.4602 -1.6696
   75SLPC  C315 6778   7.241   6.870   8.630  0.3316 -0.0149 -0.4428
   75SLPC  H15X 6779   7.306   6.831   8.549  1.0039  2.0386 -0.9513
   75SLPC  H15Y 6780   7.190   6.783   8.677 -0.2024  1.1189  1.1590
   75SLPC  C316 6781   7.338   6.935   8.732  0.1340  0.2049 -0.1255
   75SLPC  H16X 6782   7.291   6.944   8.832  0.3316  1.5051 -0.1361
   75SLPC  H16Y 6783   7.371   7.031   8.687 -0.8341  1.0806  0.9974
   75SLPC  C317 6784   7.470   6.855   8.747 -0.4328  0.7193  0.0480
   75SLPC  H17X 6785   7.522   6.847   8.649  1.2140  1.2442  0.8424
   75SLPC  H17Y 6786   7.453   6.751   8.782  0.4656  0.1491 -1.1459
   75SLPC  C318 6787   7.564   6.922   8.847 -0.2995 -0.0629 -0.1476
   75SLPC  H18X 6788   7.512   6.930   8.944 -0.7556 -1.8531 -0.2232
   75SLPC  H18Y 6789   7.576   7.025   8.805 -3.5037  0.5779  0.2702
   75SLPC  H18Z 6790   7.657   6.864   8.866 -0.7280 -0.2968  1.3206
   76SLPC     N 6791   1.574   4.753   6.316 -0.3189 -0.1360  0.0493
   76SLPC   C13 6792   1.491   4.686   6.211  0.0624  0.1220 -0.2646
   76SLPC  H13A 6793   1.507   4.740   6.119 -1.1080 -0.3899 -0.7846
   76SLPC  H13B 6794   1.515   4.582   6.194  0.8215 -0.0520  1.6776
   76SLPC  H13C 6795   1.385   4.697   6.228  0.1930  0.2739  0.4654
   76SLPC   C14 6796   1.523   4.890   6.333  0.2651 -0.3842 -0.2346
   76SLPC  H14A 6797   1.421   4.891   6.370  0.1607 -1.8703 -0.4545
   76SLPC  H14B 6798   1.587   4.944   6.402 -0.9840 -0.0167  0.6839
   76SLPC  H14C 6799   1.530   4.946   6.241 -1.8204  1.6684  0.7419
   76SLPC   C15 6800   1.712   4.752   6.274 -0.1397  0.1310  0.4056
   76SLPC  H15A 6801   1.743   4.649   6.284  1.8656  0.7758  1.5373
   76SLPC  H15B 6802   1.712   4.789   6.172 -1.1749  0.9187  0.6760
   76SLPC  H15C 6803   1.783   4.811   6.330  1.3985 -0.4817 -0.8127
   76SLPC   C12 6804   1.552   4.674   6.449  0.8815 -0.0821  0.2970
   76SLPC  H12A 6805   1.448   4.684   6.476  0.1719 -1.7099 -1.6194
   76SLPC  H12B 6806   1.600   4.726   6.530 -1.1282  1.9875  0.2719
   76SLPC   C11 6807   1.587   4.521   6.456 -0.0949 -0.4483  0.6741
   76SLPC  H11A 6808   1.527   4.458   6.386 -0.6445 -0.6704  1.3312
   76SLPC  H11B 6809   1.552   4.481   6.553  1.8154 -2.2448  0.6992
   76SLPC     P 6810   1.828   4.484   6.560  0.2402  0.0643 -0.1631
   76SLPC   O13 6811   1.941   4.411   6.505 -0.4831 -0.5886 -0.0858
   76SLPC   O14 6812   1.852   4.613   6.620 -0.3440 -0.2514 -0.4159
   76SLPC   O12 6813   1.724   4.496   6.444 -0.6330  0.0047  0.1393
   76SLPC   O11 6814   1.747   4.383   6.653 -0.3128 -0.2922  0.3636
   76SLPC    C1 6815   1.692   4.424   6.777  0.2909 -0.6925 -0.0150
   76SLPC    HA 6816   1.667   4.532   6.787 -2.5868 -1.4737  3.0627
   76SLPC    HB 6817   1.586   4.391   6.780 -0.2121  0.7339  4.2148
   76SLPC    C2 6818   1.760   4.365   6.902 -0.5890 -0.2088 -0.6609
   76SLPC    HS 6819   1.721   4.413   6.994 -0.4662 -0.6468 -0.3759
   76SLPC   O21 6820   1.902   4.373   6.900 -0.4182  0.8230  0.2743
   76SLPC   C21 6821   1.955   4.496   6.911  0.9616 -0.2391 -0.1546
   76SLPC   O22 6822   1.892   4.595   6.941 -0.0085  0.7178 -0.5506
   76SLPC   C22 6823   2.104   4.487   6.877  0.4879 -0.3095  0.2993
   76SLPC   H2R 6824   2.133   4.380   6.882  1.0031 -0.2493 -1.0190
   76SLPC   H2S 6825   2.125   4.512   6.771  1.8673  0.8425  0.8057
   76SLPC    C3 6826   1.729   4.217   6.929  0.0996 -0.2825 -0.2991
   76SLPC    HX 6827   1.776   4.152   6.852  1.0379  0.9381 -0.7876
   76SLPC    HY 6828   1.619   4.204   6.926 -0.4605  1.2358  4.7289
   76SLPC   O31 6829   1.780   4.168   7.061  0.3975  0.0582  1.0823
   76SLPC   C31 6830   1.905   4.113   7.071 -0.2528  0.2721 -0.4654
   76SLPC   O32 6831   1.968   4.074   6.972 -0.6328 -0.4769 -0.6816
   76SLPC   C32 6832   1.955   4.112   7.216 -0.0301  0.1848  0.5092
   76SLPC   H2X 6833   2.066   4.118   7.221 -0.0445 -0.3043  1.8424
   76SLPC   H2Y 6834   1.919   4.029   7.280 -1.7712  1.5722  1.4252
   76SLPC   C23 6835   2.195   4.581   6.964 -0.7225  0.3253  1.0287
   76SLPC   H3R 6836   2.185   4.687   6.933  3.7174  1.4044  2.5848
   76SLPC   H3S 6837   2.298   4.564   6.928 -0.9598  0.8678  0.0683
   76SLPC   C24 6838   2.173   4.565   7.116 -0.0449  0.2177 -0.8263
   76SLPC   H4R 6839   2.062   4.576   7.122  0.0426  1.6519 -1.4344
   76SLPC   H4S 6840   2.222   4.649   7.170 -0.0845  0.0496 -0.5273
   76SLPC   C25 6841   2.238   4.440   7.173  0.5685 -0.2080  0.1579
   76SLPC   H5R 6842   2.342   4.430   7.136  0.4192  0.6067 -0.5151
   76SLPC   H5S 6843   2.189   4.346   7.140  0.8146 -0.1031 -0.5091
   76SLPC   C26 6844   2.261   4.438   7.324 -0.3766 -0.3406 -0.1237
   76SLPC   H6R 6845   2.298   4.337   7.352  2.3714  0.4524 -0.6705
   76SLPC   H6S 6846   2.172   4.467   7.384 -0.0384 -0.3291  0.3817
   76SLPC   C27 6847   2.379   4.525   7.377  0.3390  0.2365  0.6286
   76SLPC   H7R 6848   2.387   4.615   7.312  0.2150 -0.3070 -0.1578
   76SLPC   H7S 6849   2.473   4.469   7.358 -0.8528 -2.3582  1.9344
   76SLPC   C28 6850   2.376   4.563   7.523 -0.4075 -0.3264 -0.3058
   76SLPC   H8R 6851   2.473   4.610   7.554 -1.5108 -0.0651  3.2225
   76SLPC   H8S 6852   2.306   4.648   7.536 -1.0059 -0.7752 -0.6010
   76SLPC   C29 6853   2.352   4.442   7.618 -0.2309  0.0233  0.3654
   76SLPC   H9R 6854   2.358   4.344   7.568 -0.3896 -0.6606  1.6397
   76SLPC  C210 6855   2.332   4.444   7.752 -0.0503 -0.6240  0.0887
   76SLPC  H10R 6856   2.324   4.348   7.805  1.3810  0.1744  1.9189
   76SLPC  C211 6857   2.352   4.564   7.838 -0.3535 -0.4814  0.3431
   76SLPC  H11R 6858   2.247   4.601   7.842 -0.5558 -0.6999 -1.8119
   76SLPC  H11S 6859   2.393   4.650   7.781 -2.8773 -0.5836 -1.8516
   76SLPC  C212 6860   2.422   4.546   7.970 -0.0643  0.1716 -0.2278
   76SLPC  H12R 6861   2.526   4.581   7.975  0.2992 -0.8091 -0.7571
   76SLPC  C213 6862   2.362   4.469   8.068 -0.0431 -0.2952 -0.4936
   76SLPC  H13R 6863   2.396   4.467   8.172 -2.6857 -0.1816  0.4463
   76SLPC  C214 6864   2.222   4.419   8.058 -0.4823 -0.7129 -0.7835
   76SLPC  H14R 6865   2.216   4.324   8.001  0.3693 -1.4020  0.2292
   76SLPC  H14S 6866   2.145   4.485   8.012 -2.7674  1.0271  4.6322
   76SLPC  C215 6867   2.164   4.406   8.200  0.1285  1.0154  0.3618
   76SLPC  H15R 6868   2.234   4.346   8.263 -1.6919 -0.0639  1.4625
   76SLPC  H15S 6869   2.070   4.346   8.196 -0.0574  0.8743  3.6328
   76SLPC  C216 6870   2.126   4.533   8.273 -0.4341  0.2737  0.3836
   76SLPC  H16R 6871   2.068   4.600   8.205 -0.3067 -0.7079 -0.7252
   76SLPC  H16S 6872   2.216   4.589   8.306  0.5751 -1.7362  1.2111
   76SLPC  C217 6873   2.041   4.521   8.393 -0.0247  0.1917 -0.4486
   76SLPC  H17R 6874   1.940   4.494   8.358  0.3484  1.6599 -2.8938
   76SLPC  H17S 6875   2.044   4.622   8.439  2.1484 -0.0135 -0.0070
   76SLPC  C218 6876   2.112   4.422   8.494  0.2028 -0.0625  0.8225
   76SLPC  H18R 6877   2.057   4.419   8.591  0.4960 -0.8251  0.9702
   76SLPC  H18S 6878   2.215   4.458   8.514  0.0803  0.1671  1.0573
   76SLPC  H18T 6879   2.099   4.317   8.460  0.1539 -0.1220  1.0166
   76SLPC   C33 6880   1.914   4.236   7.291 -0.5390  0.2862 -0.2158
   76SLPC   H3X 6881   1.803   4.238   7.296 -0.7512 -3.8199  0.3867
   76SLPC   H3Y 6882   1.957   4.325   7.241  0.3111  0.3567  0.6034
   76SLPC   C34 6883   1.975   4.239   7.432  0.0005 -0.0615  0.5038
   76SLPC   H4X 6884   2.086   4.237   7.417  0.0464  2.1127  0.1615
   76SLPC   H4Y 6885   1.938   4.152   7.490 -0.7885 -0.2117 -0.2131
   76SLPC   C35 6886   1.929   4.364   7.510 -0.2317 -0.5062 -0.1808
   76SLPC   H5X 6887   1.833   4.400   7.468  1.1722 -0.1344 -3.3326
   76SLPC   H5Y 6888   1.992   4.454   7.494 -1.1340  0.1273 -0.1983
   76SLPC   C36 6889   1.918   4.332   7.654  0.0633  0.0967 -0.5728
   76SLPC   H6X 6890   2.020   4.333   7.698  0.2257  0.4890 -0.9580
   76SLPC   H6Y 6891   1.858   4.238   7.656 -1.5530  1.0127 -2.5867
   76SLPC   C37 6892   1.842   4.426   7.727 -0.4512  0.0131 -0.0325
   76SLPC   H7X 6893   1.744   4.448   7.679  0.8693  2.3150 -1.8858
   76SLPC   H7Y 6894   1.888   4.527   7.722 -0.7167  0.1200 -0.4364
   76SLPC   C38 6895   1.815   4.387   7.875 -0.1169  0.9974 -0.1441
   76SLPC   H8X 6896   1.748   4.470   7.908  1.0654  3.2059 -2.8875
   76SLPC   H8Y 6897   1.919   4.386   7.915  0.8773 -2.2176 -2.3982
   76SLPC   C39 6898   1.765   4.245   7.892  0.2314 -0.0803 -0.1109
   76SLPC   H9X 6899   1.845   4.177   7.855 -0.4520 -0.3692 -1.1197
   76SLPC   H9Y 6900   1.666   4.229   7.843  0.6588  0.1818 -1.0844
   76SLPC  C310 6901   1.748   4.217   8.042  0.0077  0.0142 -0.1276
   76SLPC  H10X 6902   1.834   4.264   8.095  0.5123 -1.5007  0.4464
   76SLPC  H10Y 6903   1.752   4.109   8.066 -1.0057  0.1424  0.7032
   76SLPC  C311 6904   1.617   4.284   8.091  0.2176  0.4469 -1.3707
   76SLPC  H11X 6905   1.532   4.238   8.036 -0.3218  0.3802 -0.4996
   76SLPC  H11Y 6906   1.626   4.394   8.076 -0.0261  0.3136 -2.6315
   76SLPC  C312 6907   1.594   4.245   8.244 -0.2866  0.3566  0.3129
   76SLPC  H12X 6908   1.684   4.284   8.296 -0.3833  2.2620 -0.8289
   76SLPC  H12Y 6909   1.591   4.134   8.253  1.6709  0.3575  1.5921
   76SLPC  C313 6910   1.467   4.308   8.305  0.4134 -0.2493  0.3996
   76SLPC  H13X 6911   1.453   4.413   8.271 -0.2749 -0.2835  0.5676
   76SLPC  H13Y 6912   1.484   4.302   8.415  2.3497  0.7248  0.1902
   76SLPC  C314 6913   1.341   4.233   8.270  0.0177 -0.0470  0.1586
   76SLPC  H14X 6914   1.320   4.136   8.319 -2.4279  0.8142  0.9901
   76SLPC  H14Y 6915   1.346   4.216   8.160  2.6259 -1.0217  0.3659
   76SLPC  C315 6916   1.216   4.320   8.268 -1.2371 -0.4940  0.4113
   76SLPC  H15X 6917   1.131   4.258   8.232 -0.4421 -0.5730 -1.4273
   76SLPC  H15Y 6918   1.227   4.405   8.198 -1.3869 -0.5444  0.3244
   76SLPC  C316 6919   1.185   4.395   8.403  0.6810  0.0386  0.4217
   76SLPC  H16X 6920   1.283   4.440   8.431  0.4068  2.0338 -1.5623
   76SLPC  H16Y 6921   1.153   4.322   8.481  0.5094 -0.5811 -0.2217
   76SLPC  C317 6922   1.078   4.505   8.400  0.1909  0.4357 -1.1252
   76SLPC  H17X 6923   0.986   4.453   8.366 -1.1830  1.3793  0.9712
   76SLPC  H17Y 6924   1.115   4.566   8.314  2.6739 -1.0990 -1.2342
   76SLPC  C318 6925   1.075   4.578   8.534  0.1225 -0.8286  0.0207
   76SLPC  H18X 6926   1.003   4.661   8.518  1.3215 -0.2142 -2.9036
   76SLPC  H18Y 6927   1.176   4.616   8.561 -0.3886 -0.2002  1.1136
   76SLPC  H18Z 6928   1.044   4.510   8.616  0.2963  0.9505  1.6377
   77SLPC     N 6929   2.440   3.832   6.192  0.5601 -0.3910  0.0868
   77SLPC   C13 6930   2.375   3.963   6.157 -0.2358 -0.3091 -0.0431
   77SLPC  H13A 6931   2.447   4.040   6.176  0.3156 -0.5563 -1.0601
   77SLPC  H13B 6932   2.356   3.969   6.051  1.7001 -1.3637 -0.4854
   77SLPC  H13C 6933   2.279   3.984   6.202 -1.3813  0.6839 -2.7352
   77SLPC   C14 6934   2.562   3.822   6.110 -0.2008 -0.5531 -0.2504
   77SLPC  H14A 6935   2.609   3.724   6.107 -1.1332 -1.0455  0.6359
   77SLPC  H14B 6936   2.538   3.842   6.007  3.2786  0.3929 -1.0201
   77SLPC  H14C 6937   2.634   3.895   6.143  1.1417 -0.6897 -2.6089
   77SLPC   C15 6938   2.348   3.725   6.148 -0.1133 -0.2791 -0.1001
   77SLPC  H15A 6939   2.324   3.730   6.043  3.5190  1.5645 -1.0052
   77SLPC  H15B 6940   2.379   3.622   6.162  0.3080 -0.4365 -1.9639
   77SLPC  H15C 6941   2.261   3.723   6.213  0.0639  0.7862  0.1862
   77SLPC   C12 6942   2.464   3.820   6.341 -0.2652 -0.7218  0.0772
   77SLPC  H12A 6943   2.523   3.902   6.379  0.6282 -1.2719 -0.0812
   77SLPC  H12B 6944   2.521   3.728   6.352  2.0197  0.6854  0.7732
   77SLPC   C11 6945   2.348   3.809   6.437 -0.9960 -0.0744  0.5620
   77SLPC  H11A 6946   2.390   3.784   6.537  2.1181 -0.8682 -0.8266
   77SLPC  H11B 6947   2.276   3.727   6.415 -0.8229 -0.8737  2.7529
   77SLPC     P 6948   2.328   4.063   6.508  0.0573 -0.2711 -0.5759
   77SLPC   O13 6949   2.437   4.120   6.428  0.4622 -0.6341 -0.0606
   77SLPC   O14 6950   2.212   4.155   6.549 -0.0937  0.3892 -0.3244
   77SLPC   O12 6951   2.273   3.924   6.449 -0.1102 -0.1613  0.7722
   77SLPC   O11 6952   2.402   4.010   6.642 -0.5774  0.3712  0.1467
   77SLPC    C1 6953   2.312   3.961   6.747 -0.1998  0.0444  0.4806
   77SLPC    HA 6954   2.242   4.045   6.765 -1.5521 -0.9548  0.0673
   77SLPC    HB 6955   2.250   3.878   6.706  0.3359 -0.5515  0.8624
   77SLPC    C2 6956   2.388   3.908   6.869 -0.0124 -0.6387  0.5843
   77SLPC    HS 6957   2.313   3.885   6.948  0.5204 -0.3449  1.1763
   77SLPC   O21 6958   2.489   3.997   6.912 -0.6718  0.7668 -0.0582
   77SLPC   C21 6959   2.444   4.109   6.969  0.0249  0.4531 -0.4117
   77SLPC   O22 6960   2.329   4.128   7.006  0.0857 -0.0200  0.7625
   77SLPC   C22 6961   2.556   4.208   6.968  0.8300 -0.3260  0.5699
   77SLPC   H2R 6962   2.588   4.224   6.863 -0.5634 -1.1883 -0.0120
   77SLPC   H2S 6963   2.511   4.306   6.994  0.5012 -0.1074 -0.7728
   77SLPC    C3 6964   2.448   3.769   6.824 -0.4975  0.2513  0.4067
   77SLPC    HX 6965   2.507   3.771   6.730  2.4179 -0.8711  2.0527
   77SLPC    HY 6966   2.359   3.705   6.810 -1.4615  1.5994  0.1694
   77SLPC   O31 6967   2.531   3.709   6.926 -0.3562  0.1739 -0.1801
   77SLPC   C31 6968   2.664   3.734   6.911  0.2759  0.6222  0.0612
   77SLPC   O32 6969   2.715   3.787   6.814  0.3315  0.1688 -0.6837
   77SLPC   C32 6970   2.750   3.676   7.027  0.0502 -0.1407  0.5209
   77SLPC   H2X 6971   2.855   3.691   6.993 -0.4563 -0.2782 -1.2207
   77SLPC   H2Y 6972   2.718   3.570   7.031 -2.9482  0.5236 -1.6708
   77SLPC   C23 6973   2.670   4.176   7.059 -0.9127 -0.2880  0.2730
   77SLPC   H3R 6974   2.736   4.264   7.070 -0.2110 -0.9413  1.5324
   77SLPC   H3S 6975   2.733   4.093   7.019  0.4873  1.8499 -2.3412
   77SLPC   C24 6976   2.622   4.153   7.203  0.1892  0.2462  0.3619
   77SLPC   H4R 6977   2.566   4.058   7.217  1.4857 -0.6153 -0.0988
   77SLPC   H4S 6978   2.542   4.225   7.229 -0.7217 -1.4965  2.8499
   77SLPC   C25 6979   2.739   4.158   7.303  0.6062 -0.3507  0.3206
   77SLPC   H5R 6980   2.806   4.245   7.288  1.6316 -0.6587  2.6485
   77SLPC   H5S 6981   2.800   4.066   7.285 -0.6871 -1.0298 -0.8199
   77SLPC   C26 6982   2.686   4.150   7.443  0.0200  0.1457  0.8465
   77SLPC   H6R 6983   2.627   4.056   7.454 -0.8898  0.6024  0.0248
   77SLPC   H6S 6984   2.617   4.236   7.459 -2.6042 -1.4155 -1.1280
   77SLPC   C27 6985   2.788   4.152   7.552  0.4641  0.2388 -0.3900
   77SLPC   H7R 6986   2.876   4.215   7.527  0.2245  1.4039  1.5023
   77SLPC   H7S 6987   2.834   4.051   7.563  0.0444  0.0756 -0.1062
   77SLPC   C28 6988   2.724   4.195   7.686  0.5710  1.3316  0.2798
   77SLPC   H8R 6989   2.640   4.124   7.692  0.4857  1.4391  0.3733
   77SLPC   H8S 6990   2.675   4.295   7.686 -0.9208  0.6324 -1.2505
   77SLPC   C29 6991   2.819   4.172   7.803 -0.0007  0.0049  0.1086
   77SLPC   H9R 6992   2.924   4.184   7.773  0.1463 -0.5945  0.3539
   77SLPC  C210 6993   2.785   4.149   7.926  0.4014 -0.2693  0.0581
   77SLPC  H10R 6994   2.865   4.143   8.001  0.7876  2.1675 -0.0892
   77SLPC  C211 6995   2.648   4.148   7.988  0.7188 -0.0547 -0.1843
   77SLPC  H11R 6996   2.589   4.232   7.945  0.1975 -1.0524 -1.4993
   77SLPC  H11S 6997   2.653   4.177   8.095  0.3601 -2.3598  0.5172
   77SLPC  C212 6998   2.546   4.040   7.964 -0.5482 -0.0527  0.1256
   77SLPC  H12R 6999   2.546   4.005   7.860 -3.8826  1.5038 -0.5106
   77SLPC  C213 7000   2.461   3.982   8.053  1.2882 -0.3532  0.0279
   77SLPC  H13R 7001   2.393   3.907   8.010  0.2007  1.0337 -0.7449
   77SLPC  C214 7002   2.431   4.001   8.201 -0.7037 -0.5649 -0.6471
   77SLPC  H14R 7003   2.481   4.090   8.246 -1.0772 -0.6829  0.0017
   77SLPC  H14S 7004   2.467   3.916   8.263 -0.2139 -0.4884 -0.8222
   77SLPC  C215 7005   2.280   4.010   8.230  0.0474  1.1935  0.2398
   77SLPC  H15R 7006   2.222   3.920   8.198 -0.4822  1.0400  1.5847
   77SLPC  H15S 7007   2.241   4.084   8.157 -0.6131 -0.4097 -1.0975
   77SLPC  C216 7008   2.234   4.045   8.365 -0.2482 -0.4092 -0.2370
   77SLPC  H16R 7009   2.125   4.033   8.345  0.3814 -3.9182 -2.3394
   77SLPC  H16S 7010   2.261   4.149   8.392  0.5211  0.0757 -2.6324
   77SLPC  C217 7011   2.276   3.946   8.471  0.3665  0.2641  0.3567
   77SLPC  H17R 7012   2.387   3.947   8.472  0.4080 -0.9449 -0.7967
   77SLPC  H17S 7013   2.246   3.842   8.443  1.2100  0.5222 -1.6744
   77SLPC  C218 7014   2.221   3.974   8.614  0.2186  0.1334  0.1720
   77SLPC  H18R 7015   2.275   4.063   8.654  2.9751 -1.0474 -0.6454
   77SLPC  H18S 7016   2.230   3.896   8.693 -0.6216  0.8186  0.9613
   77SLPC  H18T 7017   2.119   4.010   8.593  0.9852  1.0927 -2.2594
   77SLPC   C33 7018   2.720   3.732   7.170 -0.5777  0.1160  0.7052
   77SLPC   H3X 7019   2.611   3.737   7.188 -0.0788  1.4847  4.0287
   77SLPC   H3Y 7020   2.762   3.835   7.167 -0.0035  0.0223 -5.0753
   77SLPC   C34 7021   2.778   3.649   7.289  0.5321 -0.0785 -0.1822
   77SLPC   H4X 7022   2.886   3.627   7.275  0.7425  0.6795  0.1798
   77SLPC   H4Y 7023   2.730   3.550   7.305  0.0271 -0.1656 -1.9353
   77SLPC   C35 7024   2.761   3.728   7.417 -0.0984 -0.2289 -0.9956
   77SLPC   H5X 7025   2.654   3.738   7.446  0.3784 -0.6893  1.0856
   77SLPC   H5Y 7026   2.812   3.824   7.395 -0.3590 -0.2773 -1.8721
   77SLPC   C36 7027   2.822   3.639   7.528 -0.1251  0.0304 -0.1250
   77SLPC   H6X 7028   2.927   3.619   7.498 -0.0129 -2.1432  1.4330
   77SLPC   H6Y 7029   2.769   3.541   7.534  5.7841 -3.5657  1.5057
   77SLPC   C37 7030   2.804   3.706   7.665  0.2215 -1.2021  0.2222
   77SLPC   H7X 7031   2.829   3.814   7.652 -1.1353 -1.0529 -1.5082
   77SLPC   H7Y 7032   2.881   3.662   7.731  1.0990 -1.1781 -0.7591
   77SLPC   C38 7033   2.665   3.691   7.718 -0.2213 -0.5871  0.1588
   77SLPC   H8X 7034   2.618   3.610   7.658  1.3086 -1.3137 -0.0985
   77SLPC   H8Y 7035   2.608   3.787   7.723  0.5717  0.1851 -3.1575
   77SLPC   C39 7036   2.668   3.629   7.855 -0.1287  1.1690 -0.2679
   77SLPC   H9X 7037   2.734   3.694   7.916  0.6099  0.3496 -0.1737
   77SLPC   H9Y 7038   2.711   3.527   7.866 -4.1339 -0.4508  3.9269
   77SLPC  C310 7039   2.534   3.621   7.924 -0.6234 -0.4726  0.3495
   77SLPC  H10X 7040   2.465   3.555   7.866  1.8459 -1.3057 -1.8403
   77SLPC  H10Y 7041   2.491   3.723   7.918 -0.8041 -0.5665 -0.0283
   77SLPC  C311 7042   2.537   3.591   8.074  0.5073  0.3068 -0.2817
   77SLPC  H11X 7043   2.611   3.660   8.120  0.7123 -0.4917  0.6193
   77SLPC  H11Y 7044   2.580   3.492   8.100 -2.1070 -1.4072 -2.0613
   77SLPC  C312 7045   2.396   3.616   8.127 -0.1557  0.5580  0.0409
   77SLPC  H12X 7046   2.324   3.556   8.068 -2.1697  0.3220  2.5265
   77SLPC  H12Y 7047   2.348   3.711   8.096 -2.4777 -0.8907 -1.0425
   77SLPC  C313 7048   2.379   3.591   8.277  0.2728 -0.4118  0.1067
   77SLPC  H13X 7049   2.431   3.669   8.337 -0.9101  1.4446 -1.1526
   77SLPC  H13Y 7050   2.424   3.490   8.290 -2.0162 -1.4827  0.1540
   77SLPC  C314 7051   2.226   3.588   8.315 -0.1840 -0.6510 -0.2421
   77SLPC  H14X 7052   2.168   3.528   8.242 -1.2127  0.0480 -0.0165
   77SLPC  H14Y 7053   2.198   3.693   8.291 -0.1092 -0.0986  1.8398
   77SLPC  C315 7054   2.207   3.561   8.466 -0.3298  0.0486  0.3335
   77SLPC  H15X 7055   2.098   3.584   8.475 -0.5174  0.3810 -2.1351
   77SLPC  H15Y 7056   2.260   3.636   8.528 -0.4622  0.3835  0.0480
   77SLPC  C316 7057   2.226   3.419   8.510  0.2171  0.3528  0.1674
   77SLPC  H16X 7058   2.334   3.394   8.503 -0.1148 -0.9764 -0.5734
   77SLPC  H16Y 7059   2.177   3.345   8.444  1.6003 -2.5536  2.1856
   77SLPC  C317 7060   2.173   3.397   8.652 -0.1280  0.4835  0.7662
   77SLPC  H17X 7061   2.204   3.295   8.683 -1.6531 -0.8201 -1.6410
   77SLPC  H17Y 7062   2.062   3.410   8.646  0.1729  2.8860 -1.1395
   77SLPC  C318 7063   2.225   3.484   8.758  0.3724  0.4753 -0.0731
   77SLPC  H18X 7064   2.336   3.484   8.753  0.3915  1.9203 -0.1657
   77SLPC  H18Y 7065   2.186   3.460   8.860  2.6589 -0.2245  0.6792
   77SLPC  H18Z 7066   2.191   3.588   8.736 -1.9554  0.2063  1.7965
   78SLPC     N 7067   6.429   4.617   6.352 -0.3569  0.1845 -0.2922
   78SLPC   C13 7068   6.382   4.698   6.239 -0.1583  0.0444 -0.3295
   78SLPC  H13A 7069   6.309   4.639   6.187  2.5090 -2.2906 -1.7426
   78SLPC  H13B 7070   6.344   4.794   6.271  3.1585  1.1810  0.6163
   78SLPC  H13C 7071   6.462   4.707   6.166  0.4278 -1.9741 -0.0043
   78SLPC   C14 7072   6.505   4.498   6.300  0.0710  0.4790 -0.2333
   78SLPC  H14A 7073   6.434   4.416   6.304  0.9202 -0.3238 -1.0435
   78SLPC  H14B 7074   6.547   4.513   6.201  0.6197 -1.0232 -0.2648
   78SLPC  H14C 7075   6.595   4.480   6.356 -0.2124 -0.0950  0.0547
   78SLPC   C15 7076   6.321   4.562   6.442 -0.1222 -0.0922 -0.2479
   78SLPC  H15A 7077   6.352   4.524   6.538 -0.1931  1.3486  0.3762
   78SLPC  H15B 7078   6.255   4.645   6.464 -0.5489 -0.2539 -0.8953
   78SLPC  H15C 7079   6.259   4.491   6.391  1.6237 -1.0760 -1.1091
   78SLPC   C12 7080   6.530   4.703   6.429 -0.5482  0.2724  0.2536
   78SLPC  H12A 7081   6.541   4.654   6.525 -1.2111 -0.6278 -0.1120
   78SLPC  H12B 7082   6.493   4.804   6.441  2.0511  1.2701  0.5839
   78SLPC   C11 7083   6.676   4.711   6.371  0.0950 -0.0145  0.0095
   78SLPC  H11A 7084   6.728   4.802   6.409  1.1934  0.1536 -1.7984
   78SLPC  H11B 7085   6.682   4.716   6.261  1.1639 -0.2949  0.0355
   78SLPC     P 7086   6.888   4.538   6.374  0.1780  0.4115 -0.4798
   78SLPC   O13 7087   6.864   4.401   6.422  0.3188 -0.0298  0.0870
   78SLPC   O14 7088   6.910   4.559   6.230 -0.3367 -0.1881 -0.0178
   78SLPC   O12 7089   6.759   4.609   6.425  0.0324 -0.3075 -0.1368
   78SLPC   O11 7090   7.005   4.607   6.461 -0.2585  0.3052 -0.2424
   78SLPC    C1 7091   7.001   4.744   6.492 -0.0350 -0.4127 -0.2048
   78SLPC    HA 7092   6.974   4.814   6.410  0.1756  0.1182  0.1769
   78SLPC    HB 7093   6.927   4.761   6.573 -0.2947 -0.5585 -0.4102
   78SLPC    C2 7094   7.141   4.798   6.543  1.0835  0.1730 -0.1273
   78SLPC    HS 7095   7.195   4.705   6.572 -1.1219 -1.5137 -1.0496
   78SLPC   O21 7096   7.113   4.884   6.657  0.2180  0.1664 -0.5809
   78SLPC   C21 7097   7.120   4.821   6.776 -0.4638 -0.8258 -0.0750
   78SLPC   O22 7098   7.172   4.711   6.788 -0.0597  0.1364 -0.5242
   78SLPC   C22 7099   7.090   4.929   6.880  0.1305 -0.6247 -0.0258
   78SLPC   H2R 7100   7.180   4.992   6.896 -1.6084  2.6527 -2.1815
   78SLPC   H2S 7101   7.010   4.988   6.831  0.3848 -1.1549 -1.0952
   78SLPC    C3 7102   7.231   4.878   6.450  0.0052 -0.5869  0.8183
   78SLPC    HX 7103   7.191   4.978   6.420 -0.6328 -0.9073  0.5937
   78SLPC    HY 7104   7.236   4.820   6.355 -0.5482 -0.0540  0.4574
   78SLPC   O31 7105   7.362   4.890   6.518 -0.1469  0.4280 -0.1809
   78SLPC   C31 7106   7.372   4.998   6.597  0.1660 -0.2220  0.5051
   78SLPC   O32 7107   7.300   5.094   6.586 -0.4669 -0.1935 -0.1249
   78SLPC   C32 7108   7.483   4.983   6.700  0.5542 -0.2142 -0.0553
   78SLPC   H2X 7109   7.573   5.006   6.638  0.3853 -1.5123 -0.8223
   78SLPC   H2Y 7110   7.483   4.875   6.724 -1.9889 -0.6142 -1.4770
   78SLPC   C23 7111   7.019   4.868   7.010 -0.7082  0.7519  0.5747
   78SLPC   H3R 7112   6.971   4.773   6.978 -0.9260  1.0633 -0.0332
   78SLPC   H3S 7113   6.949   4.940   7.055  1.6591  0.8388  4.6309
   78SLPC   C24 7114   7.122   4.847   7.112 -0.3086  0.0913  0.1040
   78SLPC   H4R 7115   7.210   4.796   7.067  0.8619  0.6770  1.6517
   78SLPC   H4S 7116   7.079   4.785   7.194 -0.1774  1.6911  1.4182
   78SLPC   C25 7117   7.172   4.964   7.199  0.6372  0.2731  0.3382
   78SLPC   H5R 7118   7.094   5.036   7.231 -0.4189 -1.4830  1.9730
   78SLPC   H5S 7119   7.246   5.027   7.146  0.4084 -0.3987 -0.8229
   78SLPC   C26 7120   7.250   4.924   7.333  0.3353  0.1219  0.3290
   78SLPC   H6R 7121   7.171   4.878   7.396 -1.7032 -1.4823 -3.1109
   78SLPC   H6S 7122   7.287   5.023   7.366 -3.2213  2.4687 -2.0102
   78SLPC   C27 7123   7.370   4.829   7.312 -0.2460 -0.3652 -0.3424
   78SLPC   H7R 7124   7.426   4.875   7.227 -0.2901 -0.8245 -0.6257
   78SLPC   H7S 7125   7.334   4.730   7.276 -0.8159  0.0682 -0.9886
   78SLPC   C28 7126   7.455   4.795   7.439  0.5776 -0.4554 -0.8208
   78SLPC   H8R 7127   7.522   4.708   7.420  1.2818 -0.1899  0.3296
   78SLPC   H8S 7128   7.381   4.755   7.511 -0.8208 -0.4721 -2.2186
   78SLPC   C29 7129   7.517   4.918   7.501  0.1902  0.6378  0.7208
   78SLPC   H9R 7130   7.582   4.979   7.436 -1.4372  0.7504 -0.8803
   78SLPC  C210 7131   7.495   4.962   7.625 -0.0770 -0.1570  0.2337
   78SLPC  H10R 7132   7.539   5.060   7.648  0.9892 -0.0220 -2.1336
   78SLPC  C211 7133   7.398   4.919   7.732 -0.5933 -0.2267  0.3962
   78SLPC  H11R 7134   7.403   4.808   7.733  1.1941 -0.1766 -0.1876
   78SLPC  H11S 7135   7.296   4.946   7.697 -0.1450  3.5175  1.4861
   78SLPC  C212 7136   7.410   4.958   7.877  0.4691 -0.3113 -0.2889
   78SLPC  H12R 7137   7.490   5.030   7.901 -1.5796  1.6057  1.1549
   78SLPC  C213 7138   7.345   4.901   7.983  0.0758  0.3581  0.1834
   78SLPC  H13R 7139   7.361   4.939   8.085  3.6062  0.2785 -0.2319
   78SLPC  C214 7140   7.246   4.791   7.962  0.0582 -0.1767  0.9128
   78SLPC  H14R 7141   7.267   4.699   8.020 -1.5273 -0.2716  1.3748
   78SLPC  H14S 7142   7.243   4.751   7.858  0.4574  0.1787  0.7595
   78SLPC  C215 7143   7.104   4.834   7.996 -0.2741  0.9170 -1.0128
   78SLPC  H15R 7144   7.039   4.763   7.941  2.2160 -2.7844  0.3716
   78SLPC  H15S 7145   7.083   4.936   7.959 -2.6614  1.2754  1.0407
   78SLPC  C216 7146   7.072   4.822   8.153 -0.7501 -0.2937  0.7405
   78SLPC  H16R 7147   7.126   4.906   8.201 -1.3986  1.3294 -1.2108
   78SLPC  H16S 7148   7.122   4.728   8.185  1.5536  0.8083  0.5629
   78SLPC  C217 7149   6.928   4.825   8.174 -0.8129  0.3455  0.7514
   78SLPC  H17R 7150   6.878   4.759   8.100 -1.1906  0.3860  0.9696
   78SLPC  H17S 7151   6.883   4.925   8.155  1.1321  1.7907  3.1791
   78SLPC  C218 7152   6.891   4.778   8.311  0.1997 -0.2098 -0.3955
   78SLPC  H18R 7153   6.791   4.815   8.342 -1.2351 -2.0997 -2.4520
   78SLPC  H18S 7154   6.965   4.801   8.390  0.9618  1.2635 -1.4969
   78SLPC  H18T 7155   6.878   4.667   8.304 -0.2299 -0.6093  3.9103
   78SLPC   C33 7156   7.482   5.078   6.820 -0.8397  0.1950  0.1554
   78SLPC   H3X 7157   7.425   5.048   6.911  0.6092 -3.4528  0.0285
   78SLPC   H3Y 7158   7.455   5.180   6.785 -1.1845 -0.2863 -1.0189
   78SLPC   C34 7159   7.630   5.079   6.870 -0.3029  0.4225  0.2704
   78SLPC   H4X 7160   7.690   5.121   6.787 -1.6546  2.2094  0.1516
   78SLPC   H4Y 7161   7.668   4.975   6.878 -2.2430 -0.4504 -0.9884
   78SLPC   C35 7162   7.650   5.162   6.992 -1.3078 -0.6980  0.7333
   78SLPC   H5X 7163   7.616   5.262   6.959  0.9010 -0.7678 -2.1334
   78SLPC   H5Y 7164   7.759   5.175   7.007 -1.2462  0.1412 -0.3321
   78SLPC   C36 7165   7.600   5.102   7.126  0.3643 -0.3238  0.0181
   78SLPC   H6X 7166   7.664   5.020   7.165  0.7970  0.5822  1.2800
   78SLPC   H6Y 7167   7.503   5.055   7.100  0.6313 -1.6540  1.3151
   78SLPC   C37 7168   7.584   5.212   7.242  0.1221  0.4628 -0.3875
   78SLPC   H7X 7169   7.523   5.166   7.323 -0.9454  0.1371 -1.3449
   78SLPC   H7Y 7170   7.538   5.301   7.193 -2.2117 -2.0236 -3.1903
   78SLPC   C38 7171   7.730   5.245   7.294  0.4814  0.4479 -0.3193
   78SLPC   H8X 7172   7.782   5.284   7.204 -1.1499  1.6159 -0.7911
   78SLPC   H8Y 7173   7.760   5.143   7.328 -2.6749 -0.6994 -0.6305
   78SLPC   C39 7174   7.735   5.352   7.407 -0.1742  0.4575 -0.1057
   78SLPC   H9X 7175   7.690   5.448   7.373  2.4271  1.3094 -1.3885
   78SLPC   H9Y 7176   7.841   5.380   7.429 -0.0953 -0.6170  0.9732
   78SLPC  C310 7177   7.664   5.307   7.543 -0.3250 -0.8753 -0.1919
   78SLPC  H10X 7178   7.666   5.196   7.547 -1.0626 -0.8582  1.0679
   78SLPC  H10Y 7179   7.557   5.333   7.527 -0.9811 -1.3549  2.8612
   78SLPC  C311 7180   7.723   5.370   7.665  0.0316  0.0824  0.2447
   78SLPC  H11X 7181   7.749   5.477   7.653 -1.2692  0.3126 -0.7499
   78SLPC  H11Y 7182   7.818   5.314   7.680 -0.9336 -1.4780  0.7474
   78SLPC  C312 7183   7.638   5.345   7.787  0.7118 -0.4817  0.3448
   78SLPC  H12X 7184   7.610   5.239   7.801 -1.3268 -0.4041 -2.2828
   78SLPC  H12Y 7185   7.543   5.403   7.778  1.7049  1.6068  2.2448
   78SLPC  C313 7186   7.713   5.401   7.913 -0.1350 -0.3921  0.7294
   78SLPC  H13X 7187   7.725   5.512   7.918 -1.1066 -0.2404 -0.1115
   78SLPC  H13Y 7188   7.816   5.360   7.906  0.7832  1.8898 -0.0949
   78SLPC  C314 7189   7.642   5.365   8.041 -0.5421 -0.2135  0.3591
   78SLPC  H14X 7190   7.631   5.254   8.037 -0.3437 -0.2918  1.5185
   78SLPC  H14Y 7191   7.542   5.413   8.046 -0.5796 -0.2445 -0.0526
   78SLPC  C315 7192   7.729   5.417   8.155  0.3359 -0.1150  0.2234
   78SLPC  H15X 7193   7.718   5.527   8.156 -0.6151 -0.1994  0.0573
   78SLPC  H15Y 7194   7.835   5.383   8.150  0.3524  0.0307 -0.4934
   78SLPC  C316 7195   7.674   5.364   8.292 -0.4254 -0.4041 -0.0086
   78SLPC  H16X 7196   7.702   5.259   8.311 -0.8617 -0.5473 -0.1511
   78SLPC  H16Y 7197   7.564   5.356   8.284 -0.4308 -1.1361  0.7784
   78SLPC  C317 7198   7.702   5.452   8.422  0.0757 -0.0814  0.1492
   78SLPC  H17X 7199   7.636   5.438   8.511  1.0198 -0.0969  0.8597
   78SLPC  H17Y 7200   7.696   5.559   8.391  0.8294 -0.5407 -1.7045
   78SLPC  C318 7201   7.841   5.441   8.474  0.5757 -0.2708 -0.5188
   78SLPC  H18X 7202   7.924   5.466   8.404  0.6418  1.6724  0.2109
   78SLPC  H18Y 7203   7.870   5.335   8.493  2.9074  0.3232 -0.4303
   78SLPC  H18Z 7204   7.851   5.501   8.567 -3.9583 -0.4837  0.3150
   79SLPC     N 7205   4.375   0.018   6.267  0.6558 -0.1086 -0.2327
   79SLPC   C13 7206   4.410   0.161   6.227  0.5954 -0.1796  0.0567
   79SLPC  H13A 7207   4.316   0.213   6.222  1.2208  0.9105 -0.5827
   79SLPC  H13B 7208   4.476   0.200   6.303  1.7001 -3.0487  0.7287
   79SLPC  H13C 7209   4.459   0.161   6.131  1.4587 -3.6738  0.3567
   79SLPC   C14 7210   4.503  -0.052   6.253  0.2128  0.2515 -0.7077
   79SLPC  H14A 7211   4.531  -0.065   6.150  2.0393  0.8738 -0.3239
   79SLPC  H14B 7212   4.584   0.003   6.297  0.4661  2.0930 -3.2592
   79SLPC  H14C 7213   4.504  -0.149   6.301  2.5083 -0.3401 -1.8212
   79SLPC   C15 7214   4.282  -0.046   6.163 -0.2359  0.3055 -0.0924
   79SLPC  H15A 7215   4.337  -0.057   6.071 -2.7350 -2.0292 -1.4276
   79SLPC  H15B 7216   4.244  -0.145   6.182  2.6563 -1.6102 -3.1558
   79SLPC  H15C 7217   4.196   0.012   6.134  0.7886  1.1161 -1.6929
   79SLPC   C12 7218   4.307   0.013   6.402  0.4422 -0.5719 -0.3000
   79SLPC  H12A 7219   4.267  -0.084   6.425 -2.4526  0.5806 -0.0252
   79SLPC  H12B 7220   4.220   0.077   6.393  1.3816  0.5755 -1.7565
   79SLPC   C11 7221   4.391   0.059   6.522  0.0727 -0.0652  0.4420
   79SLPC  H11A 7222   4.329   0.080   6.612  2.2867 -0.8671  2.2496
   79SLPC  H11B 7223   4.446   0.153   6.500  0.7084 -0.2644  1.1392
   79SLPC     P 7224   4.442  -0.174   6.629 -0.0960 -0.3790  0.1159
   79SLPC   O13 7225   4.297  -0.185   6.601 -0.1210 -0.6620 -0.3557
   79SLPC   O14 7226   4.528  -0.282   6.580 -0.3228 -0.2305  0.1900
   79SLPC   O12 7227   4.489  -0.038   6.556  0.1936 -0.3303  0.1758
   79SLPC   O11 7228   4.469  -0.141   6.783  0.2013  0.5914  0.6428
   79SLPC    C1 7229   4.575  -0.061   6.835  0.7228 -0.4131  0.4352
   79SLPC    HA 7230   4.598   0.028   6.771  0.2720  0.3976  1.3743
   79SLPC    HB 7231   4.531  -0.007   6.922 -1.7045 -3.0781  1.0068
   79SLPC    C2 7232   4.695  -0.157   6.877  0.4944  0.1047 -0.3615
   79SLPC    HS 7233   4.729  -0.176   6.774 -2.1135  0.4573 -1.3576
   79SLPC   O21 7234   4.645  -0.265   6.956  0.2113  0.2710  0.0619
   79SLPC   C21 7235   4.729  -0.367   6.940  0.5622  0.6112  0.1573
   79SLPC   O22 7236   4.829  -0.370   6.874 -0.5435 -0.6625  0.3288
   79SLPC   C22 7237   4.677  -0.479   7.029  0.2989  0.1797  0.0065
   79SLPC   H2R 7238   4.624  -0.554   6.967 -1.2766  0.4404  0.9735
   79SLPC   H2S 7239   4.763  -0.530   7.076  2.7864  3.7548 -0.2867
   79SLPC    C3 7240   4.800  -0.077   6.961 -0.4973  0.0807 -0.7458
   79SLPC    HX 7241   4.841   0.003   6.896 -3.8645  0.2608 -2.8662
   79SLPC    HY 7242   4.877  -0.152   6.990 -2.2138 -1.6102 -0.3977
   79SLPC   O31 7243   4.743  -0.015   7.078 -0.3636  0.1578 -0.3401
   79SLPC   C31 7244   4.729  -0.093   7.188  0.4378 -0.2513  0.6616
   79SLPC   O32 7245   4.788  -0.197   7.206 -0.0865 -0.3415 -0.2025
   79SLPC   C32 7246   4.630  -0.030   7.284  0.1012  1.0548 -0.2785
   79SLPC   H2X 7247   4.526  -0.047   7.250 -0.9339  3.9339  1.1488
   79SLPC   H2Y 7248   4.640   0.081   7.283  1.0352  0.9778 -0.7516
   79SLPC   C23 7249   4.577  -0.450   7.144  0.2136  0.2591  0.1553
   79SLPC   H3R 7250   4.474  -0.449   7.104 -0.2215 -0.8598  1.1740
   79SLPC   H3S 7251   4.597  -0.347   7.180 -1.8120  1.6765 -2.4433
   79SLPC   C24 7252   4.589  -0.545   7.265  0.7153  0.0925 -0.5570
   79SLPC   H4R 7253   4.690  -0.551   7.313  1.0424 -0.5038 -1.2999
   79SLPC   H4S 7254   4.567  -0.642   7.217  0.7013  0.9635 -2.3620
   79SLPC   C25 7255   4.497  -0.520   7.384  0.7669 -0.2039  0.3703
   79SLPC   H5R 7256   4.394  -0.541   7.350  1.5786 -0.5405 -2.0514
   79SLPC   H5S 7257   4.500  -0.417   7.426 -1.2846 -0.1861  0.5766
   79SLPC   C26 7258   4.510  -0.618   7.505 -0.0782 -0.5738 -0.8291
   79SLPC   H6R 7259   4.533  -0.723   7.475  3.9610  0.0362 -0.5146
   79SLPC   H6S 7260   4.418  -0.607   7.566 -0.0031  1.2622 -0.9879
   79SLPC   C27 7261   4.642  -0.597   7.586  0.3843 -0.6072  0.3990
   79SLPC   H7R 7262   4.720  -0.560   7.517 -1.1703  1.1576 -0.4911
   79SLPC   H7S 7263   4.678  -0.693   7.628  0.0440 -1.4401 -1.1375
   79SLPC   C28 7264   4.627  -0.496   7.694  0.2396  0.5151 -0.1680
   79SLPC   H8R 7265   4.572  -0.407   7.657  0.3841  0.4697 -0.4984
   79SLPC   H8S 7266   4.729  -0.457   7.714  2.1724 -3.5218 -1.1226
   79SLPC   C29 7267   4.579  -0.560   7.830  0.3476 -0.2708 -0.2768
   79SLPC   H9R 7268   4.615  -0.662   7.850 -0.9300 -0.8745 -0.9277
   79SLPC  C210 7269   4.478  -0.505   7.908 -0.3188 -0.0496 -0.7257
   79SLPC  H10R 7270   4.442  -0.557   7.998  2.0126 -0.4583  0.0214
   79SLPC  C211 7271   4.406  -0.374   7.883 -0.4856 -0.8274  0.2222
   79SLPC  H11R 7272   4.377  -0.378   7.776  0.8150 -0.7727 -0.1502
   79SLPC  H11S 7273   4.483  -0.294   7.876 -0.7759 -0.6031 -0.4046
   79SLPC  C212 7274   4.295  -0.339   7.974 -0.5849 -0.2748  0.2444
   79SLPC  H12R 7275   4.200  -0.372   7.928 -0.9826  2.0990 -0.7945
   79SLPC  C213 7276   4.302  -0.279   8.097 -0.4353  0.0192  0.5804
   79SLPC  H13R 7277   4.214  -0.248   8.156  0.9368  1.2978  2.0914
   79SLPC  C214 7278   4.424  -0.232   8.169 -1.0066 -0.0642 -0.1306
   79SLPC  H14R 7279   4.439  -0.122   8.166  2.1437 -0.2747  2.3191
   79SLPC  H14S 7280   4.517  -0.271   8.122 -2.1346 -1.2922 -1.4431
   79SLPC  C215 7281   4.419  -0.292   8.308 -0.1896  0.0449 -0.5347
   79SLPC  H15R 7282   4.456  -0.396   8.310 -0.3629 -0.0083  0.1619
   79SLPC  H15S 7283   4.315  -0.292   8.348 -0.2979 -0.3828 -0.8045
   79SLPC  C216 7284   4.506  -0.226   8.414 -0.7469  0.0910 -0.4853
   79SLPC  H16R 7285   4.462  -0.126   8.434 -1.0231  0.0223 -0.7436
   79SLPC  H16S 7286   4.603  -0.202   8.364 -0.7872  0.9135 -0.1854
   79SLPC  C217 7287   4.535  -0.309   8.537  0.0537 -0.5620  0.3991
   79SLPC  H17R 7288   4.602  -0.268   8.615 -1.7867  2.2016  0.6600
   79SLPC  H17S 7289   4.593  -0.399   8.506 -1.5766 -2.1733  1.8110
   79SLPC  C218 7290   4.417  -0.355   8.620 -0.1915  0.4523  0.3111
   79SLPC  H18R 7291   4.350  -0.269   8.642  1.9708  1.3858  4.4860
   79SLPC  H18S 7292   4.450  -0.400   8.716 -1.3287  0.5581  0.7659
   79SLPC  H18T 7293   4.379  -0.436   8.555  2.7256 -1.1456  0.4077
   79SLPC   C33 7294   4.635  -0.090   7.426 -0.5494  0.2664  0.1638
   79SLPC   H3X 7295   4.737  -0.083   7.469  0.3942  0.8028 -2.0087
   79SLPC   H3Y 7296   4.604  -0.197   7.420  1.4874 -0.4874  1.7122
   79SLPC   C34 7297   4.545  -0.008   7.527  0.0260  0.4470 -0.0271
   79SLPC   H4X 7298   4.439   0.005   7.495 -0.0255 -1.4258 -0.7449
   79SLPC   H4Y 7299   4.572   0.100   7.536 -0.9004  1.1803 -3.9776
   79SLPC   C35 7300   4.544  -0.075   7.667  0.1063 -0.6384  0.4846
   79SLPC   H5X 7301   4.600  -0.171   7.667 -0.0875 -0.8032  2.7150
   79SLPC   H5Y 7302   4.439  -0.075   7.702 -0.2404 -1.2496 -0.4999
   79SLPC   C36 7303   4.617   0.016   7.771  0.2630 -0.3768 -0.6396
   79SLPC   H6X 7304   4.572   0.118   7.762  0.8353 -0.2570 -2.7255
   79SLPC   H6Y 7305   4.726   0.034   7.760  0.2442  0.2568  0.0867
   79SLPC   C37 7306   4.573  -0.027   7.915  0.2399  0.0983  0.5399
   79SLPC   H7X 7307   4.599  -0.135   7.923 -1.2776 -0.3659 -0.3418
   79SLPC   H7Y 7308   4.462  -0.021   7.912  0.0899 -2.0643 -1.5255
   79SLPC   C38 7309   4.645   0.047   8.032 -0.0722 -0.5396 -0.1476
   79SLPC   H8X 7310   4.578   0.048   8.121 -0.7143  2.2291 -0.5713
   79SLPC   H8Y 7311   4.668   0.151   8.000 -0.8694  0.0023  0.9813
   79SLPC   C39 7312   4.779  -0.006   8.089  0.2473 -0.3372  0.4565
   79SLPC   H9X 7313   4.861  -0.007   8.014 -1.2052 -2.0634 -1.2231
   79SLPC   H9Y 7314   4.763  -0.113   8.116  1.8800 -0.7996 -0.3061
   79SLPC  C310 7315   4.821   0.066   8.221  0.5652 -0.1454 -0.1587
   79SLPC  H10X 7316   4.730   0.096   8.277  0.2106  0.6311 -1.1120
   79SLPC  H10Y 7317   4.861   0.167   8.197 -0.8441  0.6059  0.4880
   79SLPC  C311 7318   4.920  -0.003   8.313 -0.9252 -0.0231  0.5066
   79SLPC  H11X 7319   5.011  -0.030   8.256 -0.9108 -2.8341  1.7069
   79SLPC  H11Y 7320   4.874  -0.095   8.355 -0.4901 -0.2203  0.5566
   79SLPC  C312 7321   4.953   0.092   8.434 -0.0495 -0.4000  0.3733
   79SLPC  H12X 7322   4.998   0.041   8.522 -0.5205  0.0698  0.8897
   79SLPC  H12Y 7323   4.864   0.142   8.478  0.4035  2.0240 -1.2513
   79SLPC  C313 7324   5.045   0.207   8.380  0.6456 -0.4995 -0.7194
   79SLPC  H13X 7325   4.991   0.287   8.325 -1.4678 -1.2285  0.1873
   79SLPC  H13Y 7326   5.119   0.163   8.311 -0.3180 -2.1814 -0.7367
   79SLPC  C314 7327   5.119   0.265   8.496 -0.6823 -0.3193 -0.2221
   79SLPC  H14X 7328   5.163   0.177   8.549  1.7679  0.7523 -0.3275
   79SLPC  H14Y 7329   5.057   0.322   8.568  1.3901 -0.7425  2.0468
   79SLPC  C315 7330   5.237   0.362   8.467 -0.3196 -0.0767  0.2947
   79SLPC  H15X 7331   5.195   0.461   8.441  1.9876  0.3425 -2.1584
   79SLPC  H15Y 7332   5.299   0.334   8.379 -1.3783  0.3003 -0.5921
   79SLPC  C316 7333   5.326   0.375   8.590  0.1892 -1.0657  0.0123
   79SLPC  H16X 7334   5.253   0.386   8.673  0.3402 -1.1998  0.1626
   79SLPC  H16Y 7335   5.385   0.468   8.584  1.3051 -1.6040  1.8866
   79SLPC  C317 7336   5.419   0.261   8.615 -0.1095 -0.2573  0.4629
   79SLPC  H17X 7337   5.490   0.260   8.530 -0.1931  1.0109  0.3664
   79SLPC  H17Y 7338   5.358   0.168   8.621  0.9999 -1.1150 -0.9993
   79SLPC  C318 7339   5.507   0.289   8.739  0.0116 -0.2323  0.2151
   79SLPC  H18X 7340   5.436   0.291   8.824  0.5058  0.5559  0.6097
   79SLPC  H18Y 7341   5.560   0.386   8.728 -1.8813  0.8243 -0.1488
   79SLPC  H18Z 7342   5.581   0.209   8.760  1.2404  1.1629  1.4470
   80SLPC     N 7343   5.822   3.737   6.304 -0.6002  0.5292  0.7362
   80SLPC   C13 7344   5.722   3.842   6.271 -0.1245  0.3971 -0.1077
   80SLPC  H13A 7345   5.659   3.861   6.357 -1.2685  0.7665 -0.9986
   80SLPC  H13B 7346   5.776   3.930   6.241  1.5019  0.1537  1.8818
   80SLPC  H13C 7347   5.660   3.809   6.189  1.3438 -1.2417 -0.6125
   80SLPC   C14 7348   5.931   3.796   6.393  0.2309  0.0879  0.4104
   80SLPC  H14A 7349   6.008   3.721   6.400  0.2254 -0.2501 -2.1608
   80SLPC  H14B 7350   5.969   3.880   6.338 -0.7266 -0.9729 -2.0497
   80SLPC  H14C 7351   5.892   3.815   6.492  0.2312  0.2205  0.3849
   80SLPC   C15 7352   5.886   3.695   6.178 -0.3779 -0.3962  0.4786
   80SLPC  H15A 7353   5.811   3.668   6.106  1.3462  0.4346 -1.7725
   80SLPC  H15B 7354   5.953   3.764   6.128 -1.5125 -0.7497 -1.6195
   80SLPC  H15C 7355   5.948   3.608   6.197  1.3257 -0.5463 -4.4519
   80SLPC   C12 7356   5.756   3.616   6.359  0.3245 -0.1983 -0.0287
   80SLPC  H12A 7357   5.688   3.653   6.435  0.0118 -0.1516 -0.3273
   80SLPC  H12B 7358   5.825   3.548   6.406  0.0651 -0.1202  0.4792
   80SLPC   C11 7359   5.661   3.530   6.275 -0.2722  0.3053  0.3996
   80SLPC  H11A 7360   5.626   3.437   6.325  2.1300 -1.3735 -0.8502
   80SLPC  H11B 7361   5.721   3.493   6.190 -2.0160  1.2914 -1.3377
   80SLPC     P 7362   5.432   3.649   6.323  0.1943 -0.1368 -0.1143
   80SLPC   O13 7363   5.399   3.790   6.289  0.1602  0.3925 -0.1811
   80SLPC   O14 7364   5.319   3.556   6.315  0.3677  0.3111 -0.0339
   80SLPC   O12 7365   5.545   3.600   6.229  0.3489  0.4839  0.2695
   80SLPC   O11 7366   5.508   3.648   6.468 -0.5925  0.2046  0.4112
   80SLPC    C1 7367   5.454   3.594   6.584  0.1791  0.4460  0.2893
   80SLPC    HA 7368   5.343   3.595   6.578 -0.0463  1.5911  3.1035
   80SLPC    HB 7369   5.485   3.490   6.609 -1.4248 -0.2576 -0.5154
   80SLPC    C2 7370   5.498   3.682   6.713 -0.2283  0.0960  0.0645
   80SLPC    HS 7371   5.451   3.781   6.696 -1.4001 -0.4673 -0.0277
   80SLPC   O21 7372   5.641   3.692   6.718  0.6525  0.1556  0.8657
   80SLPC   C21 7373   5.701   3.806   6.744 -0.5412  0.0521 -0.6014
   80SLPC   O22 7374   5.653   3.914   6.761 -0.0663 -0.3023  0.2900
   80SLPC   C22 7375   5.859   3.776   6.756 -0.1910 -0.0835  0.1837
   80SLPC   H2R 7376   5.875   3.675   6.712  1.8126  0.6301 -0.8716
   80SLPC   H2S 7377   5.906   3.854   6.692 -0.7577  0.6187  0.6115
   80SLPC    C3 7378   5.452   3.629   6.851  0.1526 -0.2431 -0.3052
   80SLPC    HX 7379   5.477   3.521   6.845 -0.7331 -0.4039 -1.6683
   80SLPC    HY 7380   5.341   3.627   6.838  0.1934  0.8215 -0.9184
   80SLPC   O31 7381   5.507   3.702   6.964 -0.1981 -0.6141 -0.0190
   80SLPC   C31 7382   5.446   3.817   7.000  0.3845  0.4767 -0.0253
   80SLPC   O32 7383   5.350   3.873   6.945  0.9405 -0.2117  0.2903
   80SLPC   C32 7384   5.512   3.871   7.129 -1.1339  0.1055 -0.4946
   80SLPC   H2X 7385   5.457   3.965   7.152 -1.0530 -0.2303  1.2298
   80SLPC   H2Y 7386   5.615   3.903   7.107 -0.9230 -0.3895 -0.2536
   80SLPC   C23 7387   5.906   3.786   6.905 -0.6005  0.5728 -0.0794
   80SLPC   H3R 7388   5.828   3.842   6.960  1.8047  2.5181  1.5633
   80SLPC   H3S 7389   6.008   3.829   6.919 -1.0880  1.1016  2.2208
   80SLPC   C24 7390   5.905   3.644   6.980  0.5556 -0.0844 -0.3586
   80SLPC   H4R 7391   5.978   3.575   6.932  0.2800 -0.8786  0.3452
   80SLPC   H4S 7392   5.802   3.609   6.957  0.3236 -0.1610  0.7855
   80SLPC   C25 7393   5.912   3.660   7.137  0.0269  0.3536  0.2770
   80SLPC   H5R 7394   5.829   3.718   7.181  1.2240  1.8446  0.6580
   80SLPC   H5S 7395   6.008   3.695   7.181  2.0748 -2.3589 -1.6779
   80SLPC   C26 7396   5.891   3.521   7.196 -0.4887  0.2952  0.4718
   80SLPC   H6R 7397   5.974   3.457   7.161 -1.3457 -0.5538 -0.0217
   80SLPC   H6S 7398   5.790   3.489   7.163 -0.3143 -0.1634  0.3805
   80SLPC   C27 7399   5.889   3.529   7.344 -0.3911  0.5803  0.0482
   80SLPC   H7R 7400   5.824   3.612   7.380  0.8287  1.5464  0.0923
   80SLPC   H7S 7401   5.994   3.554   7.371 -0.4175  1.8393 -0.9350
   80SLPC   C28 7402   5.839   3.400   7.412  0.5794 -0.2022 -0.1618
   80SLPC   H8R 7403   5.906   3.327   7.364  2.6139  1.5574 -0.1499
   80SLPC   H8S 7404   5.738   3.367   7.379  0.2079 -0.3774  1.0999
   80SLPC   C29 7405   5.850   3.391   7.562  0.4377 -0.3636 -0.1823
   80SLPC   H9R 7406   5.754   3.385   7.616  0.8030 -0.9237  0.4212
   80SLPC  C210 7407   5.964   3.377   7.630 -0.0045  0.2037  0.3577
   80SLPC  H10R 7408   5.952   3.360   7.738  0.5763 -0.1162  0.3766
   80SLPC  C211 7409   6.110   3.373   7.573 -0.5985  0.8160 -0.4940
   80SLPC  H11R 7410   6.147   3.475   7.596  3.4525 -1.0337  2.3346
   80SLPC  H11S 7411   6.111   3.351   7.464 -1.1646 -0.8940 -0.1963
   80SLPC  C212 7412   6.211   3.279   7.634  0.5712  0.1525  0.6851
   80SLPC  H12R 7413   6.239   3.313   7.735 -2.0772 -0.9487  1.8887
   80SLPC  C213 7414   6.269   3.172   7.584  0.6166  0.3156  0.5978
   80SLPC  H13R 7415   6.338   3.115   7.648  1.2776  0.7805  0.3164
   80SLPC  C214 7416   6.242   3.115   7.445 -0.1681 -0.1121  0.6525
   80SLPC  H14R 7417   6.337   3.117   7.386  0.6031 -0.2448  1.8499
   80SLPC  H14S 7418   6.173   3.181   7.389  1.6817  1.2737 -0.1258
   80SLPC  C215 7419   6.195   2.971   7.437  0.1578  0.3456  0.3347
   80SLPC  H15R 7420   6.276   2.904   7.474  0.4705  0.2011 -0.5985
   80SLPC  H15S 7421   6.186   2.949   7.329 -1.6469 -0.3517  0.6027
   80SLPC  C216 7422   6.065   2.946   7.523  0.2263  0.1420 -0.5254
   80SLPC  H16R 7423   5.981   3.003   7.478  0.5055  0.3392 -0.8032
   80SLPC  H16S 7424   6.072   2.976   7.630 -0.7300 -0.4753 -0.2795
   80SLPC  C217 7425   6.006   2.803   7.522  0.7178  0.7509  0.1950
   80SLPC  H17R 7426   5.934   2.789   7.606 -0.4898  2.2569 -0.5314
   80SLPC  H17S 7427   6.076   2.723   7.553  0.1840  1.0883  2.4800
   80SLPC  C218 7428   5.945   2.762   7.383 -0.0801  0.2401 -0.2811
   80SLPC  H18R 7429   5.853   2.820   7.356  0.1505  0.3332 -0.8689
   80SLPC  H18S 7430   5.922   2.655   7.367  2.4217 -0.5337  0.8688
   80SLPC  H18T 7431   6.026   2.791   7.313  0.6707  1.4020  1.0097
   80SLPC   C33 7432   5.498   3.770   7.247  0.3401 -0.3165 -0.4547
   80SLPC   H3X 7433   5.571   3.689   7.226 -0.1144 -0.7908 -0.2298
   80SLPC   H3Y 7434   5.394   3.733   7.252  0.7112 -1.4008 -0.4832
   80SLPC   C34 7435   5.530   3.838   7.383 -0.4312 -0.2223 -0.6390
   80SLPC   H4X 7436   5.442   3.903   7.403  1.3594  1.9306  0.5775
   80SLPC   H4Y 7437   5.614   3.910   7.379  0.5719 -1.2851  0.5605
   80SLPC   C35 7438   5.542   3.745   7.507  0.7495 -0.5714 -0.2398
   80SLPC   H5X 7439   5.511   3.805   7.595 -0.0284  1.1178 -1.5871
   80SLPC   H5Y 7440   5.647   3.712   7.526  0.3301 -1.4685  0.5812
   80SLPC   C36 7441   5.439   3.622   7.510 -0.1985 -0.2827 -0.4462
   80SLPC   H6X 7442   5.428   3.569   7.413  0.9473 -0.6408 -0.3984
   80SLPC   H6Y 7443   5.335   3.660   7.510 -0.0806  0.0958 -1.9340
   80SLPC   C37 7444   5.476   3.530   7.615 -0.1332  0.3098  0.5250
   80SLPC   H7X 7445   5.584   3.513   7.633 -0.1909 -0.3194  0.2910
   80SLPC   H7Y 7446   5.432   3.431   7.587 -1.4836  1.2569 -0.9150
   80SLPC   C38 7447   5.411   3.575   7.744 -0.9118  0.4896  0.2140
   80SLPC   H8X 7448   5.303   3.568   7.722 -0.9348 -0.9139  0.7023
   80SLPC   H8Y 7449   5.445   3.677   7.774 -1.7348  0.2233  2.2068
   80SLPC   C39 7450   5.451   3.476   7.859  0.1234  0.1049 -0.4941
   80SLPC   H9X 7451   5.562   3.470   7.865  0.3447  1.6476 -2.1420
   80SLPC   H9Y 7452   5.413   3.375   7.835  3.1113 -0.5882 -3.1166
   80SLPC  C310 7453   5.373   3.504   7.992 -0.8720 -0.6571  0.0295
   80SLPC  H10X 7454   5.266   3.527   7.972 -0.1096  1.1886 -2.4220
   80SLPC  H10Y 7455   5.424   3.598   8.023  1.8051 -1.9802 -0.0976
   80SLPC  C311 7456   5.395   3.389   8.089 -0.1624 -0.6062  0.2579
   80SLPC  H11X 7457   5.363   3.289   8.053 -0.9462 -0.8688  1.6114
   80SLPC  H11Y 7458   5.342   3.406   8.186 -1.2931  1.7554 -0.6877
   80SLPC  C312 7459   5.547   3.376   8.116  0.1663 -0.1029  0.5757
   80SLPC  H12X 7460   5.582   3.481   8.123  1.5973 -0.4838 -0.2883
   80SLPC  H12Y 7461   5.584   3.326   8.024 -1.4538 -2.1748  0.9679
   80SLPC  C313 7462   5.580   3.287   8.237 -0.7362  0.0810  0.0356
   80SLPC  H13X 7463   5.540   3.347   8.322 -1.7714  1.6575 -1.5076
   80SLPC  H13Y 7464   5.690   3.275   8.231 -1.0519 -4.5748 -0.6459
   80SLPC  C314 7465   5.512   3.148   8.230  0.5552 -0.1085 -0.2801
   80SLPC  H14X 7466   5.506   3.123   8.122  3.6689 -1.0152 -0.3608
   80SLPC  H14Y 7467   5.407   3.145   8.266 -0.0182  0.6561 -1.7938
   80SLPC  C315 7468   5.586   3.047   8.320  0.3375  0.5358 -0.2504
   80SLPC  H15X 7469   5.613   3.082   8.422 -2.2981  2.1034  0.0143
   80SLPC  H15Y 7470   5.687   3.032   8.278 -0.1690 -2.0310 -0.7085
   80SLPC  C316 7471   5.514   2.912   8.324  0.0983 -0.2717 -1.0784
   80SLPC  H16X 7472   5.404   2.928   8.324 -0.2342 -2.2568  0.1029
   80SLPC  H16Y 7473   5.537   2.860   8.420 -0.4210  2.1500  0.4368
   80SLPC  C317 7474   5.562   2.824   8.207  0.0508 -1.1253  0.1094
   80SLPC  H17X 7475   5.672   2.819   8.216  0.1907 -0.2841 -0.9167
   80SLPC  H17Y 7476   5.544   2.875   8.110  0.9492 -0.7471  0.1306
   80SLPC  C318 7477   5.488   2.693   8.210 -0.4385  1.4847 -0.2427
   80SLPC  H18X 7478   5.502   2.648   8.310  3.4204  1.7914 -0.4832
   80SLPC  H18Y 7479   5.520   2.623   8.130 -0.7613  0.4096  0.5537
   80SLPC  H18Z 7480   5.379   2.704   8.193 -1.0992 -0.8411  1.9947
   81SAPS     N 7481   5.738   0.212  10.926  0.4586 -1.0746 -0.7132
   81SAPS   HN1 7482   5.811   0.256  10.986  0.7386 -1.4142 -0.8055
   81SAPS   HN2 7483   5.772   0.125  10.881 -0.4042 -0.4196 -2.7711
   81SAPS   HN3 7484   5.720   0.276  10.846 -0.7381  0.9791  1.0724
   81SAPS   C12 7485   5.610   0.188  10.998 -0.2617 -0.0896  0.1270
   81SAPS  H12A 7486   5.538   0.146  10.929  0.0786  1.2308 -1.0854
   81SAPS   C13 7487   5.613   0.080  11.106  0.5814  0.2156  0.1009
   81SAPS  O13A 7488   5.717   0.010  11.106 -0.3472  0.3987  0.2244
   81SAPS  O13B 7489   5.513   0.046  11.174  0.3729 -0.0197  0.0209
   81SAPS   C11 7490   5.555   0.320  11.078  0.0308  0.3255  0.7094
   81SAPS  H11A 7491   5.636   0.335  11.153  0.9616 -1.9932  0.2615
   81SAPS  H11B 7492   5.459   0.294  11.127 -0.2044 -2.7023 -1.1228
   81SAPS     P 7493   5.502   0.569  11.059  0.5206  0.2419  0.1573
   81SAPS   O13 7494   5.354   0.574  11.053 -0.6656 -0.8104 -0.9391
   81SAPS   O14 7495   5.567   0.576  11.191 -0.4863  0.1161  0.0244
   81SAPS   O12 7496   5.545   0.435  10.992  0.1583  0.2319 -0.0874
   81SAPS   O11 7497   5.568   0.684  10.975 -0.1270  0.2542 -0.5008
   81SAPS    C1 7498   5.665   0.660  10.872 -0.2078 -0.3792 -0.0100
   81SAPS    HA 7499   5.724   0.754  10.863 -1.9210  0.7995  0.6545
   81SAPS    HB 7500   5.742   0.592  10.913  0.2285  0.1463  0.0701
   81SAPS    C2 7501   5.607   0.622  10.734  0.2819 -0.3133  0.5564
   81SAPS    HS 7502   5.544   0.531  10.741  0.6770 -0.7057 -0.6489
   81SAPS   O21 7503   5.711   0.598  10.637 -0.3737  0.3614  0.9841
   81SAPS   C21 7504   5.797   0.500  10.656  0.0233  0.1474  0.3870
   81SAPS   O22 7505   5.794   0.412  10.740 -0.5841  0.0076  0.1072
   81SAPS   C22 7506   5.908   0.521  10.560  0.2875 -0.0733  0.6261
   81SAPS   H2R 7507   5.874   0.526  10.455  0.4536  3.4460  0.6234
   81SAPS   H2S 7508   5.958   0.619  10.574 -1.6271  0.9811  0.3387
   81SAPS    C3 7509   5.500   0.725  10.691 -0.6164 -0.3906 -0.1872
   81SAPS    HX 7510   5.547   0.824  10.669 -0.4115 -0.3844  0.2755
   81SAPS    HY 7511   5.440   0.742  10.783  1.5282  0.3786  1.1441
   81SAPS   O31 7512   5.416   0.684  10.579 -0.1596  0.4153  0.1167
   81SAPS   C31 7513   5.308   0.620  10.618 -0.4637  0.0659 -0.3646
   81SAPS   O32 7514   5.268   0.604  10.731  0.5970 -0.6860 -0.1354
   81SAPS   C32 7515   5.238   0.566  10.488 -0.1969  0.2437 -0.0452
   81SAPS   H2X 7516   5.329   0.530  10.436 -0.5585 -1.2441  0.2919
   81SAPS   H2Y 7517   5.186   0.646  10.431 -2.4486 -2.0561 -1.4351
   81SAPS   C23 7518   6.013   0.414  10.571 -0.2169  0.2129 -0.2601
   81SAPS   H3R 7519   5.963   0.318  10.597  0.8113  0.2743  2.1452
   81SAPS   H3S 7520   6.084   0.438  10.653 -0.7415 -1.5681  0.7632
   81SAPS   C24 7521   6.095   0.393  10.440  0.3464  0.1589  0.4932
   81SAPS   H4R 7522   6.025   0.347  10.367 -0.1304 -0.3603  1.2554
   81SAPS   H4S 7523   6.164   0.309  10.466 -0.6220 -0.5736  0.7425
   81SAPS   C25 7524   6.168   0.513  10.389  0.5544  0.2819  0.8923
   81SAPS   H5R 7525   6.244   0.554  10.457 -0.6017  2.6619  0.8504
   81SAPS   C26 7526   6.161   0.575  10.271 -0.0628 -0.2200 -0.6205
   81SAPS   H6R 7527   6.225   0.663  10.253 -3.8189  2.5651 -1.6790
   81SAPS   C27 7528   6.071   0.533  10.155  0.4814 -0.3303  0.6046
   81SAPS   H7R 7529   5.983   0.598  10.138  0.2406 -1.1997 -1.7692
   81SAPS   H7S 7530   6.024   0.433  10.167  1.1103 -0.6164  0.7489
   81SAPS   C28 7531   6.144   0.540  10.022  0.0324  0.5481 -0.0756
   81SAPS   H8R 7532   6.214   0.455  10.014 -0.8072 -0.2471  0.7158
   81SAPS   C29 7533   6.125   0.617   9.912 -0.2797 -0.4720 -0.2843
   81SAPS   H9R 7534   6.196   0.596   9.830 -0.1076  0.2462 -0.3336
   81SAPS  C210 7535   6.031   0.734   9.892 -0.6345 -0.2395  0.9702
   81SAPS  H10R 7536   6.089   0.814   9.840  1.4292 -1.0101  1.9683
   81SAPS  H10S 7537   6.007   0.774   9.992 -1.1769  1.3503  0.2445
   81SAPS  C211 7538   5.904   0.698   9.814  0.6870 -0.2870 -0.4856
   81SAPS  H11R 7539   5.831   0.635   9.867 -0.0063  1.7082  1.0410
   81SAPS  C212 7540   5.880   0.714   9.687 -0.3762 -0.1895 -0.0638
   81SAPS  H12R 7541   5.779   0.690   9.649 -1.6975  0.9317  2.4875
   81SAPS  C213 7542   5.971   0.775   9.582 -0.0459 -0.0055 -0.4743
   81SAPS  H13R 7543   6.040   0.853   9.620  0.8627 -2.1400  2.5957
   81SAPS  H13S 7544   5.908   0.815   9.499 -0.8317 -0.7389 -0.2442
   81SAPS  C214 7545   6.069   0.665   9.520  0.4544 -0.6664  0.5981
   81SAPS  H14R 7546   6.098   0.601   9.605 -0.9778 -1.6014  0.4050
   81SAPS  C215 7547   6.102   0.621   9.395  0.6558  0.5995  0.9851
   81SAPS  H15R 7548   6.179   0.542   9.392 -0.9823 -1.0235 -1.0015
   81SAPS  C216 7549   6.054   0.665   9.254  0.2293 -0.5187  0.2579
   81SAPS  H16R 7550   5.973   0.741   9.260  0.4585 -0.1647 -0.9158
   81SAPS  H16S 7551   6.012   0.576   9.203  0.8933 -2.5105  2.9469
   81SAPS  C217 7552   6.177   0.715   9.178  0.2993 -0.5455 -0.6771
   81SAPS  H17R 7553   6.265   0.647   9.178  0.2232 -0.6487 -0.2470
   81SAPS  H17S 7554   6.216   0.810   9.220  0.9763 -0.2024 -2.0224
   81SAPS  C218 7555   6.131   0.731   9.030  0.1976 -0.0493 -0.1045
   81SAPS  H18R 7556   6.053   0.810   9.034  1.3764  1.1218  1.5954
   81SAPS  H18S 7557   6.079   0.647   8.981 -1.4452  0.0507  1.3942
   81SAPS  C219 7558   6.238   0.806   8.942 -0.0535  0.0354 -0.2150
   81SAPS  H19R 7559   6.332   0.747   8.938 -0.5562 -0.7109 -2.4580
   81SAPS  H19S 7560   6.253   0.901   8.999 -0.2096 -1.3341  2.2446
   81SAPS  C220 7561   6.193   0.839   8.807  0.2240 -0.0966  0.9479
   81SAPS  H20R 7562   6.250   0.909   8.743 -0.5239 -0.5990 -0.3147
   81SAPS  H20S 7563   6.100   0.899   8.815  1.0001  1.4474 -0.6965
   81SAPS  H20T 7564   6.180   0.750   8.741 -1.6132  0.8073  0.0159
   81SAPS   C33 7565   5.140   0.445  10.514 -0.7883 -0.5770 -0.3142
   81SAPS   H3X 7566   5.057   0.478  10.580  0.2165 -1.8120  1.6731
   81SAPS   H3Y 7567   5.194   0.361  10.563  0.3325  1.3968  2.0764
   81SAPS   C34 7568   5.080   0.383  10.392  0.3860 -0.2442  0.9187
   81SAPS   H4X 7569   5.019   0.290  10.395 -2.4331  1.5113  2.7813
   81SAPS   H4Y 7570   5.162   0.364  10.320 -1.0905 -1.6886 -0.4833
   81SAPS   C35 7571   4.989   0.489  10.320 -0.2160 -0.1783  0.1296
   81SAPS   H5X 7572   4.980   0.468  10.211  0.2768  0.4668 -0.0480
   81SAPS   H5Y 7573   5.045   0.583  10.339  0.3832 -0.4571 -0.2266
   81SAPS   C36 7574   4.851   0.509  10.384  0.0651  0.1352 -0.2302
   81SAPS   H6X 7575   4.865   0.543  10.489  0.0264  2.0512 -0.8016
   81SAPS   H6Y 7576   4.810   0.407  10.395  0.5726  0.1072  1.7637
   81SAPS   C37 7577   4.740   0.599  10.317 -0.3856  0.2764 -0.0312
   81SAPS   H7X 7578   4.774   0.703  10.334 -0.4406 -0.1374  3.3704
   81SAPS   H7Y 7579   4.641   0.587  10.366 -0.4417  1.7619  0.2505
   81SAPS   C38 7580   4.721   0.570  10.170 -0.3457  0.4432  0.6953
   81SAPS   H8X 7581   4.676   0.469  10.159 -1.2228  0.7119  1.6329
   81SAPS   H8Y 7582   4.809   0.571  10.103 -2.3480  1.0873 -2.1321
   81SAPS   C39 7583   4.624   0.671  10.101  0.8589 -0.2883 -0.7592
   81SAPS   H9X 7584   4.680   0.767  10.104 -0.2724  0.4268  3.5406
   81SAPS   H9Y 7585   4.536   0.676  10.168 -0.4972 -1.8215 -2.3358
   81SAPS  C310 7586   4.583   0.645   9.961 -0.2682  1.4435  0.2270
   81SAPS  H10X 7587   4.537   0.545   9.953  2.7450 -0.2726  2.2596
   81SAPS  H10Y 7588   4.681   0.626   9.910 -0.9368 -3.9147  0.4230
   81SAPS  C311 7589   4.506   0.757   9.889 -0.0827  0.5643 -0.0440
   81SAPS  H11X 7590   4.583   0.837   9.890 -0.5951  1.1466 -1.9730
   81SAPS  H11Y 7591   4.410   0.780   9.941 -0.2394 -0.1028 -0.0389
   81SAPS  C312 7592   4.483   0.712   9.741 -0.2562 -0.5321 -0.1480
   81SAPS  H12X 7593   4.398   0.641   9.749 -1.3990  0.7401 -0.6534
   81SAPS  H12Y 7594   4.575   0.661   9.704  0.5726  0.6496  0.2026
   81SAPS  C313 7595   4.455   0.823   9.648  1.1607 -0.3631  0.2610
   81SAPS  H13X 7596   4.537   0.898   9.641  1.2337 -0.1165  2.6359
   81SAPS  H13Y 7597   4.377   0.869   9.712  0.4135 -0.6775 -0.4175
   81SAPS  C314 7598   4.395   0.780   9.518 -0.3737  0.4416  0.7060
   81SAPS  H14X 7599   4.319   0.854   9.482 -0.4992 -0.1199 -0.2338
   81SAPS  H14Y 7600   4.334   0.688   9.526 -0.4268  0.4685  0.6217
   81SAPS  C315 7601   4.513   0.756   9.408 -0.4393 -0.3795  0.2769
   81SAPS  H15X 7602   4.579   0.679   9.452  1.0484  0.2661 -0.7283
   81SAPS  H15Y 7603   4.579   0.844   9.389  0.6706 -1.1732  0.3902
   81SAPS  C316 7604   4.459   0.710   9.273 -0.0760  0.3337 -0.3275
   81SAPS  H16X 7605   4.436   0.798   9.210  1.4197 -0.2124 -1.6972
   81SAPS  H16Y 7606   4.368   0.647   9.280  0.0479  0.0432 -1.2988
   81SAPS  C317 7607   4.562   0.635   9.190 -0.0630 -0.6051 -0.0674
   81SAPS  H17X 7608   4.514   0.606   9.094 -1.6241 -1.9378  1.0593
   81SAPS  H17Y 7609   4.602   0.544   9.240  2.7866 -0.3295 -1.6565
   81SAPS  C318 7610   4.676   0.720   9.147  0.0371  0.2789  0.2660
   81SAPS  H18X 7611   4.734   0.663   9.071 -0.1926 -0.8315  0.9091
   81SAPS  H18Y 7612   4.737   0.749   9.235  2.4920  0.1593 -1.2797
   81SAPS  H18Z 7613   4.641   0.814   9.099 -2.6822  0.2489  2.0060
   82SAPS     N 7614   4.346   0.300  11.273  0.6854 -0.0488  0.1806
   82SAPS   HN1 7615   4.375   0.357  11.191 -1.2803  0.8939  0.0724
   82SAPS   HN2 7616   4.348   0.364  11.356  1.0830 -0.9430  0.8745
   82SAPS   HN3 7617   4.416   0.226  11.293 -1.1762 -1.6150  1.3015
   82SAPS   C12 7618   4.218   0.240  11.251 -0.4166 -0.5345 -0.4604
   82SAPS  H12A 7619   4.240   0.157  11.185  2.6255 -0.2894  0.0928
   82SAPS   C13 7620   4.134   0.194  11.368  0.1023  0.1772 -0.4136
   82SAPS  O13A 7621   4.182   0.199  11.483 -0.1615  0.1308  0.2677
   82SAPS  O13B 7622   4.016   0.154  11.349  0.5624  0.7429  0.1703
   82SAPS   C11 7623   4.130   0.341  11.166  0.4302 -0.2217  0.3518
   82SAPS  H11A 7624   4.090   0.426  11.225 -0.6972  0.1120 -0.8402
   82SAPS  H11B 7625   4.037   0.294  11.128  0.0848 -0.4647  1.4684
   82SAPS     P 7626   4.193   0.353  10.904 -0.4002 -0.3873 -0.0384
   82SAPS   O13 7627   4.075   0.412  10.848 -0.3382 -0.6356  0.6020
   82SAPS   O14 7628   4.327   0.372  10.842 -0.3432 -0.1131  0.2062
   82SAPS   O12 7629   4.199   0.404  11.058  0.6590  0.0543  1.0068
   82SAPS   O11 7630   4.171   0.199  10.924  0.5103 -0.0154 -0.5174
   82SAPS    C1 7631   4.237   0.097  10.854 -0.5259  0.2152  0.3255
   82SAPS    HA 7632   4.347   0.114  10.848 -0.6668  0.7367 -1.0577
   82SAPS    HB 7633   4.218  -0.001  10.903  0.0138 -0.2713 -0.4102
   82SAPS    C2 7634   4.179   0.064  10.705 -0.0824 -0.0355 -0.0984
   82SAPS    HS 7635   4.265   0.003  10.671  1.2782  1.7090  0.0665
   82SAPS   O21 7636   4.159   0.186  10.634  0.1496  0.0342  0.4512
   82SAPS   C21 7637   4.264   0.244  10.573 -0.3918  0.4738  0.5915
   82SAPS   O22 7638   4.376   0.198  10.560  0.6737 -0.3865  0.1982
   82SAPS   C22 7639   4.217   0.369  10.504  0.7161  0.8228 -0.3420
   82SAPS   H2R 7640   4.140   0.342  10.428  0.3144  1.7882 -0.2929
   82SAPS   H2S 7641   4.165   0.439  10.572 -2.3483 -0.6663 -0.9935
   82SAPS    C3 7642   4.039  -0.001  10.710 -0.1488  0.2660 -0.3143
   82SAPS    HX 7643   3.967   0.083  10.717 -1.0694 -0.5297  0.0169
   82SAPS    HY 7644   4.024  -0.053  10.807 -1.0855  2.3950  0.7616
   82SAPS   O31 7645   4.005  -0.083  10.591 -0.0692  0.8571  0.0617
   82SAPS   C31 7646   4.030  -0.213  10.596 -0.4317 -0.2636  0.0768
   82SAPS   O32 7647   4.075  -0.270  10.692 -0.8246  0.2118 -0.9297
   82SAPS   C32 7648   4.005  -0.278  10.463 -0.6422 -0.1735  1.3029
   82SAPS   H2X 7649   3.906  -0.256  10.418 -0.3933  0.1353  0.9061
   82SAPS   H2Y 7650   4.002  -0.387  10.484  2.1453 -0.7254 -0.6525
   82SAPS   C23 7651   4.325   0.454  10.432 -0.0481 -0.3720  0.3063
   82SAPS   H3R 7652   4.419   0.395  10.425  0.6978  0.9966 -3.7131
   82SAPS   H3S 7653   4.336   0.539  10.503 -1.2037  2.2569 -2.4608
   82SAPS   C24 7654   4.301   0.479  10.283  0.3823 -0.0063  0.0287
   82SAPS   H4R 7655   4.275   0.391  10.220 -1.4372  0.0792  0.6219
   82SAPS   H4S 7656   4.397   0.506  10.233  1.2361 -0.8005  1.1910
   82SAPS   C25 7657   4.198   0.585  10.273 -0.4648 -0.5191 -0.9620
   82SAPS   H5R 7658   4.204   0.668  10.346 -2.4340 -1.0134 -0.1581
   82SAPS   C26 7659   4.104   0.596  10.180  0.2180  0.8016  0.1300
   82SAPS   H6R 7660   4.017   0.660  10.196  1.6486  2.8853 -0.0855
   82SAPS   C27 7661   4.103   0.495  10.064  0.6656  0.0682  0.0724
   82SAPS   H7R 7662   4.083   0.391  10.097 -2.0802  0.8331  1.0372
   82SAPS   H7S 7663   4.201   0.488  10.012  1.2149 -2.5732  1.2966
   82SAPS   C28 7664   3.993   0.515   9.965  0.3579 -0.0431  0.0900
   82SAPS   H8R 7665   3.893   0.522  10.011  0.3740 -1.0394  0.3108
   82SAPS   C29 7666   4.007   0.523   9.831 -0.1010 -0.1308  0.1929
   82SAPS   H9R 7667   3.925   0.548   9.762 -1.4266 -2.5542  0.7651
   82SAPS  C210 7668   4.131   0.523   9.750 -0.2682  0.3410 -0.2825
   82SAPS  H10R 7669   4.218   0.579   9.791  0.7274 -0.4280 -1.2792
   82SAPS  H10S 7670   4.107   0.582   9.659 -0.7032  0.3227 -0.1798
   82SAPS  C211 7671   4.162   0.377   9.725 -0.1742 -0.1812  0.3631
   82SAPS  H11R 7672   4.161   0.320   9.820  1.0222 -2.8090 -1.0884
   82SAPS  C212 7673   4.185   0.308   9.608 -0.0565 -0.0317  0.2039
   82SAPS  H12R 7674   4.193   0.199   9.621  0.9296 -0.2015 -1.4798
   82SAPS  C213 7675   4.195   0.362   9.469  0.0458  0.0464 -0.1194
   82SAPS  H13R 7676   4.182   0.472   9.471  0.3264  0.0758  1.8570
   82SAPS  H13S 7677   4.113   0.317   9.408 -0.7263 -0.5038  1.2729
   82SAPS  C214 7678   4.331   0.327   9.415  0.2070 -0.2959 -0.2208
   82SAPS  H14R 7679   4.417   0.304   9.480  0.0665 -2.9017 -0.8262
   82SAPS  C215 7680   4.366   0.311   9.282 -0.1885  0.4142  0.0201
   82SAPS  H15R 7681   4.467   0.276   9.257  0.2275  1.6522 -0.1048
   82SAPS  C216 7682   4.280   0.343   9.164 -1.1694  0.8892 -0.1216
   82SAPS  H16R 7683   4.266   0.453   9.173  1.2194  1.0741  2.7246
   82SAPS  H16S 7684   4.177   0.301   9.161 -0.4328 -0.9480 -0.6919
   82SAPS  C217 7685   4.352   0.311   9.031 -0.3905 -0.0291  0.6468
   82SAPS  H17R 7686   4.374   0.203   9.022  0.1225  0.0900  0.4351
   82SAPS  H17S 7687   4.436   0.383   9.019 -0.6985 -0.0131 -2.2196
   82SAPS  C218 7688   4.268   0.359   8.920 -0.1382  0.2890 -0.2194
   82SAPS  H18R 7689   4.263   0.469   8.931 -0.5194  0.2364  0.1555
   82SAPS  H18S 7690   4.163   0.323   8.929  0.5024 -1.3816  1.0817
   82SAPS  C219 7691   4.320   0.311   8.780 -0.3600  0.0396 -1.0039
   82SAPS  H19R 7692   4.319   0.200   8.772  0.5706  0.1683 -4.1721
   82SAPS  H19S 7693   4.427   0.338   8.773 -0.7087  1.1994 -2.3985
   82SAPS  C220 7694   4.231   0.368   8.673 -0.0186  0.1482  0.1022
   82SAPS  H20R 7695   4.124   0.340   8.688 -0.3524  1.2907 -0.0108
   82SAPS  H20S 7696   4.267   0.337   8.573  0.8079  2.7782 -0.5018
   82SAPS  H20T 7697   4.231   0.478   8.687  1.6809 -0.1817  4.1380
   82SAPS   C33 7698   4.114  -0.252  10.357 -0.3660  0.3135 -0.4842
   82SAPS   H3X 7699   4.084  -0.311  10.268 -1.2118 -2.5210  1.5187
   82SAPS   H3Y 7700   4.205  -0.301  10.398 -0.3829 -0.2333 -1.0772
   82SAPS   C34 7701   4.135  -0.105  10.315 -0.1754 -0.4003  0.6841
   82SAPS   H4X 7702   4.161  -0.036  10.397  1.0302  0.1652 -0.1403
   82SAPS   H4Y 7703   4.042  -0.083  10.259 -0.0921 -0.4725  0.5148
   82SAPS   C35 7704   4.245  -0.099  10.203 -0.1251  0.2745  0.0211
   82SAPS   H5X 7705   4.213  -0.164  10.119  0.1608  0.7233 -0.4367
   82SAPS   H5Y 7706   4.342  -0.127  10.250  1.1375  5.4054  1.1234
   82SAPS   C36 7707   4.264   0.047  10.145  0.0649  0.1703 -0.6388
   82SAPS   H6X 7708   4.269   0.123  10.225 -1.0676 -0.8955  0.4879
   82SAPS   H6Y 7709   4.174   0.069  10.084  0.6658  0.6929 -1.3651
   82SAPS   C37 7710   4.373   0.049  10.040  1.0582 -0.2095 -0.1800
   82SAPS   H7X 7711   4.357  -0.013   9.949  0.1888  0.7127 -0.6781
   82SAPS   H7Y 7712   4.465   0.011  10.090  1.2835  0.6604  0.0843
   82SAPS   C38 7713   4.392   0.190   9.986 -0.0031  0.1998 -0.0291
   82SAPS   H8X 7714   4.370   0.264  10.067 -1.2120 -0.4885  0.2906
   82SAPS   H8Y 7715   4.334   0.203   9.893  1.0224 -0.6663 -0.8142
   82SAPS   C39 7716   4.541   0.207   9.945  0.1458  0.7649 -0.0665
   82SAPS   H9X 7717   4.601   0.160  10.026  1.8825 -0.5596 -2.0248
   82SAPS   H9Y 7718   4.574   0.312   9.932 -0.5139  0.7844 -1.8272
   82SAPS  C310 7719   4.581   0.135   9.811 -0.5903  1.0845 -0.0084
   82SAPS  H10X 7720   4.550   0.196   9.723  0.0684  2.1649  0.4944
   82SAPS  H10Y 7721   4.527   0.038   9.802 -1.0098  1.4231 -1.2712
   82SAPS  C311 7722   4.731   0.106   9.796 -0.4516 -0.0204  0.6528
   82SAPS  H11X 7723   4.750   0.018   9.861  4.0231  0.3330  0.0855
   82SAPS  H11Y 7724   4.793   0.189   9.835  0.6584 -0.8221  0.6405
   82SAPS  C312 7725   4.767   0.067   9.653  0.3284  0.0141  0.7711
   82SAPS  H12X 7726   4.686   0.002   9.614  0.1120  0.1366  1.0157
   82SAPS  H12Y 7727   4.867   0.018   9.658  1.5835  2.1987 -0.8891
   82SAPS  C313 7728   4.783   0.183   9.558  0.1865 -0.2118  0.4192
   82SAPS  H13X 7729   4.891   0.209   9.565  0.2132 -0.2497  0.1532
   82SAPS  H13Y 7730   4.718   0.267   9.590  0.7371  0.6935 -0.7709
   82SAPS  C314 7731   4.752   0.140   9.411 -0.3666 -0.0807 -0.2553
   82SAPS  H14X 7732   4.645   0.116   9.396 -0.5790 -0.4210  1.5063
   82SAPS  H14Y 7733   4.811   0.046   9.399 -1.0200 -0.2040 -3.1587
   82SAPS  C315 7734   4.787   0.252   9.304  0.0945  0.7701  0.2402
   82SAPS  H15X 7735   4.884   0.293   9.341  0.3946 -0.3727  0.7888
   82SAPS  H15Y 7736   4.712   0.334   9.301  0.2714  0.9401  0.4149
   82SAPS  C316 7737   4.797   0.193   9.162 -0.6054 -0.5251  0.0226
   82SAPS  H16X 7738   4.695   0.174   9.122 -0.3806  0.7815 -1.2353
   82SAPS  H16Y 7739   4.839   0.091   9.172  2.2468  0.7450  2.3800
   82SAPS  C317 7740   4.890   0.279   9.070  0.0645  0.0731 -0.6777
   82SAPS  H17X 7741   4.983   0.295   9.129 -0.5345  1.6115 -0.0955
   82SAPS  H17Y 7742   4.831   0.373   9.068 -1.7199 -1.0237 -2.4375
   82SAPS  C318 7743   4.902   0.229   8.928 -0.3920  0.8405 -0.3793
   82SAPS  H18X 7744   4.803   0.235   8.877  0.0441 -0.7618 -1.4708
   82SAPS  H18Y 7745   4.931   0.122   8.925  0.4961  1.0082  1.1594
   82SAPS  H18Z 7746   4.980   0.277   8.866  1.0527 -1.5857 -0.5271
   83SAPS     N 7747   4.472   0.598  10.874  1.3771  0.1498 -0.2818
   83SAPS   HN1 7748   4.446   0.500  10.854 -0.4612  0.9489 -2.1985
   83SAPS   HN2 7749   4.417   0.664  10.815  0.5340  1.7000  2.0610
   83SAPS   HN3 7750   4.571   0.613  10.848  1.5432 -1.6363 -0.7915
   83SAPS   C12 7751   4.441   0.646  11.011 -0.3364  0.1981  0.2562
   83SAPS  H12A 7752   4.335   0.664  11.024 -0.0501  2.0155  0.3383
   83SAPS   C13 7753   4.486   0.551  11.134 -0.0406  0.2582  0.6588
   83SAPS  O13A 7754   4.548   0.443  11.106 -0.3226  0.1022  0.0009
   83SAPS  O13B 7755   4.460   0.578  11.255 -0.4801  0.0117  0.3608
   83SAPS   C11 7756   4.520   0.774  11.032  0.3786  0.0715 -0.4778
   83SAPS  H11A 7757   4.501   0.797  11.139 -0.1781 -0.4647 -0.4593
   83SAPS  H11B 7758   4.471   0.848  10.965  0.1959 -0.0480 -0.4757
   83SAPS     P 7759   4.757   0.888  11.068  0.4842  0.0752 -0.1176
   83SAPS   O13 7760   4.710   0.941  11.195 -0.4519  0.1106  0.2345
   83SAPS   O14 7761   4.894   0.833  11.069  0.4089 -0.1662  0.5128
   83SAPS   O12 7762   4.660   0.769  11.016 -0.1969  0.5077 -0.4559
   83SAPS   O11 7763   4.743   1.003  10.960  0.6549  0.4722  0.4942
   83SAPS    C1 7764   4.828   1.009  10.845 -0.0785 -0.1639  0.6802
   83SAPS    HA 7765   4.874   1.110  10.833 -1.1240  0.2321 -0.1482
   83SAPS    HB 7766   4.913   0.937  10.843  0.8335  0.8740 -1.8176
   83SAPS    C2 7767   4.739   0.993  10.725 -0.6951 -0.4515  0.1686
   83SAPS    HS 7768   4.696   0.891  10.721 -1.9947  0.0059  1.5621
   83SAPS   O21 7769   4.819   1.016  10.606  0.4177 -0.6451  0.0000
   83SAPS   C21 7770   4.890   0.906  10.563 -0.1197  0.4092 -0.2157
   83SAPS   O22 7771   4.894   0.799  10.619  0.1725  0.4481 -0.3354
   83SAPS   C22 7772   4.954   0.940  10.434  0.6616  0.4404 -0.4972
   83SAPS   H2R 7773   4.927   0.854  10.369 -2.2558  2.6729 -2.4842
   83SAPS   H2S 7774   4.900   1.025  10.388 -0.7062 -0.6501 -0.9793
   83SAPS    C3 7775   4.622   1.084  10.731 -0.7832 -0.3076 -0.3620
   83SAPS    HX 7776   4.556   1.071  10.820 -2.2061  0.7329 -1.2211
   83SAPS    HY 7777   4.557   1.060  10.644 -3.3309 -1.4404  1.7204
   83SAPS   O31 7778   4.667   1.223  10.732  0.5256  0.6325 -0.4848
   83SAPS   C31 7779   4.584   1.316  10.685 -0.2347  0.5284  0.1681
   83SAPS   O32 7780   4.471   1.289  10.650  0.3069  0.8391  0.1542
   83SAPS   C32 7781   4.647   1.446  10.676  0.0367 -0.0913 -0.0473
   83SAPS   H2X 7782   4.689   1.469  10.776  2.1694 -0.1314 -0.8816
   83SAPS   H2Y 7783   4.569   1.523  10.655  0.4381  0.5907  0.9195
   83SAPS   C23 7784   5.107   0.955  10.450  1.3149 -0.6753  0.2002
   83SAPS   H3R 7785   5.142   0.879  10.524 -0.3760  0.0183  1.7872
   83SAPS   H3S 7786   5.116   1.060  10.484 -0.4121  0.8389 -3.4201
   83SAPS   C24 7787   5.171   0.934  10.312 -1.0136  0.4314  0.9336
   83SAPS   H4R 7788   5.132   0.836  10.277 -1.5565  0.8959  0.2220
   83SAPS   H4S 7789   5.280   0.931  10.333 -0.8509  1.0945  0.2310
   83SAPS   C25 7790   5.165   1.041  10.202  0.3912 -0.3753 -0.1435
   83SAPS   H5R 7791   5.195   1.143  10.230  1.5614 -0.3676 -1.3528
   83SAPS   C26 7792   5.117   1.020  10.074 -0.2343  0.0653 -0.0662
   83SAPS   H6R 7793   5.129   1.103  10.003  2.6157  1.8084  2.2294
   83SAPS   C27 7794   5.073   0.883  10.024  0.6690  0.0647  0.2246
   83SAPS   H7R 7795   4.976   0.901   9.973  0.6830  0.3941  0.3084
   83SAPS   H7S 7796   5.033   0.817  10.104 -2.0707  0.8390 -0.3990
   83SAPS   C28 7797   5.170   0.809   9.934  0.4310  0.7020  0.2059
   83SAPS   H8R 7798   5.270   0.792   9.977  0.0959 -3.0288 -0.1309
   83SAPS   C29 7799   5.140   0.763   9.814 -0.1681  0.2598  0.2557
   83SAPS   H9R 7800   5.224   0.715   9.761 -0.8658  0.4657 -1.0860
   83SAPS  C210 7801   5.015   0.771   9.734  0.0866  0.4719 -1.0315
   83SAPS  H10R 7802   5.045   0.787   9.629 -0.6556  2.1627 -1.0143
   83SAPS  H10S 7803   4.956   0.860   9.763 -0.3087 -0.5310  1.5045
   83SAPS  C211 7804   4.937   0.646   9.760 -0.7753  0.6559  0.0241
   83SAPS  H11R 7805   4.882   0.642   9.855 -1.5708  1.0146 -0.4074
   83SAPS  C212 7806   4.930   0.539   9.674  0.0420 -0.0402 -0.1339
   83SAPS  H12R 7807   4.869   0.455   9.711  1.5237 -0.3319  1.8217
   83SAPS  C213 7808   4.993   0.515   9.542  0.3426 -0.0683 -0.0181
   83SAPS  H13R 7809   4.946   0.594   9.478  0.5213 -0.2647 -0.3943
   83SAPS  H13S 7810   4.960   0.413   9.513 -0.8527  0.3350 -0.1188
   83SAPS  C214 7811   5.144   0.519   9.533  0.6267  0.4034 -0.2993
   83SAPS  H14R 7812   5.191   0.480   9.624 -2.1776 -0.3143  0.9554
   83SAPS  C215 7813   5.211   0.561   9.429 -0.2779  0.4035 -0.1160
   83SAPS  H15R 7814   5.320   0.549   9.443 -0.3692  1.5099  1.9596
   83SAPS  C216 7815   5.161   0.609   9.296 -0.1394  0.6714 -0.3775
   83SAPS  H16R 7816   5.149   0.719   9.309 -1.1843  0.3714  1.7263
   83SAPS  H16S 7817   5.054   0.586   9.276 -0.1212  1.1508 -1.0391
   83SAPS  C217 7818   5.250   0.554   9.181  0.5365 -0.2707 -0.3416
   83SAPS  H17R 7819   5.234   0.446   9.162  0.6423 -0.4308  0.4270
   83SAPS  H17S 7820   5.357   0.575   9.202  0.3228 -0.7728  1.4000
   83SAPS  C218 7821   5.226   0.628   9.045 -0.0560  0.0701  0.2654
   83SAPS  H18R 7822   5.312   0.617   8.975  1.1941 -0.5297  1.8418
   83SAPS  H18S 7823   5.193   0.732   9.066 -0.2484 -0.2853  1.7908
   83SAPS  C219 7824   5.101   0.573   8.971 -0.5798 -0.3931  1.2104
   83SAPS  H19R 7825   5.015   0.576   9.041 -0.4373 -0.2193  1.3807
   83SAPS  H19S 7826   5.120   0.467   8.944 -0.4719 -1.3321  4.5803
   83SAPS  C220 7827   5.076   0.639   8.835  0.5541 -0.2593 -0.3639
   83SAPS  H20R 7828   5.171   0.660   8.783  0.5008  2.2857  0.4332
   83SAPS  H20S 7829   5.021   0.735   8.841 -0.4919 -0.8574  0.0264
   83SAPS  H20T 7830   5.003   0.576   8.779  0.4255 -0.1784 -0.2872
   83SAPS   C33 7831   4.749   1.464  10.564 -0.3650 -0.3817 -0.2880
   83SAPS   H3X 7832   4.790   1.565  10.583 -1.7923  0.3155 -0.7755
   83SAPS   H3Y 7833   4.682   1.477  10.477  0.3553 -0.8249 -0.9172
   83SAPS   C34 7834   4.857   1.360  10.545 -0.2493  0.5155  0.7610
   83SAPS   H4X 7835   4.834   1.251  10.544 -0.8521  0.6222 -1.3730
   83SAPS   H4Y 7836   4.919   1.359  10.638 -1.1092 -2.6449  1.4317
   83SAPS   C35 7837   4.944   1.395  10.421 -0.4575  0.2623 -0.1525
   83SAPS   H5X 7838   4.878   1.383  10.332  0.3539 -0.2282 -0.6990
   83SAPS   H5Y 7839   5.028   1.323  10.417 -0.2399  0.5826 -1.6684
   83SAPS   C36 7840   5.001   1.537  10.415  0.4381  0.2286 -0.1475
   83SAPS   H6X 7841   5.065   1.552  10.505  0.5908 -1.4473  0.0604
   83SAPS   H6Y 7842   4.916   1.607  10.426  1.7025  1.6697  0.8022
   83SAPS   C37 7843   5.078   1.553  10.284 -1.4208 -0.1727 -0.1510
   83SAPS   H7X 7844   5.136   1.466  10.248  1.0587  0.9494  0.8254
   83SAPS   H7Y 7845   5.162   1.622  10.309 -2.3678  0.5207  1.2569
   83SAPS   C38 7846   4.992   1.615  10.175  0.7993  0.1490  0.0035
   83SAPS   H8X 7847   4.953   1.708  10.221 -0.1044  1.7752 -3.7107
   83SAPS   H8Y 7848   4.912   1.541  10.153 -0.8988  1.7187  0.6615
   83SAPS   C39 7849   5.065   1.665  10.055 -0.1361  0.3555  0.5724
   83SAPS   H9X 7850   5.154   1.721  10.091 -1.7766  2.8242  1.0307
   83SAPS   H9Y 7851   5.005   1.731   9.990 -1.4021 -1.3936 -0.1095
   83SAPS  C310 7852   5.122   1.557   9.963  1.3262 -0.2661 -0.7635
   83SAPS  H10X 7853   5.184   1.486  10.021 -0.4264 -0.5339  0.9025
   83SAPS  H10Y 7854   5.179   1.603   9.880 -1.3937 -3.4331 -4.8045
   83SAPS  C311 7855   5.014   1.462   9.902  0.3568  0.4182 -0.5154
   83SAPS  H11X 7856   4.947   1.512   9.829 -1.3215 -0.1077  0.6029
   83SAPS  H11Y 7857   4.944   1.413   9.972 -2.9960  0.2822 -3.6502
   83SAPS  C312 7858   5.086   1.350   9.829 -0.3179  0.1967  0.3053
   83SAPS  H12X 7859   5.136   1.285   9.904  2.3730 -0.6945 -2.1023
   83SAPS  H12Y 7860   5.173   1.394   9.776  0.1127  1.8889  2.2823
   83SAPS  C313 7861   4.985   1.280   9.735  0.4946  0.0747 -0.6306
   83SAPS  H13X 7862   4.931   1.356   9.674 -2.1675 -1.2347 -0.0511
   83SAPS  H13Y 7863   4.902   1.222   9.782 -0.6164  1.0845 -1.2882
   83SAPS  C314 7864   5.053   1.190   9.626 -0.0138 -0.5462 -0.1421
   83SAPS  H14X 7865   5.098   1.110   9.689  0.4778  1.5594  2.3414
   83SAPS  H14Y 7866   5.126   1.258   9.578 -1.2662 -0.1498 -1.5618
   83SAPS  C315 7867   4.956   1.143   9.521 -0.1511  0.2123 -0.3950
   83SAPS  H15X 7868   4.894   1.226   9.481  1.8210  2.7773  1.5260
   83SAPS  H15Y 7869   4.892   1.078   9.585 -0.9228  0.9751 -0.3787
   83SAPS  C316 7870   5.021   1.065   9.408  0.1914  0.1875 -0.5969
   83SAPS  H16X 7871   5.080   0.988   9.461  0.6055  0.4443 -0.6807
   83SAPS  H16Y 7872   5.098   1.127   9.358 -1.3212  1.1185 -1.9090
   83SAPS  C317 7873   4.917   1.023   9.298 -0.3123  0.3466 -0.3787
   83SAPS  H17X 7874   4.849   1.110   9.293 -0.8501 -0.0117  0.5479
   83SAPS  H17Y 7875   4.853   0.941   9.336 -2.2147  0.9318 -2.1606
   83SAPS  C318 7876   4.973   0.993   9.154 -0.2979 -0.3903 -0.3580
   83SAPS  H18X 7877   5.057   1.064   9.139  0.0209 -0.6600  0.1160
   83SAPS  H18Y 7878   4.901   1.004   9.071 -1.0856 -1.7324  0.1113
   83SAPS  H18Z 7879   5.004   0.886   9.154  1.6243  0.1128 -0.1142
   84SAPS     N 7880   6.651   0.061  11.281 -0.0029  0.2119 -0.6039
   84SAPS   HN1 7881   6.606   0.154  11.275  1.5231  0.9582 -1.0069
   84SAPS   HN2 7882   6.692   0.037  11.188 -2.3442 -0.8526 -1.4206
   84SAPS   HN3 7883   6.576  -0.004  11.312  0.9787 -0.5096  0.3452
   84SAPS   C12 7884   6.767   0.060  11.378 -0.3049  0.0187  0.1776
   84SAPS  H12A 7885   6.733   0.094  11.475 -1.4482 -1.6024  0.3919
   84SAPS   C13 7886   6.830  -0.081  11.394 -0.1544 -0.0213 -0.8951
   84SAPS  O13A 7887   6.784  -0.174  11.331  0.1110  0.5211  0.2413
   84SAPS  O13B 7888   6.932  -0.086  11.468 -0.4408  0.1877 -0.0168
   84SAPS   C11 7889   6.884   0.160  11.328 -0.3476 -0.1953  0.0233
   84SAPS  H11A 7890   6.942   0.114  11.245  2.6050  2.8986  0.1969
   84SAPS  H11B 7891   6.945   0.161  11.420 -0.7834  0.0527  0.3115
   84SAPS     P 7892   6.907   0.412  11.271  0.3222 -0.3191 -0.0351
   84SAPS   O13 7893   6.827   0.537  11.274  0.0208  1.2130  0.1348
   84SAPS   O14 7894   7.024   0.413  11.356  0.1091 -0.7631  0.3000
   84SAPS   O12 7895   6.818   0.284  11.301 -0.3876  0.5582 -0.4395
   84SAPS   O11 7896   6.953   0.393  11.121  0.0742  0.5473 -0.7168
   84SAPS    C1 7897   6.849   0.339  11.029 -0.1281 -0.1707  0.2433
   84SAPS    HA 7898   6.770   0.274  11.070  0.1691 -1.0600 -0.5663
   84SAPS    HB 7899   6.795   0.429  10.993 -0.5604  0.3514  2.0831
   84SAPS    C2 7900   6.922   0.263  10.916 -1.0654  0.2665  0.4349
   84SAPS    HS 7901   6.967   0.168  10.953 -1.0746 -0.4313 -1.2078
   84SAPS   O21 7902   7.010   0.356  10.847  0.5417 -0.3474  0.0393
   84SAPS   C21 7903   7.112   0.298  10.786  0.1763 -0.6335  0.0848
   84SAPS   O22 7904   7.126   0.175  10.779  0.0067 -0.2411 -0.7183
   84SAPS   C22 7905   7.182   0.413  10.710  0.7707  0.2896 -0.4929
   84SAPS   H2R 7906   7.110   0.497  10.699  1.6601  1.0011 -0.9372
   84SAPS   H2S 7907   7.263   0.449  10.776  0.6930  2.1713 -1.3663
   84SAPS    C3 7908   6.823   0.207  10.811 -0.7438 -0.4917 -0.0396
   84SAPS    HX 7909   6.759   0.154  10.885  0.3465  0.2496  1.4997
   84SAPS    HY 7910   6.870   0.140  10.736 -0.6596 -0.2131 -0.2350
   84SAPS   O31 7911   6.750   0.311  10.746 -0.2415 -0.5211 -0.2816
   84SAPS   C31 7912   6.673   0.260  10.651  0.3354  0.2444  0.6804
   84SAPS   O32 7913   6.639   0.143  10.638  0.5067 -0.0018  0.0242
   84SAPS   C32 7914   6.632   0.378  10.553 -0.6651  0.7856  0.4616
   84SAPS   H2X 7915   6.675   0.473  10.592  0.3572  0.6117 -0.2031
   84SAPS   H2Y 7916   6.522   0.394  10.556 -0.6769  0.6832  0.6075
   84SAPS   C23 7917   7.217   0.349  10.574 -0.6060  0.1227 -0.1624
   84SAPS   H3R 7918   7.249   0.243  10.577  1.5544  0.6863  3.5910
   84SAPS   H3S 7919   7.304   0.401  10.528  1.4040 -1.1819  1.9404
   84SAPS   C24 7920   7.094   0.347  10.475  0.1092 -0.2229  1.0412
   84SAPS   H4R 7921   7.011   0.284  10.513  0.2900  0.3175  2.3947
   84SAPS   H4S 7922   7.137   0.286  10.393  0.4622 -0.5903  1.4960
   84SAPS   C25 7923   7.037   0.484  10.431 -0.6069 -0.6217 -0.2012
   84SAPS   H5R 7924   6.932   0.496  10.460 -2.6365  0.8291 -6.4624
   84SAPS   C26 7925   7.096   0.591  10.372 -0.5327  0.1507  0.0502
   84SAPS   H6R 7926   7.026   0.666  10.332 -1.1229 -1.3757 -1.9367
   84SAPS   C27 7927   7.238   0.587  10.333  0.0400  0.4232  0.3082
   84SAPS   H7R 7928   7.232   0.588  10.222  1.4808 -1.6429  0.1738
   84SAPS   H7S 7929   7.282   0.486  10.338  0.4498  0.3964 -2.2328
   84SAPS   C28 7930   7.333   0.699  10.370  0.2356  0.3354 -0.0727
   84SAPS   H8R 7931   7.363   0.710  10.475  1.0041  2.3318 -0.4500
   84SAPS   C29 7932   7.408   0.787  10.294  0.6690 -1.1953  0.5769
   84SAPS   H9R 7933   7.472   0.865  10.337 -0.2867 -0.3888  0.5795
   84SAPS  C210 7934   7.394   0.807  10.148 -0.8223  0.8033 -0.1427
   84SAPS  H10R 7935   7.485   0.866  10.122  1.9183 -2.1071  1.9990
   84SAPS  H10S 7936   7.303   0.860  10.114 -0.6468  1.7323  0.7839
   84SAPS  C211 7937   7.414   0.689  10.050 -0.3147  0.3966  0.2114
   84SAPS  H11R 7938   7.455   0.599  10.099 -3.4234 -0.8945  0.6252
   84SAPS  C212 7939   7.400   0.676   9.915 -0.2447 -0.5593  0.5324
   84SAPS  H12R 7940   7.429   0.581   9.869 -0.1037  0.1830 -0.9644
   84SAPS  C213 7941   7.353   0.781   9.819  0.3625  0.5615  0.7823
   84SAPS  H13R 7942   7.264   0.835   9.856 -0.7290 -0.1672 -0.6994
   84SAPS  H13S 7943   7.309   0.742   9.725  0.9622  2.2776 -0.2634
   84SAPS  C214 7944   7.451   0.881   9.793 -0.6862  1.1584 -0.4792
   84SAPS  H14R 7945   7.488   0.929   9.885 -1.4250 -1.3787  1.2677
   84SAPS  C215 7946   7.510   0.894   9.674  0.1925 -0.6240 -0.1467
   84SAPS  H15R 7947   7.563   0.990   9.666 -0.9920  0.0006 -0.7183
   84SAPS  C216 7948   7.483   0.818   9.551  0.0720  0.0049  0.4785
   84SAPS  H16R 7949   7.486   0.709   9.572  1.4719  0.1697  1.2794
   84SAPS  H16S 7950   7.564   0.835   9.477 -1.9487  0.1146 -1.8375
   84SAPS  C217 7951   7.350   0.858   9.474 -0.6806 -0.6971 -0.8191
   84SAPS  H17R 7952   7.274   0.864   9.555  0.9707 -1.8867  0.9375
   84SAPS  H17S 7953   7.322   0.771   9.411  0.6658 -3.0828  1.6290
   84SAPS  C218 7954   7.367   0.996   9.404  0.5442  0.1035 -0.1759
   84SAPS  H18R 7955   7.445   0.973   9.329  0.5257 -1.4585  0.2531
   84SAPS  H18S 7956   7.403   1.074   9.475 -0.2578 -0.8758  1.3614
   84SAPS  C219 7957   7.237   1.032   9.325  0.9356 -0.4006 -0.1252
   84SAPS  H19R 7958   7.208   1.138   9.307 -3.2273 -1.3149  0.3098
   84SAPS  H19S 7959   7.160   1.004   9.399  0.0521 -0.3982 -1.0329
   84SAPS  C220 7960   7.212   0.950   9.197 -0.4734  0.3124  0.1888
   84SAPS  H20R 7961   7.104   0.943   9.170 -0.3555  2.8606 -1.2194
   84SAPS  H20S 7962   7.265   0.853   9.195  1.6185  1.3647  0.9982
   84SAPS  H20T 7963   7.254   1.001   9.108 -0.3349  0.8325  0.5483
   84SAPS   C33 7964   6.666   0.341  10.407  0.0731  0.3614 -0.0073
   84SAPS   H3X 7965   6.582   0.274  10.377  1.5254 -1.7176  0.2850
   84SAPS   H3Y 7966   6.752   0.271  10.402  0.0185  0.3176 -0.3665
   84SAPS   C34 7967   6.651   0.453  10.308 -0.6861 -0.3216 -0.3262
   84SAPS   H4X 7968   6.730   0.530  10.324 -1.9348  0.4386  2.7285
   84SAPS   H4Y 7969   6.557   0.510  10.323  0.1485  0.9185  0.3523
   84SAPS   C35 7970   6.649   0.400  10.158 -0.7756 -0.1903 -0.2819
   84SAPS   H5X 7971   6.574   0.319  10.170  0.9784 -2.1612 -1.7656
   84SAPS   H5Y 7972   6.744   0.349  10.132 -1.7495 -1.6560 -1.1037
   84SAPS   C36 7973   6.622   0.519  10.061  0.0938  0.2978  0.1846
   84SAPS   H6X 7974   6.694   0.602  10.082 -0.8385  1.2415 -0.2608
   84SAPS   H6Y 7975   6.519   0.555  10.080  0.1363  0.6812 -0.2850
   84SAPS   C37 7976   6.652   0.504   9.905 -0.4580 -0.2330  0.2178
   84SAPS   H7X 7977   6.614   0.599   9.862 -0.2803  0.5873  1.8050
   84SAPS   H7Y 7978   6.588   0.419   9.872  0.3218  0.0363 -2.1963
   84SAPS   C38 7979   6.794   0.457   9.881  0.3843 -0.1410  0.5365
   84SAPS   H8X 7980   6.795   0.353   9.920  0.1319 -0.3724 -0.0522
   84SAPS   H8Y 7981   6.868   0.512   9.943  0.0890  1.6883 -0.6686
   84SAPS   C39 7982   6.837   0.472   9.731  1.0098  0.2489  0.2713
   84SAPS   H9X 7983   6.852   0.580   9.709 -0.9777  0.3504 -0.7984
   84SAPS   H9Y 7984   6.756   0.434   9.665  1.1723  2.0740 -1.0548
   84SAPS  C310 7985   6.964   0.402   9.685 -0.0862  0.0149 -0.5917
   84SAPS  H10X 7986   6.937   0.296   9.703  0.6409 -0.5097 -2.3572
   84SAPS  H10Y 7987   7.054   0.426   9.745  0.5795  0.8452 -1.8769
   84SAPS  C311 7988   7.008   0.417   9.542 -0.4380 -0.8870  0.0567
   84SAPS  H11X 7989   7.045   0.519   9.521 -2.2383 -0.0462  0.7821
   84SAPS  H11Y 7990   6.923   0.388   9.477 -0.1866  0.2617 -0.8196
   84SAPS  C312 7991   7.141   0.339   9.508  0.2932 -0.2703  0.2525
   84SAPS  H12X 7992   7.141   0.233   9.540 -1.1851 -1.4630 -3.1253
   84SAPS  H12Y 7993   7.219   0.395   9.563  0.8983 -0.6837 -0.1724
   84SAPS  C313 7994   7.181   0.347   9.358 -0.0776 -0.3637  0.9472
   84SAPS  H13X 7995   7.283   0.309   9.335  0.2199  1.6467 -1.5198
   84SAPS  H13Y 7996   7.174   0.456   9.336 -0.2962 -0.7861 -1.3813
   84SAPS  C314 7997   7.100   0.256   9.257 -0.2229 -0.6311  0.0346
   84SAPS  H14X 7998   7.113   0.302   9.156 -0.3282  0.9145  0.6919
   84SAPS  H14Y 7999   6.990   0.260   9.268 -0.7767 -1.3471 -3.7498
   84SAPS  C315 8000   7.142   0.114   9.234 -0.2257  0.0063 -0.2290
   84SAPS  H15X 8001   7.123   0.057   9.327 -1.0448  0.0506 -0.3633
   84SAPS  H15Y 8002   7.251   0.100   9.219 -0.2767 -2.1987  1.0287
   84SAPS  C316 8003   7.069   0.030   9.122  0.2873  0.3508 -0.2938
   84SAPS  H16X 8004   7.034   0.102   9.044 -1.4043 -3.0352 -2.9501
   84SAPS  H16Y 8005   6.984  -0.023   9.168  1.9050 -0.6026  1.7410
   84SAPS  C317 8006   7.165  -0.081   9.070 -0.0936 -0.4355  0.6849
   84SAPS  H17X 8007   7.209  -0.137   9.154 -0.6949  2.6987  3.2942
   84SAPS  H17Y 8008   7.241  -0.026   9.010  0.7389 -0.9401  1.2641
   84SAPS  C318 8009   7.092  -0.186   8.986  0.3053 -0.2102  0.6159
   84SAPS  H18X 8010   7.143  -0.284   8.990  0.2826 -0.3574 -1.5290
   84SAPS  H18Y 8011   7.073  -0.146   8.884 -0.6483 -2.2930 -0.0710
   84SAPS  H18Z 8012   6.985  -0.200   9.011 -0.3798  0.0652 -1.8874
   85SAPS     N 8013   3.263   2.595  10.883 -0.3313 -0.1997 -0.1202
   85SAPS   HN1 8014   3.252   2.531  10.801  1.3618 -1.7358  0.7708
   85SAPS   HN2 8015   3.169   2.603  10.928  0.3661  1.2046  1.1802
   85SAPS   HN3 8016   3.276   2.694  10.855 -2.8037  0.8693  2.0224
   85SAPS   C12 8017   3.377   2.566  10.973 -0.2391 -0.0985  0.1061
   85SAPS  H12A 8018   3.445   2.624  10.913  0.8224  0.2960  1.6183
   85SAPS   C13 8019   3.359   2.644  11.109 -0.1575 -0.4593  0.3703
   85SAPS  O13A 8020   3.252   2.709  11.128 -0.2810  0.0170 -0.0190
   85SAPS  O13B 8021   3.451   2.654  11.192 -0.3276 -0.0630  0.0420
   85SAPS   C11 8022   3.395   2.410  10.989  0.5541  0.0575  1.5299
   85SAPS  H11A 8023   3.485   2.401  11.055 -0.7480 -0.6290  3.2863
   85SAPS  H11B 8024   3.429   2.367  10.892 -0.9343 -0.5255  1.2494
   85SAPS     P 8025   3.256   2.193  11.016 -0.2308  0.3670 -0.0949
   85SAPS   O13 8026   3.364   2.123  11.083 -0.2231 -0.8487  0.5709
   85SAPS   O14 8027   3.118   2.151  11.059 -0.1457 -0.6651  0.7130
   85SAPS   O12 8028   3.284   2.345  11.048  0.1151 -1.0079 -0.2700
   85SAPS   O11 8029   3.264   2.183  10.859  0.2437  0.3683  0.2206
   85SAPS    C1 8030   3.159   2.214  10.775 -0.4946 -0.3177  0.2532
   85SAPS    HA 8031   3.083   2.134  10.782 -0.7379 -0.0131  1.1601
   85SAPS    HB 8032   3.115   2.312  10.800  0.7207  0.3991 -0.3341
   85SAPS    C2 8033   3.207   2.213  10.627  0.5820  0.2749 -0.4210
   85SAPS    HS 8034   3.237   2.109  10.602 -0.6583 -0.0743 -0.4801
   85SAPS   O21 8035   3.312   2.307  10.621  0.5975 -0.4494  0.1607
   85SAPS   C21 8036   3.428   2.261  10.580  0.7269 -0.2262  0.3044
   85SAPS   O22 8037   3.463   2.146  10.566 -0.0898  0.2652  0.4139
   85SAPS   C22 8038   3.515   2.379  10.575  1.2915  0.2501  0.1028
   85SAPS   H2R 8039   3.469   2.447  10.501  1.4433 -1.1652 -1.3506
   85SAPS   H2S 8040   3.507   2.429  10.674  1.0633 -0.8822  0.6754
   85SAPS    C3 8041   3.110   2.252  10.523  0.5164  0.0584  0.5490
   85SAPS    HX 8042   3.077   2.356  10.546  0.6368  0.2437 -0.0981
   85SAPS    HY 8043   3.021   2.187  10.537 -1.6241  3.0282  1.8488
   85SAPS   O31 8044   3.158   2.224  10.388 -0.0920  0.2672  0.2001
   85SAPS   C31 8045   3.229   2.323  10.330  0.2805  0.2210 -0.4604
   85SAPS   O32 8046   3.250   2.430  10.384  0.3432  0.2276  0.1761
   85SAPS   C32 8047   3.263   2.281  10.188 -0.1846 -0.5798 -0.7895
   85SAPS   H2X 8048   3.181   2.309  10.118  0.2213  2.3020 -0.2580
   85SAPS   H2Y 8049   3.267   2.170  10.189 -2.4069 -0.7341 -2.4490
   85SAPS   C23 8050   3.661   2.356  10.542  0.1656 -0.2725  0.5703
   85SAPS   H3R 8051   3.663   2.308  10.442  1.8217  4.0499 -1.7295
   85SAPS   H3S 8052   3.705   2.281  10.611  1.8487  0.3157  0.1717
   85SAPS   C24 8053   3.749   2.481  10.539 -0.2457 -0.4198 -0.7364
   85SAPS   H4R 8054   3.714   2.564  10.474  0.9905  1.8505  1.3329
   85SAPS   H4S 8055   3.840   2.448  10.483 -0.1219  0.0714 -0.8356
   85SAPS   C25 8056   3.765   2.541  10.678 -0.1187 -0.4080  0.1640
   85SAPS   H5R 8057   3.692   2.622  10.692 -1.3599 -1.0231 -2.1457
   85SAPS   C26 8058   3.838   2.498  10.781 -0.3324  0.1680 -1.0962
   85SAPS   H6R 8059   3.835   2.553  10.876 -0.1945  0.2028 -1.1108
   85SAPS   C27 8060   3.931   2.379  10.780 -0.0214  0.3307  0.1720
   85SAPS   H7R 8061   4.035   2.407  10.754 -0.1307 -0.9319 -1.9223
   85SAPS   H7S 8062   3.911   2.304  10.699  1.2448  0.7182 -0.5411
   85SAPS   C28 8063   3.912   2.292  10.904  0.6629 -0.3119  0.1626
   85SAPS   H8R 8064   3.812   2.295  10.950  0.4931 -0.7447 -0.1704
   85SAPS   C29 8065   4.015   2.243  10.973  0.7204 -0.2927 -0.1215
   85SAPS   H9R 8066   3.983   2.176  11.053 -3.1997 -1.3843 -2.3534
   85SAPS  C210 8067   4.162   2.259  10.939  0.2773 -0.0388  0.8970
   85SAPS  H10R 8068   4.185   2.365  10.913  0.4034 -0.1891  0.3917
   85SAPS  H10S 8069   4.177   2.212  10.840 -1.3942  1.6384 -0.2262
   85SAPS  C211 8070   4.269   2.222  11.036  0.0538  0.1583  0.2196
   85SAPS  H11R 8071   4.284   2.296  11.116 -2.5733  3.0514 -1.7308
   85SAPS  C212 8072   4.361   2.118  11.037  0.3057 -0.0235  0.8994
   85SAPS  H12R 8073   4.405   2.104  11.137  2.5084  1.8056  0.2902
   85SAPS  C213 8074   4.383   2.009  10.935  0.2826  0.2133  0.1614
   85SAPS  H13R 8075   4.374   2.062  10.838  2.1023  2.7306  1.2651
   85SAPS  H13S 8076   4.291   1.947  10.935  0.4025  0.0218 -0.4040
   85SAPS  C214 8077   4.507   1.932  10.925  0.1974  0.4466 -0.8626
   85SAPS  H14R 8078   4.490   1.828  10.957 -0.8944  0.8092 -0.1902
   85SAPS  C215 8079   4.630   1.974  10.880  1.0056 -0.5698 -0.0147
   85SAPS  H15R 8080   4.715   1.905  10.870  0.2540 -1.3128 -1.8250
   85SAPS  C216 8081   4.656   2.111  10.832 -0.4739 -0.4860  0.4151
   85SAPS  H16R 8082   4.588   2.186  10.877  1.5171  1.2878  0.6561
   85SAPS  H16S 8083   4.636   2.126  10.724 -1.9422 -0.2708  0.6921
   85SAPS  C217 8084   4.793   2.189  10.863  0.1666  0.3671  0.4207
   85SAPS  H17R 8085   4.869   2.108  10.868  1.6334  1.7225  0.6891
   85SAPS  H17S 8086   4.788   2.243  10.960  2.2702  0.2962  0.6134
   85SAPS  C218 8087   4.832   2.292  10.761  0.4102 -0.6884  0.8409
   85SAPS  H18R 8088   4.818   2.242  10.662 -1.5460  3.3286 -1.1454
   85SAPS  H18S 8089   4.936   2.327  10.774 -0.3844  1.0841  3.0838
   85SAPS  C219 8090   4.741   2.413  10.750  0.2026 -0.1450  0.4647
   85SAPS  H19R 8091   4.636   2.388  10.721  0.3235  0.0176 -0.1371
   85SAPS  H19S 8092   4.778   2.474  10.665 -0.6031 -2.2356 -1.5042
   85SAPS  C220 8093   4.755   2.493  10.882  0.0572 -0.1469 -0.3017
   85SAPS  H20R 8094   4.851   2.462  10.929 -0.9163 -1.4049  0.9773
   85SAPS  H20S 8095   4.673   2.463  10.951  0.3282 -0.7218 -0.2237
   85SAPS  H20T 8096   4.772   2.601  10.865  0.7172  0.1333  1.9003
   85SAPS   C33 8097   3.405   2.329  10.149  0.2838 -0.5968 -0.1437
   85SAPS   H3X 8098   3.478   2.272  10.210  0.8236 -1.3346 -1.4258
   85SAPS   H3Y 8099   3.418   2.435  10.178  0.9814 -1.1493  1.7135
   85SAPS   C34 8100   3.415   2.299  10.003 -0.6439  0.3996  0.3047
   85SAPS   H4X 8101   3.340   2.225   9.970 -1.3587  1.7010 -1.1271
   85SAPS   H4Y 8102   3.515   2.252   9.988 -0.7330 -0.2450  1.6001
   85SAPS   C35 8103   3.383   2.415   9.901 -0.0376  0.1099  0.0368
   85SAPS   H5X 8104   3.429   2.511   9.934 -2.5401  1.0204  1.1741
   85SAPS   H5Y 8105   3.279   2.454   9.910  0.8266  2.3472  1.1346
   85SAPS   C36 8106   3.430   2.385   9.759  0.2154  0.1222  0.0572
   85SAPS   H6X 8107   3.390   2.283   9.738 -1.1053  1.0916 -2.5270
   85SAPS   H6Y 8108   3.540   2.404   9.753 -0.0704  2.3991  1.0793
   85SAPS   C37 8109   3.374   2.484   9.661  0.3261 -0.0516  0.7016
   85SAPS   H7X 8110   3.408   2.588   9.679  0.9001 -0.0522 -0.3258
   85SAPS   H7Y 8111   3.265   2.491   9.678  0.2643 -0.0533  0.3087
   85SAPS   C38 8112   3.395   2.470   9.506  0.0645 -0.2863  0.2075
   85SAPS   H8X 8113   3.502   2.453   9.482  0.7641 -0.5249  3.0772
   85SAPS   H8Y 8114   3.368   2.565   9.454 -1.2840 -0.7462  0.0250
   85SAPS   C39 8115   3.323   2.346   9.458 -0.3054  0.0724 -0.6442
   85SAPS   H9X 8116   3.214   2.347   9.479 -0.2955  0.4157 -0.6096
   85SAPS   H9Y 8117   3.352   2.267   9.531  0.6496  2.7178  2.0691
   85SAPS  C310 8118   3.362   2.288   9.318 -0.1853 -0.2772 -0.3772
   85SAPS  H10X 8119   3.302   2.197   9.299 -0.8654  0.0724  0.0627
   85SAPS  H10Y 8120   3.469   2.258   9.307 -0.7090 -2.6314  0.3006
   85SAPS  C311 8121   3.326   2.386   9.199  1.0364  0.6823  0.0959
   85SAPS  H11X 8122   3.395   2.473   9.202  1.1562  0.6341 -0.9100
   85SAPS  H11Y 8123   3.219   2.412   9.209  0.7083 -0.3380 -0.6131
   85SAPS  C312 8124   3.331   2.317   9.065 -0.1510  0.4804 -0.0929
   85SAPS  H12X 8125   3.418   2.249   9.076 -0.4697  0.3665  2.4451
   85SAPS  H12Y 8126   3.342   2.393   8.986 -0.0062  0.9271  0.3499
   85SAPS  C313 8127   3.207   2.227   9.037  0.7424  0.0442  0.8079
   85SAPS  H13X 8128   3.134   2.246   9.119  0.5388  0.2269  0.5864
   85SAPS  H13Y 8129   3.232   2.120   9.051  1.1655 -0.1073 -0.9233
   85SAPS  C314 8130   3.142   2.265   8.900 -0.2861  0.3330 -0.2481
   85SAPS  H14X 8131   3.108   2.369   8.882 -0.9442  0.3718  1.1486
   85SAPS  H14Y 8132   3.048   2.207   8.904 -0.4828  0.7379  1.3930
   85SAPS  C315 8133   3.227   2.219   8.771  0.0294 -0.4875  0.3029
   85SAPS  H15X 8134   3.254   2.112   8.784  0.6176 -0.5787 -1.4007
   85SAPS  H15Y 8135   3.318   2.282   8.777  2.1522 -3.3075  0.0047
   85SAPS  C316 8136   3.162   2.242   8.631  0.6512  0.0980 -0.0583
   85SAPS  H16X 8137   3.065   2.188   8.639  0.7089 -0.4570 -2.3796
   85SAPS  H16Y 8138   3.236   2.200   8.559  2.2630 -0.6357  1.9222
   85SAPS  C317 8139   3.114   2.384   8.594 -0.3605 -0.2607 -0.6761
   85SAPS  H17X 8140   3.009   2.416   8.615  0.8247  4.2286 -0.6980
   85SAPS  H17Y 8141   3.116   2.386   8.483  1.6949  1.4552 -0.6657
   85SAPS  C318 8142   3.202   2.510   8.628 -0.9956 -0.1960  0.4122
   85SAPS  H18X 8143   3.198   2.536   8.736 -2.8532  1.3969  0.0024
   85SAPS  H18Y 8144   3.185   2.601   8.568  0.6611 -0.5638 -0.6788
   85SAPS  H18Z 8145   3.308   2.480   8.614 -1.3275 -0.9131 -0.7311
   86SAPS     N 8146   6.182   3.206  11.242 -0.0309 -0.0655  0.1696
   86SAPS   HN1 8147   6.197   3.123  11.302 -0.1152  0.2575  0.6414
   86SAPS   HN2 8148   6.232   3.284  11.290 -0.5304  1.1633 -1.2131
   86SAPS   HN3 8149   6.080   3.224  11.232  0.3883  1.2977 -2.5164
   86SAPS   C12 8150   6.244   3.179  11.110  0.7319  0.4778  0.0590
   86SAPS  H12A 8151   6.238   3.272  11.055 -2.5380  0.1353 -0.3560
   86SAPS   C13 8152   6.390   3.136  11.115  0.6116  0.3270 -0.2666
   86SAPS  O13A 8153   6.451   3.085  11.210  0.0347  0.6045 -0.5464
   86SAPS  O13B 8154   6.439   3.130  10.998  0.0217  0.7686  0.1901
   86SAPS   C11 8155   6.163   3.065  11.041  0.1189  0.3318  0.5213
   86SAPS  H11A 8156   6.162   2.971  11.101  2.4001  0.1495  0.3437
   86SAPS  H11B 8157   6.218   3.045  10.947  0.0387  2.1537  0.0656
   86SAPS     P 8158   5.987   3.160  10.882 -0.0170 -0.2141  0.0187
   86SAPS   O13 8159   5.841   3.181  10.881 -0.1084  0.0141  0.4715
   86SAPS   O14 8160   6.076   3.280  10.854  0.2627  0.0872 -0.2524
   86SAPS   O12 8161   6.024   3.097  11.020  0.5033  0.4742 -0.0313
   86SAPS   O11 8162   6.036   3.057  10.780  0.1835  0.0493  0.3889
   86SAPS    C1 8163   5.966   2.934  10.759 -0.0373 -0.1595 -0.3925
   86SAPS    HA 8164   5.958   2.878  10.854  2.7907 -2.0948 -1.1710
   86SAPS    HB 8165   5.867   2.954  10.713 -0.1604 -0.6415 -0.3357
   86SAPS    C2 8166   6.046   2.834  10.671  0.1346 -0.3468  1.2203
   86SAPS    HS 8167   6.142   2.821  10.725  0.2741  0.2308  1.1178
   86SAPS   O21 8168   6.076   2.890  10.544  0.6369 -0.0548  0.0839
   86SAPS   C21 8169   6.166   2.826  10.468 -0.3130 -0.8153 -0.7914
   86SAPS   O22 8170   6.229   2.733  10.507 -0.0135  1.0204  0.6541
   86SAPS   C22 8171   6.186   2.890  10.334  0.3900  1.0880  0.1084
   86SAPS   H2R 8172   6.179   2.812  10.255 -0.8704  1.9279 -0.6431
   86SAPS   H2S 8173   6.108   2.964  10.309 -1.9848 -1.2108  0.3027
   86SAPS    C3 8174   5.966   2.704  10.665  0.1720 -0.3446  0.0541
   86SAPS    HX 8175   5.950   2.657  10.765  1.0245 -1.0134 -0.1152
   86SAPS    HY 8176   6.018   2.629  10.601 -2.8081 -0.7729 -2.0979
   86SAPS   O31 8177   5.831   2.720  10.606  0.2613 -0.7097 -0.1801
   86SAPS   C31 8178   5.830   2.727  10.469  0.3482  0.4622  0.2240
   86SAPS   O32 8179   5.926   2.690  10.403 -0.0557 -0.6629  0.0142
   86SAPS   C32 8180   5.698   2.795  10.414 -0.6349  0.3809  0.1749
   86SAPS   H2X 8181   5.674   2.875  10.488 -0.1434  1.8805 -1.2414
   86SAPS   H2Y 8182   5.616   2.721  10.408 -1.1991  1.0254 -0.2135
   86SAPS   C23 8183   6.323   2.962  10.313  0.5584 -0.5260  0.2649
   86SAPS   H3R 8184   6.404   2.896  10.349  1.1332 -0.4188 -0.7952
   86SAPS   H3S 8185   6.328   3.058  10.370 -0.3476 -0.6978  0.6607
   86SAPS   C24 8186   6.350   2.979  10.157  0.0253  0.1684  0.2727
   86SAPS   H4R 8187   6.345   2.874  10.121 -1.2278  0.9724 -2.0318
   86SAPS   H4S 8188   6.453   3.012  10.133  0.9382 -2.7639 -0.3382
   86SAPS   C25 8189   6.260   3.068  10.072 -0.1198  0.1689  0.2892
   86SAPS   H5R 8190   6.273   3.177  10.081 -0.7558  0.1670  1.5244
   86SAPS   C26 8191   6.183   3.021   9.977  0.6517  0.5736  0.2070
   86SAPS   H6R 8192   6.113   3.091   9.928  0.6460  0.2521 -0.2464
   86SAPS   C27 8193   6.160   2.874   9.944 -0.5586 -0.4157  0.2384
   86SAPS   H7R 8194   6.205   2.801  10.015 -0.9983 -1.2287 -0.3084
   86SAPS   H7S 8195   6.199   2.847   9.844  1.3924 -0.6251  1.0099
   86SAPS   C28 8196   6.011   2.839   9.940 -0.1167  0.1411 -0.3349
   86SAPS   H8R 8197   5.963   2.833  10.038 -0.6261  2.0630 -0.4302
   86SAPS   C29 8198   5.941   2.817   9.824 -0.5919  0.2468 -0.9755
   86SAPS   H9R 8199   5.837   2.783   9.829  0.0037 -1.5761  0.1968
   86SAPS  C210 8200   5.995   2.818   9.688  0.0850 -0.4829  0.0432
   86SAPS  H10R 8201   5.933   2.760   9.616  0.3631  0.5001 -1.0262
   86SAPS  H10S 8202   6.093   2.766   9.678 -1.1621 -2.5960 -2.2901
   86SAPS  C211 8203   6.015   2.964   9.639  0.1027 -0.3925  0.4875
   86SAPS  H11R 8204   6.055   3.025   9.721  0.7851  0.8921 -0.7620
   86SAPS  C212 8205   6.009   3.017   9.514 -0.1127 -0.2553 -0.5964
   86SAPS  H12R 8206   6.027   3.125   9.506  1.2106 -0.5488 -2.0682
   86SAPS  C213 8207   5.979   2.950   9.381 -0.4516 -0.7638 -0.4250
   86SAPS  H13R 8208   5.964   2.841   9.397 -0.9894 -0.6185  0.1150
   86SAPS  H13S 8209   6.066   2.972   9.316  0.9631  1.8372  2.1279
   86SAPS  C214 8210   5.851   3.005   9.324  0.6494  1.1573 -0.5170
   86SAPS  H14R 8211   5.775   3.047   9.391  0.3069  2.6586 -1.7888
   86SAPS  C215 8212   5.819   2.986   9.195  0.1273  0.2996  0.4011
   86SAPS  H15R 8213   5.743   3.041   9.138 -3.2385 -1.1718  3.0938
   86SAPS  C216 8214   5.903   2.910   9.101 -0.2234  0.7013 -0.0274
   86SAPS  H16R 8215   5.927   2.816   9.154  0.8604  1.4923  0.9489
   86SAPS  H16S 8216   6.004   2.948   9.073  1.4260 -2.0415  1.7121
   86SAPS  C217 8217   5.837   2.877   8.964  1.0828  0.6346  0.4433
   86SAPS  H17R 8218   5.728   2.870   8.985  1.2343  1.4094  1.5958
   86SAPS  H17S 8219   5.878   2.778   8.932 -0.7148 -0.7806  2.2004
   86SAPS  C218 8220   5.868   2.985   8.860 -1.1488 -0.0484 -0.4140
   86SAPS  H18R 8221   5.976   2.981   8.836 -1.3313 -0.9168 -1.1314
   86SAPS  H18S 8222   5.855   3.085   8.907  1.7890  0.4820 -0.5361
   86SAPS  C219 8223   5.775   2.977   8.738 -0.5119  0.2815  0.0560
   86SAPS  H19R 8224   5.823   3.047   8.667  0.7179 -0.4058  0.1815
   86SAPS  H19S 8225   5.675   3.020   8.756 -0.3747  1.0383 -0.9589
   86SAPS  C220 8226   5.773   2.844   8.664  0.0095 -0.1257  0.1680
   86SAPS  H20R 8227   5.697   2.784   8.719  1.2621 -0.8761  1.1392
   86SAPS  H20S 8228   5.872   2.794   8.677 -1.0168 -2.5414 -0.6561
   86SAPS  H20T 8229   5.743   2.846   8.557 -0.7199  0.4903  0.3788
   86SAPS   C33 8230   5.725   2.846  10.276 -0.5469 -0.1852  0.1261
   86SAPS   H3X 8231   5.754   2.761  10.211 -0.0530  1.0787 -1.3546
   86SAPS   H3Y 8232   5.808   2.921  10.278 -0.3022 -0.4482 -0.0799
   86SAPS   C34 8233   5.611   2.930  10.217  0.4190 -0.2855 -0.5569
   86SAPS   H4X 8234   5.593   3.026  10.270  0.2912 -0.5637 -0.0830
   86SAPS   H4Y 8235   5.524   2.861  10.220 -0.3495  0.6883  1.2686
   86SAPS   C35 8236   5.631   2.977  10.073  0.0684 -0.5010 -0.3981
   86SAPS   H5X 8237   5.736   3.004  10.051 -1.1377  3.1294 -2.6477
   86SAPS   H5Y 8238   5.566   3.063  10.046 -2.1575 -2.1553 -0.6568
   86SAPS   C36 8239   5.589   2.864   9.975 -0.1481  0.0961  0.7644
   86SAPS   H6X 8240   5.487   2.829  10.002 -0.1368 -0.4761  0.0965
   86SAPS   H6Y 8241   5.657   2.776   9.980 -1.5843 -1.0317  1.6189
   86SAPS   C37 8242   5.581   2.904   9.829  0.3094 -0.3412  0.5412
   86SAPS   H7X 8243   5.679   2.942   9.794 -1.6561  2.4770 -2.4072
   86SAPS   H7Y 8244   5.508   2.985   9.806  0.0407 -0.7066  0.0727
   86SAPS   C38 8245   5.555   2.784   9.739  0.1312  0.2454 -0.6808
   86SAPS   H8X 8246   5.453   2.752   9.769 -0.2778  1.9584 -0.1106
   86SAPS   H8Y 8247   5.626   2.705   9.773  0.8864  1.1006 -0.2269
   86SAPS   C39 8248   5.573   2.815   9.592  0.8455 -0.1498 -0.3168
   86SAPS   H9X 8249   5.658   2.883   9.572 -0.1578  1.2899  0.0897
   86SAPS   H9Y 8250   5.480   2.867   9.559 -0.1647 -0.5332  1.7239
   86SAPS  C310 8251   5.587   2.689   9.511  0.0703  0.1603  0.2710
   86SAPS  H10X 8252   5.505   2.616   9.528  0.8978 -0.9394 -0.3080
   86SAPS  H10Y 8253   5.691   2.650   9.519 -0.1703 -0.5310  0.1615
   86SAPS  C311 8254   5.578   2.714   9.356 -0.0741  0.5961  0.4009
   86SAPS  H11X 8255   5.646   2.798   9.331  1.1610  0.1777  2.1826
   86SAPS  H11Y 8256   5.478   2.755   9.330 -0.0863  1.5108  1.7931
   86SAPS  C312 8257   5.599   2.582   9.285  0.1777  0.1999  0.0225
   86SAPS  H12X 8258   5.542   2.509   9.347  0.6131  0.7220  1.0510
   86SAPS  H12Y 8259   5.705   2.554   9.273  0.5353  1.9286 -1.0779
   86SAPS  C313 8260   5.544   2.589   9.143 -0.7524 -0.3474  0.0760
   86SAPS  H13X 8261   5.620   2.651   9.090  0.8215  0.3428  2.9743
   86SAPS  H13Y 8262   5.441   2.632   9.133 -0.4259  0.5647  0.5051
   86SAPS  C314 8263   5.538   2.459   9.064 -0.0742  0.7131  0.3217
   86SAPS  H14X 8264   5.437   2.415   9.075  0.3122 -1.0861 -2.4929
   86SAPS  H14Y 8265   5.616   2.382   9.081  1.1279  1.1272 -2.7874
   86SAPS  C315 8266   5.553   2.494   8.914  0.3417  0.1994 -0.5852
   86SAPS  H15X 8267   5.538   2.402   8.854  3.9967  0.0402 -1.4920
   86SAPS  H15Y 8268   5.655   2.537   8.906  0.0703  0.8094 -0.9059
   86SAPS  C316 8269   5.448   2.600   8.858  0.2793  0.0212 -0.7523
   86SAPS  H16X 8270   5.476   2.701   8.897  0.4887  1.0287 -3.3075
   86SAPS  H16Y 8271   5.350   2.564   8.896  0.6600 -1.2187 -0.9254
   86SAPS  C317 8272   5.428   2.601   8.706  0.3273 -0.2510  0.8728
   86SAPS  H17X 8273   5.376   2.510   8.669  1.1541 -0.5843  0.5093
   86SAPS  H17Y 8274   5.528   2.594   8.660 -0.8713 -2.4022 -1.6626
   86SAPS  C318 8275   5.348   2.726   8.668  0.1335 -0.0952  0.5163
   86SAPS  H18X 8276   5.279   2.710   8.583  1.5946  1.3407 -1.0093
   86SAPS  H18Y 8277   5.412   2.816   8.667 -0.5608  0.5341 -3.6425
   86SAPS  H18Z 8278   5.279   2.752   8.751  0.0908  0.0553  0.4351
   87SAPS     N 8279   5.303   4.659  11.147 -0.4937  0.5427  0.2611
   87SAPS   HN1 8280   5.384   4.604  11.112 -2.0924  0.4022 -3.7210
   87SAPS   HN2 8281   5.237   4.601  11.203  0.5771  0.4199  1.4576
   87SAPS   HN3 8282   5.248   4.697  11.068 -2.1628  0.1626  1.1843
   87SAPS   C12 8283   5.342   4.786  11.215 -0.7080  0.0238 -0.3876
   87SAPS  H12A 8284   5.255   4.823  11.268  0.2944  0.2625  1.1352
   87SAPS   C13 8285   5.463   4.766  11.317  0.5038 -0.4115  0.2476
   87SAPS  O13A 8286   5.503   4.655  11.350  0.1745  0.1330  0.1605
   87SAPS  O13B 8287   5.511   4.867  11.376  0.4351  0.3363  0.5338
   87SAPS   C11 8288   5.391   4.892  11.114  0.4312  0.1685  0.1803
   87SAPS  H11A 8289   5.461   4.835  11.050 -0.8399 -0.0947 -1.0136
   87SAPS  H11B 8290   5.428   4.980  11.170 -3.1178  1.1271  1.3285
   87SAPS     P 8291   5.297   5.025  10.921 -0.3730 -0.1295  0.3549
   87SAPS   O13 8292   5.176   5.093  10.877  0.4976 -0.2401  0.0752
   87SAPS   O14 8293   5.408   5.117  10.959  0.5257 -1.0554 -0.0551
   87SAPS   O12 8294   5.277   4.927  11.039 -0.0070  0.0240 -0.4196
   87SAPS   O11 8295   5.355   4.926  10.808  0.2307 -0.7523  0.0489
   87SAPS    C1 8296   5.464   4.965  10.727  0.5959 -0.5830 -0.2204
   87SAPS    HA 8297   5.460   5.071  10.693  0.6618 -1.2653 -2.4993
   87SAPS    HB 8298   5.546   4.930  10.793 -0.9193 -3.1088  0.4707
   87SAPS    C2 8299   5.463   4.879  10.608 -0.4240 -0.0610 -0.5186
   87SAPS    HS 8300   5.465   4.774  10.642  0.2361  0.4238  1.0082
   87SAPS   O21 8301   5.580   4.903  10.525  0.2621 -0.4415  0.8824
   87SAPS   C21 8302   5.606   4.810  10.439  0.2304  0.4272  0.3391
   87SAPS   O22 8303   5.540   4.710  10.423  0.1788  0.3628  0.0612
   87SAPS   C22 8304   5.730   4.843  10.357  0.4650  0.1398  0.0396
   87SAPS   H2R 8305   5.805   4.893  10.421  3.0013 -1.8609 -1.2120
   87SAPS   H2S 8306   5.772   4.743  10.332 -0.0480  0.2508 -1.4212
   87SAPS    C3 8307   5.334   4.901  10.519 -0.3137  0.2886 -0.4803
   87SAPS    HX 8308   5.242   4.892  10.580  1.3123  1.0921  2.2446
   87SAPS    HY 8309   5.321   4.817  10.447 -0.9178  0.8063 -0.9902
   87SAPS   O31 8310   5.341   5.024  10.456 -0.1456 -0.0548 -0.1324
   87SAPS   C31 8311   5.238   5.045  10.365 -0.5027 -0.0825  0.1293
   87SAPS   O32 8312   5.166   4.954  10.327 -0.1570  0.0911  0.5433
   87SAPS   C32 8313   5.237   5.178  10.302 -0.3949 -0.8149 -0.2279
   87SAPS   H2X 8314   5.277   5.246  10.380  1.6211 -1.3618 -0.7280
   87SAPS   H2Y 8315   5.131   5.207  10.283 -0.3140  0.9311  1.6593
   87SAPS   C23 8316   5.685   4.927  10.234  0.1707  0.4826 -0.2282
   87SAPS   H3R 8317   5.775   4.950  10.174 -0.3914  1.6132 -0.6770
   87SAPS   H3S 8318   5.654   5.028  10.270 -0.0287  0.8799 -1.4674
   87SAPS   C24 8319   5.575   4.872  10.141  0.0025 -0.0086  0.6002
   87SAPS   H4R 8320   5.565   4.945  10.058  1.4958  0.0024  0.3936
   87SAPS   H4S 8321   5.471   4.867  10.180 -0.5399  1.6090 -0.5138
   87SAPS   C25 8322   5.627   4.745  10.085 -0.2796  0.8746  0.4168
   87SAPS   H5R 8323   5.655   4.671  10.162  0.1115 -0.9386 -1.3799
   87SAPS   C26 8324   5.625   4.691   9.954  0.1519 -0.4617 -0.4232
   87SAPS   H6R 8325   5.637   4.583   9.938 -3.2970 -1.0004 -0.1329
   87SAPS   C27 8326   5.566   4.770   9.837 -0.6421  0.3461  0.1902
   87SAPS   H7R 8327   5.491   4.845   9.869  0.3482  1.1575  0.6965
   87SAPS   H7S 8328   5.529   4.687   9.774  2.2648 -1.0694  0.1595
   87SAPS   C28 8329   5.662   4.849   9.749  0.4109  0.3268 -0.0583
   87SAPS   H8R 8330   5.740   4.911   9.796  0.8282 -0.0298 -0.2740
   87SAPS   C29 8331   5.648   4.849   9.615  0.7564 -0.1291 -0.5657
   87SAPS   H9R 8332   5.716   4.914   9.557  2.6660 -1.0304  0.5636
   87SAPS  C210 8333   5.553   4.777   9.523  0.0327 -0.0391  0.1578
   87SAPS  H10R 8334   5.513   4.857   9.456  0.2094  0.8403  1.0658
   87SAPS  H10S 8335   5.469   4.730   9.578 -0.5217  1.0790  0.2997
   87SAPS  C211 8336   5.618   4.660   9.456  0.6823 -1.0270  0.0863
   87SAPS  H11R 8337   5.643   4.577   9.523 -1.2081  0.0488  2.2967
   87SAPS  C212 8338   5.638   4.655   9.322  1.0989  0.2999 -0.0765
   87SAPS  H12R 8339   5.709   4.577   9.292  1.5577  0.7556 -0.1726
   87SAPS  C213 8340   5.607   4.766   9.220  0.9187 -0.1629 -0.4511
   87SAPS  H13R 8341   5.656   4.742   9.123  1.3949 -0.3973 -0.1584
   87SAPS  H13S 8342   5.650   4.860   9.262  1.0080 -0.3039 -0.2228
   87SAPS  C214 8343   5.464   4.783   9.191  0.7756  0.3581  0.5946
   87SAPS  H14R 8344   5.398   4.824   9.268 -0.8287  0.7283 -0.9150
   87SAPS  C215 8345   5.392   4.751   9.075 -0.3784  0.1498  0.1183
   87SAPS  H15R 8346   5.282   4.750   9.079 -0.3738 -2.0833  1.1914
   87SAPS  C216 8347   5.446   4.683   8.947  0.4204 -0.3553 -0.1320
   87SAPS  H16R 8348   5.377   4.598   8.926  2.0622 -2.0923  1.1166
   87SAPS  H16S 8349   5.547   4.641   8.966  0.4196  0.1127  0.9653
   87SAPS  C217 8350   5.456   4.762   8.811 -0.3916  0.5702 -0.3591
   87SAPS  H17R 8351   5.497   4.692   8.734  0.3791  0.3982  0.1935
   87SAPS  H17S 8352   5.531   4.843   8.819 -0.4938  0.8144 -1.6064
   87SAPS  C218 8353   5.320   4.803   8.752  0.5381 -0.8619  0.0140
   87SAPS  H18R 8354   5.300   4.893   8.814  0.7246 -0.8289  0.0282
   87SAPS  H18S 8355   5.237   4.731   8.771  0.8937 -0.9728  1.1928
   87SAPS  C219 8356   5.311   4.835   8.604  0.4098 -0.1338 -0.1769
   87SAPS  H19R 8357   5.338   4.747   8.541  0.2308 -0.1390 -0.2485
   87SAPS  H19S 8358   5.391   4.910   8.588  0.8680 -0.4825  0.4018
   87SAPS  C220 8359   5.175   4.886   8.562 -0.6006 -1.0962 -0.3721
   87SAPS  H20R 8360   5.178   4.886   8.451  0.9489 -1.6846 -0.3622
   87SAPS  H20S 8361   5.157   4.990   8.597 -0.5128 -0.9145 -0.8606
   87SAPS  H20T 8362   5.087   4.833   8.603 -1.7289  1.1793  0.2772
   87SAPS   C33 8363   5.325   5.178  10.172  0.5009  0.5367 -0.3707
   87SAPS   H3X 8364   5.428   5.138  10.183  0.3541 -0.2283 -1.5782
   87SAPS   H3Y 8365   5.330   5.283  10.136  1.9514  0.3859 -0.6829
   87SAPS   C34 8366   5.255   5.109  10.061  0.6159  0.5575  0.7057
   87SAPS   H4X 8367   5.151   5.149  10.057 -0.9881 -3.1148  1.8786
   87SAPS   H4Y 8368   5.246   5.000  10.078 -2.8286  0.5213 -0.5416
   87SAPS   C35 8369   5.336   5.138   9.927  0.0640 -0.4765  0.4939
   87SAPS   H5X 8370   5.433   5.084   9.936  0.5933  0.7670  3.6486
   87SAPS   H5Y 8371   5.364   5.246   9.923 -0.0625 -0.4606  0.0174
   87SAPS   C36 8372   5.262   5.090   9.807  0.2413 -0.7453 -0.0055
   87SAPS   H6X 8373   5.179   5.162   9.795 -1.7923 -3.1291 -1.1896
   87SAPS   H6Y 8374   5.211   4.995   9.835  0.4469 -1.5238 -2.1177
   87SAPS   C37 8375   5.346   5.068   9.683 -0.0332 -0.1120 -0.5231
   87SAPS   H7X 8376   5.415   4.982   9.698  1.0008  0.6321 -0.8593
   87SAPS   H7Y 8377   5.408   5.160   9.673  0.8253 -0.7342 -1.0557
   87SAPS   C38 8378   5.263   5.047   9.558  0.3704 -0.4654  0.7492
   87SAPS   H8X 8379   5.177   4.981   9.582  1.1840 -1.1344  2.0182
   87SAPS   H8Y 8380   5.322   5.003   9.475  0.6703 -0.2547  0.8497
   87SAPS   C39 8381   5.216   5.186   9.498  0.3930 -0.1869 -0.5770
   87SAPS   H9X 8382   5.309   5.241   9.473 -0.1209  0.6274 -0.7086
   87SAPS   H9Y 8383   5.169   5.243   9.581 -2.4560 -0.6781 -1.7530
   87SAPS  C310 8384   5.117   5.172   9.381  0.3039  0.0254  0.2980
   87SAPS  H10X 8385   5.093   5.274   9.344  0.2664 -0.9502 -2.6248
   87SAPS  H10Y 8386   5.023   5.117   9.402  0.7265 -0.6653  0.4129
   87SAPS  C311 8387   5.169   5.087   9.264 -0.2541 -0.0608  0.2567
   87SAPS  H11X 8388   5.158   4.981   9.294 -0.1102 -0.2464 -0.3503
   87SAPS  H11Y 8389   5.279   5.095   9.256  0.0083 -2.3413  0.9164
   87SAPS  C312 8390   5.095   5.109   9.127  0.1057 -0.3139 -0.9941
   87SAPS  H12X 8391   5.151   5.054   9.049  1.3686 -1.0008  0.3327
   87SAPS  H12Y 8392   5.094   5.219   9.116 -2.2756  0.1282  2.1362
   87SAPS  C313 8393   4.947   5.063   9.121 -0.5265 -0.3842 -0.5290
   87SAPS  H13X 8394   4.908   5.112   9.213  2.6806  3.5857 -0.9550
   87SAPS  H13Y 8395   4.942   4.954   9.142 -0.4392 -0.5486 -1.3593
   87SAPS  C314 8396   4.867   5.098   8.998 -0.3289 -0.4240  1.3116
   87SAPS  H14X 8397   4.846   5.202   8.967  0.0992 -0.6327  0.2832
   87SAPS  H14Y 8398   4.765   5.066   9.027 -0.5253 -0.5065  0.5552
   87SAPS  C315 8399   4.914   5.021   8.872  0.4490 -0.4197  0.1940
   87SAPS  H15X 8400   4.924   4.916   8.908  1.3745 -0.4069  0.0175
   87SAPS  H15Y 8401   5.015   5.051   8.836  0.8681 -2.3575 -0.3585
   87SAPS  C316 8402   4.818   5.032   8.752  0.6809 -0.3540 -0.0197
   87SAPS  H16X 8403   4.719   4.993   8.786 -0.3084  1.1507 -1.0562
   87SAPS  H16Y 8404   4.859   4.972   8.668  1.8833 -1.2850  1.1908
   87SAPS  C317 8405   4.791   5.180   8.701 -0.0700 -0.5547  0.4133
   87SAPS  H17X 8406   4.735   5.235   8.779  0.1493  2.3672 -1.3372
   87SAPS  H17Y 8407   4.735   5.158   8.607 -3.1526 -0.4419  2.1077
   87SAPS  C318 8408   4.921   5.276   8.668  0.3068 -0.0690 -0.1427
   87SAPS  H18X 8409   4.994   5.214   8.612  1.9480  0.3845  1.4018
   87SAPS  H18Y 8410   4.972   5.297   8.765  2.2364 -0.8543 -0.9523
   87SAPS  H18Z 8411   4.888   5.368   8.615 -1.9292 -1.5941 -1.5562
   88SAPS     N 8412   2.366   1.927  11.290  0.2746  0.2562  0.3462
   88SAPS   HN1 8413   2.399   2.008  11.347 -0.8867  0.2654  1.0411
   88SAPS   HN2 8414   2.379   1.836  11.339  0.7703 -0.7847 -1.6330
   88SAPS   HN3 8415   2.416   1.942  11.200 -0.4604  0.9641  0.0386
   88SAPS   C12 8416   2.218   1.941  11.248 -0.2257  0.1633 -0.3076
   88SAPS  H12A 8417   2.188   1.849  11.200 -1.9337  0.0503  0.8727
   88SAPS   C13 8418   2.112   1.956  11.368 -0.3613  1.0137  0.8610
   88SAPS  O13A 8419   2.141   1.956  11.490 -0.0434 -0.3288 -0.5885
   88SAPS  O13B 8420   1.991   1.950  11.329  0.0806 -0.0502 -0.1882
   88SAPS   C11 8421   2.198   2.058  11.151 -0.9439 -0.3467 -0.7049
   88SAPS  H11A 8422   2.217   2.145  11.217  0.8282  0.4701 -2.1995
   88SAPS  H11B 8423   2.094   2.063  11.111 -0.7901  1.9456 -0.9382
   88SAPS     P 8424   2.259   2.022  10.901 -0.1356 -0.3183  0.2584
   88SAPS   O13 8425   2.384   1.962  10.841  0.3412  0.1146 -0.3171
   88SAPS   O14 8426   2.138   1.937  10.895 -0.0599 -0.7261  0.5443
   88SAPS   O12 8427   2.298   2.064  11.047 -0.1712  0.2715 -0.1386
   88SAPS   O11 8428   2.228   2.170  10.837 -0.0530 -0.1418  0.1550
   88SAPS    C1 8429   2.100   2.192  10.776  0.4064  0.1156 -0.3990
   88SAPS    HA 8430   2.022   2.149  10.842  1.0056  0.1008  0.3180
   88SAPS    HB 8431   2.078   2.300  10.781 -0.4100 -0.0836  1.0010
   88SAPS    C2 8432   2.084   2.142  10.635 -0.1181 -0.1208  1.0572
   88SAPS    HS 8433   2.126   2.040  10.620  0.5373  0.5577 -2.7625
   88SAPS   O21 8434   2.154   2.241  10.557  0.3672  0.5644 -0.0460
   88SAPS   C21 8435   2.234   2.191  10.463  0.5567  0.2304 -0.3227
   88SAPS   O22 8436   2.250   2.070  10.433 -0.1828  0.0792 -0.3188
   88SAPS   C22 8437   2.301   2.308  10.388 -0.0414 -0.3933 -0.2115
   88SAPS   H2R 8438   2.285   2.290  10.279  0.1030 -2.2723  0.0412
   88SAPS   H2S 8439   2.247   2.401  10.415 -1.6865 -0.7668 -1.9417
   88SAPS    C3 8440   1.929   2.136  10.589 -0.5379 -0.6530 -0.0614
   88SAPS    HX 8441   1.892   2.241  10.596 -0.1195 -0.2580 -2.6454
   88SAPS    HY 8442   1.876   2.069  10.660 -0.9654  0.0085  0.2565
   88SAPS   O31 8443   1.907   2.088  10.451 -0.2302  0.2101  0.0320
   88SAPS   C31 8444   1.919   1.960  10.441 -0.2157  0.6901  0.3128
   88SAPS   O32 8445   1.942   1.882  10.535  0.0862  0.1012 -0.0690
   88SAPS   C32 8446   1.910   1.919  10.294  0.1035 -0.5931  0.7575
   88SAPS   H2X 8447   1.895   1.809  10.301 -0.8610 -0.7485 -2.3561
   88SAPS   H2Y 8448   2.010   1.935  10.249  0.5083 -1.0521  1.4574
   88SAPS   C23 8449   2.445   2.329  10.414 -0.3252 -0.2140 -1.0081
   88SAPS   H3R 8450   2.452   2.357  10.522  0.4693 -0.9868 -0.8459
   88SAPS   H3S 8451   2.488   2.415  10.358  2.1957 -0.4735  0.3384
   88SAPS   C24 8452   2.533   2.205  10.377 -0.5651 -0.4390 -0.1083
   88SAPS   H4R 8453   2.520   2.203  10.267  1.0869  0.9151 -0.3540
   88SAPS   H4S 8454   2.483   2.120  10.429 -1.4707  1.4530  2.3247
   88SAPS   C25 8455   2.678   2.225  10.404 -1.1825  0.1799 -0.2702
   88SAPS   H5R 8456   2.699   2.214  10.511  1.7949 -0.1192 -0.8231
   88SAPS   C26 8457   2.781   2.256  10.319 -0.6625 -0.8645  0.2867
   88SAPS   H6R 8458   2.880   2.286  10.357 -0.9501 -1.7046  1.7674
   88SAPS   C27 8459   2.780   2.292  10.172  0.7956  0.3765  0.0086
   88SAPS   H7R 8460   2.737   2.206  10.116 -1.0272  1.2407  0.0204
   88SAPS   H7S 8461   2.875   2.308  10.118  1.0406 -2.6581 -0.6543
   88SAPS   C28 8462   2.686   2.412  10.145 -0.5018 -0.0057  0.4162
   88SAPS   H8R 8463   2.708   2.501  10.206  0.8285 -0.4922  0.6695
   88SAPS   C29 8464   2.591   2.422  10.054  0.5595 -0.5896  0.0178
   88SAPS   H9R 8465   2.557   2.527  10.059 -1.5682 -1.2503  0.2681
   88SAPS  C210 8466   2.536   2.321   9.953  0.2073  0.1731 -0.0584
   88SAPS  H10R 8467   2.502   2.228  10.003  0.9473 -1.1277 -1.8962
   88SAPS  H10S 8468   2.623   2.284   9.895 -0.1017  2.0971 -1.8847
   88SAPS  C211 8469   2.427   2.373   9.876  0.5509 -0.0222 -0.0721
   88SAPS  H11R 8470   2.328   2.362   9.924  0.0310 -1.3979 -1.3402
   88SAPS  C212 8471   2.425   2.418   9.748 -0.5921  0.4615  0.2959
   88SAPS  H12R 8472   2.334   2.458   9.702 -0.4825 -0.2225 -0.5353
   88SAPS  C213 8473   2.539   2.421   9.643  0.0048  0.6069 -0.0927
   88SAPS  H13R 8474   2.644   2.410   9.679 -0.2892  0.0205  0.6082
   88SAPS  H13S 8475   2.534   2.521   9.596 -0.0143  0.7238  0.1562
   88SAPS  C214 8476   2.520   2.319   9.540 -0.3776 -0.1270  0.2425
   88SAPS  H14R 8477   2.485   2.227   9.588  1.5430  0.3709  2.8247
   88SAPS  C215 8478   2.521   2.333   9.403  0.2205  0.0163 -0.4255
   88SAPS  H15R 8479   2.508   2.251   9.331  1.5957  1.1906 -2.1142
   88SAPS  C216 8480   2.558   2.459   9.333  0.0738 -0.6347 -0.6918
   88SAPS  H16R 8481   2.559   2.546   9.402 -0.5277 -1.0762 -0.1124
   88SAPS  H16S 8482   2.479   2.492   9.262 -0.3568 -0.0050  0.0723
   88SAPS  C217 8483   2.704   2.455   9.269 -0.2284 -0.0082 -0.2872
   88SAPS  H17R 8484   2.734   2.559   9.244  2.5269 -0.3992  1.0864
   88SAPS  H17S 8485   2.703   2.386   9.182  2.0793 -2.9142  1.8276
   88SAPS  C218 8486   2.818   2.399   9.357  0.2956 -0.0662  0.0842
   88SAPS  H18R 8487   2.806   2.290   9.374  0.2548  0.0306  0.7058
   88SAPS  H18S 8488   2.810   2.444   9.458 -2.6619  0.7753 -0.4046
   88SAPS  C219 8489   2.957   2.415   9.299  0.0100  0.8997 -0.3942
   88SAPS  H19R 8490   2.967   2.408   9.189 -1.3705 -2.6625 -0.4198
   88SAPS  H19S 8491   3.023   2.332   9.332 -1.5264  0.2501  1.1890
   88SAPS  C220 8492   3.027   2.546   9.337 -0.3015 -0.1170 -0.2085
   88SAPS  H20R 8493   3.050   2.532   9.445 -0.8663 -0.6925 -0.1574
   88SAPS  H20S 8494   2.957   2.633   9.337 -0.4982 -0.2280  1.8046
   88SAPS  H20T 8495   3.122   2.554   9.281  0.1539  0.3840  0.6047
   88SAPS   C33 8496   1.805   1.987  10.220 -0.0108  0.1130  0.2390
   88SAPS   H3X 8497   1.843   2.091  10.208  2.3871 -0.8211 -0.9215
   88SAPS   H3Y 8498   1.713   1.997  10.282  0.1277  0.3268  0.4129
   88SAPS   C34 8499   1.787   1.937  10.069  0.8567 -0.9342 -0.2520
   88SAPS   H4X 8500   1.688   1.979  10.043  0.8196 -0.5584  0.4649
   88SAPS   H4Y 8501   1.769   1.828  10.063 -1.9833 -0.5511  0.0212
   88SAPS   C35 8502   1.904   1.984   9.979  0.4026 -0.8364 -0.2572
   88SAPS   H5X 8503   1.995   1.923   9.996 -0.5820 -2.7480 -1.5013
   88SAPS   H5Y 8504   1.930   2.092   9.988  0.1109 -0.7172 -0.7713
   88SAPS   C36 8505   1.883   1.963   9.830  0.4370 -0.7383  0.5171
   88SAPS   H6X 8506   1.781   2.002   9.810  0.6365  0.8534  2.2568
   88SAPS   H6Y 8507   1.868   1.860   9.793 -1.8963  0.4065 -2.0561
   88SAPS   C37 8508   1.983   2.047   9.752  0.9744  0.1266 -0.1532
   88SAPS   H7X 8509   2.085   2.003   9.760  1.8655  1.7554 -1.7832
   88SAPS   H7Y 8510   1.990   2.150   9.793 -0.3795  1.0649 -2.0921
   88SAPS   C38 8511   1.939   2.073   9.601  0.1597  0.1300  0.1496
   88SAPS   H8X 8512   1.844   2.130   9.600  1.0398  1.7032  1.5265
   88SAPS   H8Y 8513   1.915   1.972   9.562  1.7021 -0.0586 -0.3639
   88SAPS   C39 8514   2.054   2.126   9.516 -1.0799 -0.5515 -0.3320
   88SAPS   H9X 8515   2.149   2.085   9.555 -1.4421  0.9505  2.3927
   88SAPS   H9Y 8516   2.055   2.236   9.532  1.1333 -0.6560  0.5755
   88SAPS  C310 8517   2.065   2.080   9.368 -0.2249 -0.6175  0.6451
   88SAPS  H10X 8518   1.973   2.113   9.314  0.7603  0.2382 -0.5534
   88SAPS  H10Y 8519   2.067   1.971   9.351 -1.8243 -0.6678  0.6096
   88SAPS  C311 8520   2.191   2.139   9.306 -0.1511 -0.1417  0.3255
   88SAPS  H11X 8521   2.283   2.106   9.359  0.0120 -2.0017 -1.0098
   88SAPS  H11Y 8522   2.174   2.248   9.314  2.1058  0.2084  1.2595
   88SAPS  C312 8523   2.197   2.105   9.158 -0.3471  0.5921 -0.4017
   88SAPS  H12X 8524   2.103   2.134   9.106 -0.1704 -2.0831 -2.4386
   88SAPS  H12Y 8525   2.219   1.997   9.141  1.7621  1.2375 -2.2863
   88SAPS  C313 8526   2.315   2.171   9.081 -0.2361 -1.0079  0.8028
   88SAPS  H13X 8527   2.411   2.153   9.135  0.6790  1.5952  0.2181
   88SAPS  H13Y 8528   2.306   2.280   9.103  1.3177 -0.6328 -0.2132
   88SAPS  C314 8529   2.336   2.122   8.936 -0.4726  0.1633 -0.4592
   88SAPS  H14X 8530   2.351   2.012   8.940 -1.2558 -0.0035 -1.5549
   88SAPS  H14Y 8531   2.427   2.161   8.886 -1.0057  2.1034 -0.0171
   88SAPS  C315 8532   2.217   2.149   8.846 -0.2820 -0.7172 -0.0744
   88SAPS  H15X 8533   2.203   2.259   8.854  0.2698 -0.6644  0.2121
   88SAPS  H15Y 8534   2.123   2.104   8.885 -0.9293  1.2502  0.7787
   88SAPS  C316 8535   2.238   2.098   8.703  0.3580  0.1743  0.3011
   88SAPS  H16X 8536   2.244   1.987   8.706  1.1847  0.0567 -2.7673
   88SAPS  H16Y 8537   2.340   2.138   8.685  0.0991  1.4551  1.4708
   88SAPS  C317 8538   2.147   2.155   8.596  0.0690  0.3009  0.9676
   88SAPS  H17X 8539   2.159   2.265   8.587  4.4825 -0.1000 -0.6630
   88SAPS  H17Y 8540   2.044   2.114   8.605  1.1323 -2.8322  0.4110
   88SAPS  C318 8541   2.180   2.113   8.459 -0.1248  0.3496  0.5684
   88SAPS  H18X 8542   2.150   2.009   8.433  0.3753  0.5426 -0.8886
   88SAPS  H18Y 8543   2.289   2.125   8.439 -0.5019  1.8879 -0.7846
   88SAPS  H18Z 8544   2.128   2.179   8.387  0.2474 -0.9608 -0.9601
   89SAPS     N 8545   2.183   6.594  10.856 -0.3895  0.6148 -1.0748
   89SAPS   HN1 8546   2.214   6.692  10.869 -0.4258  0.4987  0.0320
   89SAPS   HN2 8547   2.223   6.563  10.765 -0.1284  1.9743 -1.4339
   89SAPS   HN3 8548   2.080   6.584  10.853 -0.3155 -1.6138  0.6978
   89SAPS   C12 8549   2.248   6.509  10.962  0.2979  0.2847 -0.4276
   89SAPS  H12A 8550   2.334   6.562  11.000 -0.2982  0.5746  0.5378
   89SAPS   C13 8551   2.154   6.488  11.081  0.1415  0.7651 -0.2353
   89SAPS  O13A 8552   2.032   6.501  11.062  0.1843 -0.5030  0.3026
   89SAPS  O13B 8553   2.195   6.430  11.182 -0.2799  0.5361  0.4178
   89SAPS   C11 8554   2.291   6.372  10.894  0.3065  0.3626  0.1774
   89SAPS  H11A 8555   2.198   6.313  10.895 -0.5010  1.5987  0.0587
   89SAPS  H11B 8556   2.363   6.314  10.956 -1.2564 -0.1043  1.6253
   89SAPS     P 8557   2.384   6.270  10.670  0.5971 -0.0369 -0.0754
   89SAPS   O13 8558   2.464   6.167  10.745  0.2460 -0.2886 -0.5973
   89SAPS   O14 8559   2.261   6.224  10.600 -0.7056 -0.0585  0.7233
   89SAPS   O12 8560   2.347   6.392  10.760  0.1782  0.8952 -0.4920
   89SAPS   O11 8561   2.481   6.334  10.557 -0.3189 -0.1987 -0.1041
   89SAPS    C1 8562   2.463   6.471  10.523  0.3426  0.4421  0.0976
   89SAPS    HA 8563   2.363   6.514  10.546  0.7949  1.2580  0.6070
   89SAPS    HB 8564   2.528   6.528  10.593 -1.4053  2.4490  0.1977
   89SAPS    C2 8565   2.496   6.501  10.378 -0.4722 -0.1040  0.0724
   89SAPS    HS 8566   2.418   6.457  10.313 -2.0189  4.4173 -1.5356
   89SAPS   O21 8567   2.625   6.446  10.355 -0.1735 -0.5347  0.4137
   89SAPS   C21 8568   2.642   6.398  10.231 -0.5011  0.7000 -0.5049
   89SAPS   O22 8569   2.561   6.407  10.136  0.0341 -0.1086  0.1542
   89SAPS   C22 8570   2.776   6.328  10.219  0.1587 -0.9440 -0.5716
   89SAPS   H2R 8571   2.843   6.417  10.222 -1.3514  0.3758 -2.8154
   89SAPS   H2S 8572   2.804   6.261  10.303 -1.0634  0.2703  0.8556
   89SAPS    C3 8573   2.497   6.657  10.344  0.1468  0.2490 -0.5053
   89SAPS    HX 8574   2.574   6.704  10.409  1.4800 -2.6880  0.1941
   89SAPS    HY 8575   2.395   6.689  10.374  0.8465  2.0699  0.1074
   89SAPS   O31 8576   2.519   6.685  10.208  0.3951 -0.6528 -0.3584
   89SAPS   C31 8577   2.494   6.808  10.170  0.2457 -0.1057  0.4980
   89SAPS   O32 8578   2.456   6.901  10.241  0.1686  0.3776 -0.0050
   89SAPS   C32 8579   2.520   6.820  10.022 -0.5766 -0.1895  0.3611
   89SAPS   H2X 8580   2.625   6.800   9.992 -1.9446 -2.9951 -3.2783
   89SAPS   H2Y 8581   2.491   6.924   9.995  1.0436  0.3431  0.5407
   89SAPS   C23 8582   2.796   6.255  10.087 -0.3788 -0.2214 -0.4488
   89SAPS   H3R 8583   2.906   6.244  10.079 -0.3500 -1.6115  1.2688
   89SAPS   H3S 8584   2.762   6.328  10.010 -1.3690 -0.1908 -0.0004
   89SAPS   C24 8585   2.731   6.121  10.068 -0.4129 -0.0379 -0.2477
   89SAPS   H4R 8586   2.623   6.141  10.087 -0.6104  0.9566 -2.1717
   89SAPS   H4S 8587   2.757   6.061  10.158 -2.4380 -0.0033  0.4376
   89SAPS   C25 8588   2.770   6.060   9.932  0.9873 -0.1349 -0.0354
   89SAPS   H5R 8589   2.840   5.976   9.945  0.8996 -0.4925 -1.6859
   89SAPS   C26 8590   2.729   6.101   9.806 -0.0101 -0.3266  0.2006
   89SAPS   H6R 8591   2.774   6.053   9.717 -1.4012 -0.3093 -0.5364
   89SAPS   C27 8592   2.623   6.206   9.778  0.4114 -0.0393 -0.8522
   89SAPS   H7R 8593   2.591   6.248   9.876  2.1355 -1.3255  0.3069
   89SAPS   H7S 8594   2.532   6.164   9.730  0.3471  1.7074 -2.3875
   89SAPS   C28 8595   2.664   6.324   9.690  0.1013  0.2048 -0.0187
   89SAPS   H8R 8596   2.747   6.385   9.729  0.8710  0.5901 -2.1525
   89SAPS   C29 8597   2.619   6.367   9.571  0.3962 -0.1480  0.6053
   89SAPS   H9R 8598   2.654   6.458   9.521 -2.4207 -0.6088 -2.5208
   89SAPS  C210 8599   2.507   6.299   9.492 -0.9074 -0.6117  0.2053
   89SAPS  H10R 8600   2.425   6.371   9.470 -0.0066  0.2355 -0.4695
   89SAPS  H10S 8601   2.458   6.220   9.554 -0.3547 -0.5749  0.6895
   89SAPS  C211 8602   2.537   6.239   9.358  0.0123 -0.3441 -0.9529
   89SAPS  H11R 8603   2.635   6.194   9.342 -0.1100 -1.2640  0.6224
   89SAPS  C212 8604   2.459   6.239   9.254  0.9877 -0.2788  0.1439
   89SAPS  H12R 8605   2.490   6.188   9.161  1.3855  1.2167 -0.5661
   89SAPS  C213 8606   2.318   6.292   9.251 -0.1410 -0.2464  0.8537
   89SAPS  H13R 8607   2.332   6.401   9.270 -1.4829 -0.1043  1.0865
   89SAPS  H13S 8608   2.256   6.260   9.338 -1.3771 -1.1356 -0.3271
   89SAPS  C214 8609   2.244   6.268   9.120 -0.4574 -0.1063 -0.3370
   89SAPS  H14R 8610   2.203   6.166   9.117  0.6870 -0.6527  1.1804
   89SAPS  C215 8611   2.229   6.344   9.016 -0.3125  0.3523  0.1254
   89SAPS  H15R 8612   2.180   6.301   8.928  2.7590 -0.8659 -1.1430
   89SAPS  C216 8613   2.289   6.480   8.996 -0.1052 -0.0345  0.1659
   89SAPS  H16R 8614   2.345   6.513   9.086 -0.4620 -0.7073  0.6455
   89SAPS  H16S 8615   2.212   6.559   8.980  2.9657  2.7397 -2.5896
   89SAPS  C217 8616   2.379   6.488   8.874  0.3533 -0.4133  0.0935
   89SAPS  H17R 8617   2.398   6.594   8.847  3.0254 -0.9929 -0.5968
   89SAPS  H17S 8618   2.312   6.453   8.792 -0.1104  0.9023 -0.1082
   89SAPS  C218 8619   2.519   6.410   8.875  0.4994 -0.1021 -0.2619
   89SAPS  H18R 8620   2.501   6.301   8.877 -2.7439  0.3129 -0.9378
   89SAPS  H18S 8621   2.566   6.442   8.970  1.6965  3.6755 -1.9246
   89SAPS  C219 8622   2.607   6.446   8.748 -0.5031 -0.3003 -0.4634
   89SAPS  H19R 8623   2.710   6.410   8.768 -0.3141  1.6479  2.7671
   89SAPS  H19S 8624   2.616   6.553   8.720  2.1423 -1.1652 -3.4870
   89SAPS  C220 8625   2.560   6.381   8.618 -0.1707  0.2284 -0.0332
   89SAPS  H20R 8626   2.462   6.421   8.585 -0.1870 -0.6845 -1.1653
   89SAPS  H20S 8627   2.542   6.276   8.648  1.4990  0.0865  0.6020
   89SAPS  H20T 8628   2.637   6.395   8.538 -0.7656  2.7296 -0.2609
   89SAPS   C33 8629   2.440   6.717   9.943 -0.5108  0.2738  0.4049
   89SAPS   H3X 8630   2.333   6.712   9.971 -0.4942 -0.0969  0.4190
   89SAPS   H3Y 8631   2.475   6.614   9.969 -1.4928 -0.1850 -0.0335
   89SAPS   C34 8632   2.446   6.733   9.789 -0.1138  0.1325 -0.5074
   89SAPS   H4X 8633   2.546   6.692   9.762  0.5387  0.8536  0.7013
   89SAPS   H4Y 8634   2.437   6.840   9.760  1.5351  0.0962 -1.2964
   89SAPS   C35 8635   2.342   6.653   9.723  0.4426  0.5070 -0.1605
   89SAPS   H5X 8636   2.245   6.689   9.765 -0.3846 -1.1368 -0.5788
   89SAPS   H5Y 8637   2.346   6.545   9.745 -0.2548  0.2403 -1.2640
   89SAPS   C36 8638   2.328   6.677   9.573  0.9860 -0.1313  0.2086
   89SAPS   H6X 8639   2.414   6.631   9.518  1.1767  1.0883 -0.5609
   89SAPS   H6Y 8640   2.343   6.784   9.546 -0.7746  0.4320  1.3430
   89SAPS   C37 8641   2.204   6.613   9.508  0.2412 -0.1746 -0.6021
   89SAPS   H7X 8642   2.129   6.595   9.589 -1.4284  1.1565 -1.7796
   89SAPS   H7Y 8643   2.228   6.513   9.465 -2.7372 -1.0176 -0.5581
   89SAPS   C38 8644   2.141   6.703   9.402  0.2771  0.5439  0.5145
   89SAPS   H8X 8645   2.215   6.709   9.319 -0.7783  1.1369 -0.4139
   89SAPS   H8Y 8646   2.123   6.805   9.442 -1.5361 -0.1005  1.4073
   89SAPS   C39 8647   2.020   6.642   9.334 -0.2207  0.3259  0.2215
   89SAPS   H9X 8648   1.938   6.611   9.403 -1.2128 -1.9404 -1.8309
   89SAPS   H9Y 8649   2.053   6.545   9.290 -1.0303  0.8406 -1.5919
   89SAPS  C310 8650   1.965   6.727   9.218 -0.7462 -0.1745 -0.6961
   89SAPS  H10X 8651   2.045   6.786   9.169 -0.4038  0.2555  0.3460
   89SAPS  H10Y 8652   1.889   6.798   9.256 -0.2484  0.6562 -1.2239
   89SAPS  C311 8653   1.904   6.631   9.125  0.6729  0.8665  0.8138
   89SAPS  H11X 8654   1.816   6.580   9.169  0.6633  0.2347  0.0833
   89SAPS  H11Y 8655   1.963   6.539   9.107 -2.5471 -1.5056  1.5379
   89SAPS  C312 8656   1.865   6.686   8.987  0.1352  0.0045  0.4715
   89SAPS  H12X 8657   1.959   6.716   8.937 -1.4117  1.5363 -1.6353
   89SAPS  H12Y 8658   1.800   6.775   8.998 -0.7052 -0.5199 -0.1914
   89SAPS  C313 8659   1.800   6.575   8.895 -0.1143 -0.0537  0.2812
   89SAPS  H13X 8660   1.711   6.538   8.950  0.5549 -1.1551  0.6448
   89SAPS  H13Y 8661   1.865   6.490   8.864 -2.0234 -1.3122 -0.5015
   89SAPS  C314 8662   1.749   6.651   8.769 -0.2771  0.0753  0.1662
   89SAPS  H14X 8663   1.839   6.711   8.743  1.5228 -1.9833  1.2184
   89SAPS  H14Y 8664   1.658   6.713   8.782 -1.2550 -0.9874 -1.3691
   89SAPS  C315 8665   1.736   6.549   8.658 -1.0158 -0.1299  0.1291
   89SAPS  H15X 8666   1.676   6.459   8.685 -3.7580  1.0768 -1.4911
   89SAPS  H15Y 8667   1.841   6.518   8.637 -1.2577 -1.6938  1.0114
   89SAPS  C316 8668   1.671   6.618   8.537 -0.2851 -0.1005  0.1427
   89SAPS  H16X 8669   1.738   6.701   8.507 -3.2101  2.6064  0.5789
   89SAPS  H16Y 8670   1.579   6.679   8.551 -1.5223 -2.0632  0.9703
   89SAPS  C317 8671   1.640   6.531   8.419  0.0938  0.0889  0.5951
   89SAPS  H17X 8672   1.599   6.589   8.333 -3.7426 -3.9463 -0.6873
   89SAPS  H17Y 8673   1.556   6.460   8.432 -2.0441  2.4902  0.5840
   89SAPS  C318 8674   1.762   6.462   8.359  0.4213 -0.6326  0.2319
   89SAPS  H18X 8675   1.861   6.511   8.372 -0.1078  0.0052  2.2603
   89SAPS  H18Y 8676   1.743   6.446   8.250  2.0658  1.9108 -0.5007
   89SAPS  H18Z 8677   1.776   6.362   8.407 -1.5917 -0.4195  1.3496
   90SAPS     N 8678   2.650   3.884  11.027  0.0329 -0.4686 -0.0520
   90SAPS   HN1 8679   2.590   3.803  11.052 -1.6088  1.2157  1.8784
   90SAPS   HN2 8680   2.613   3.958  11.090 -0.6922 -0.6247 -0.2883
   90SAPS   HN3 8681   2.645   3.915  10.928 -0.6446  1.6663  0.5864
   90SAPS   C12 8682   2.788   3.844  11.059  0.8135 -0.5251 -0.1961
   90SAPS  H12A 8683   2.854   3.929  11.065  1.3077 -0.8698 -0.6101
   90SAPS   C13 8684   2.792   3.810  11.209 -0.2354 -0.0637  0.8560
   90SAPS  O13A 8685   2.693   3.817  11.281  0.1699  0.1443 -0.5467
   90SAPS  O13B 8686   2.908   3.801  11.256 -0.1753 -0.2761 -0.5300
   90SAPS   C11 8687   2.840   3.733  10.974  0.3848  0.4337  0.2615
   90SAPS  H11A 8688   2.767   3.650  10.967  0.7572  0.1953 -1.4131
   90SAPS  H11B 8689   2.921   3.687  11.034 -1.1614  0.6957  2.6902
   90SAPS     P 8690   3.019   3.736  10.770  0.2624 -0.1416 -0.1719
   90SAPS   O13 8691   3.122   3.702  10.870 -0.1730  0.2921  0.1230
   90SAPS   O14 8692   3.000   3.634  10.664 -0.1782  0.0621  0.1949
   90SAPS   O12 8693   2.881   3.777  10.845  0.1776  0.3154 -0.3644
   90SAPS   O11 8694   3.063   3.876  10.707  0.6835  0.1975 -0.1376
   90SAPS    C1 8695   3.001   3.933  10.594  0.2674  0.1764 -0.2129
   90SAPS    HA 8696   2.936   3.866  10.534 -1.4936  1.9724 -0.4325
   90SAPS    HB 8697   2.933   4.018  10.618 -1.3501 -0.7411 -1.3023
   90SAPS    C2 8698   3.103   4.000  10.492 -0.2389  0.8865 -0.2160
   90SAPS    HS 8699   3.070   4.003  10.386  0.4750 -0.6532 -0.5007
   90SAPS   O21 8700   3.230   3.929  10.504  0.2861 -0.4577 -0.0208
   90SAPS   C21 8701   3.223   3.812  10.437 -0.1484 -0.3245  0.0131
   90SAPS   O22 8702   3.137   3.779  10.360  0.3460  0.3205 -0.7508
   90SAPS   C22 8703   3.339   3.723  10.489  0.6733  0.0086 -0.1565
   90SAPS   H2R 8704   3.414   3.792  10.532  1.1428  0.6563 -1.9330
   90SAPS   H2S 8705   3.302   3.665  10.576 -1.3327 -0.7563 -1.4238
   90SAPS    C3 8706   3.146   4.143  10.528  0.5242 -0.5161  0.6523
   90SAPS    HX 8707   3.219   4.184  10.455  0.1159 -1.6658 -0.4464
   90SAPS    HY 8708   3.190   4.156  10.629  1.2930  0.9105  0.1547
   90SAPS   O31 8709   3.024   4.224  10.515 -0.3360 -0.0467  0.3376
   90SAPS   C31 8710   3.039   4.336  10.577  0.7505 -0.0753 -0.0832
   90SAPS   O32 8711   3.140   4.374  10.634 -0.1716 -0.4896  0.3876
   90SAPS   C32 8712   2.922   4.432  10.548 -0.3002 -0.3780 -0.3680
   90SAPS   H2X 8713   2.836   4.387  10.602 -0.4118 -0.3533 -0.5219
   90SAPS   H2Y 8714   2.900   4.428  10.439  2.4307  1.2358 -1.0791
   90SAPS   C23 8715   3.402   3.631  10.392  0.0945 -0.0235  0.2738
   90SAPS   H3R 8716   3.323   3.599  10.321 -0.9526  0.5816  1.1441
   90SAPS   H3S 8717   3.446   3.540  10.439  1.2007  1.1088  1.5136
   90SAPS   C24 8718   3.513   3.692  10.312 -0.1062  0.3247 -1.1360
   90SAPS   H4R 8719   3.580   3.745  10.383 -0.1552 -0.7236 -0.2798
   90SAPS   H4S 8720   3.459   3.764  10.247 -0.0027  0.9605 -0.5261
   90SAPS   C25 8721   3.597   3.594  10.231 -0.1270  0.1459 -0.8042
   90SAPS   H5R 8722   3.653   3.518  10.287  0.6235  0.2569 -1.3761
   90SAPS   C26 8723   3.599   3.580  10.099 -0.1237 -0.5303 -0.1439
   90SAPS   H6R 8724   3.667   3.511  10.047  1.1696  1.0802 -0.7025
   90SAPS   C27 8725   3.513   3.662  10.002 -0.0262  0.0048 -0.2185
   90SAPS   H7R 8726   3.579   3.721   9.935 -0.5843  1.1312  0.1828
   90SAPS   H7S 8727   3.456   3.748  10.043 -0.0569 -0.9586  1.8764
   90SAPS   C28 8728   3.420   3.565   9.926 -0.1942 -0.4635  0.0666
   90SAPS   H8R 8729   3.384   3.484   9.992  1.3067 -1.0692  0.1802
   90SAPS   C29 8730   3.386   3.571   9.799 -0.4980  0.2536 -0.1347
   90SAPS   H9R 8731   3.305   3.510   9.756 -1.2095  1.9552 -1.3264
   90SAPS  C210 8732   3.419   3.664   9.688 -0.3886 -0.7497 -0.3889
   90SAPS  H10R 8733   3.416   3.770   9.721  0.2996 -1.8284  3.7079
   90SAPS  H10S 8734   3.335   3.654   9.616 -3.8749  2.1948  2.8438
   90SAPS  C211 8735   3.558   3.641   9.623 -0.2910 -0.5059  0.7193
   90SAPS  H11R 8736   3.646   3.663   9.686  0.2981 -0.9681  0.0787
   90SAPS  C212 8737   3.580   3.598   9.490 -0.5266  0.4875  0.3869
   90SAPS  H12R 8738   3.678   3.602   9.442 -1.2297  0.4157 -1.1014
   90SAPS  C213 8739   3.467   3.568   9.393 -0.3485  0.1096 -0.7490
   90SAPS  H13R 8740   3.371   3.621   9.409 -0.2530  0.6382 -1.8476
   90SAPS  H13S 8741   3.437   3.461   9.403 -0.3649  0.2005  0.2635
   90SAPS  C214 8742   3.519   3.577   9.249 -0.6953 -0.3548 -0.2690
   90SAPS  H14R 8743   3.615   3.528   9.228 -0.1558  0.8934 -0.7719
   90SAPS  C215 8744   3.464   3.642   9.150 -0.2323 -0.2191  0.4700
   90SAPS  H15R 8745   3.510   3.633   9.051 -1.9823  1.2065 -0.5346
   90SAPS  C216 8746   3.329   3.716   9.157 -0.5143  0.0384  0.4806
   90SAPS  H16R 8747   3.351   3.823   9.174 -2.7000  0.4553  0.9600
   90SAPS  H16S 8748   3.258   3.674   9.230 -0.5285 -1.3483 -0.2794
   90SAPS  C217 8749   3.244   3.705   9.029 -0.3188  0.0410 -0.0697
   90SAPS  H17R 8750   3.287   3.756   8.940 -1.3928  0.1995 -0.5242
   90SAPS  H17S 8751   3.142   3.750   9.032 -1.3115 -2.1433  0.9237
   90SAPS  C218 8752   3.209   3.553   8.996  0.1245  0.1233  0.5749
   90SAPS  H18R 8753   3.305   3.499   8.984 -0.0424 -0.0836  0.1531
   90SAPS  H18S 8754   3.153   3.542   8.900  0.6320 -1.6107  0.4315
   90SAPS  C219 8755   3.114   3.480   9.089  0.2981  0.4246 -0.9429
   90SAPS  H19R 8756   3.019   3.537   9.093  0.2777  0.3601 -0.2640
   90SAPS  H19S 8757   3.165   3.497   9.186 -1.0821 -0.2901 -0.0481
   90SAPS  C220 8758   3.089   3.338   9.051 -0.6706 -0.2565  0.1415
   90SAPS  H20R 8759   3.019   3.282   9.116  1.0118 -1.2394  1.1577
   90SAPS  H20S 8760   3.184   3.282   9.063 -0.0261  0.8473  0.3077
   90SAPS  H20T 8761   3.066   3.335   8.942  0.2605  3.7010 -0.3162
   90SAPS   C33 8762   2.937   4.577  10.610  0.2570  0.7333 -0.3660
   90SAPS   H3X 8763   3.037   4.624  10.601 -0.0533  2.0865  2.1937
   90SAPS   H3Y 8764   2.936   4.559  10.719  3.1354  1.1072 -0.2164
   90SAPS   C34 8765   2.825   4.680  10.568  0.3327  0.9666 -0.2322
   90SAPS   H4X 8766   2.861   4.779  10.603 -1.0018  1.1864  0.6216
   90SAPS   H4Y 8767   2.736   4.663  10.633 -0.4361  2.3657 -0.8757
   90SAPS   C35 8768   2.776   4.686  10.425  0.3679 -1.1754 -0.4252
   90SAPS   H5X 8769   2.697   4.763  10.414  2.0912  0.4516 -2.2327
   90SAPS   H5Y 8770   2.741   4.585  10.395 -1.9193 -0.9241  1.1589
   90SAPS   C36 8771   2.885   4.730  10.325  0.1269  0.4745 -0.5925
   90SAPS   H6X 8772   2.964   4.652  10.320 -1.0150 -0.6642 -1.5456
   90SAPS   H6Y 8773   2.922   4.823  10.375 -0.1672 -0.2445  1.0200
   90SAPS   C37 8774   2.827   4.777  10.188  0.2201  0.2782  0.1212
   90SAPS   H7X 8775   2.744   4.850  10.199 -0.3608 -0.5706  1.7922
   90SAPS   H7Y 8776   2.804   4.682  10.134 -1.3226 -0.2297  1.5709
   90SAPS   C38 8777   2.929   4.856  10.113 -0.1248 -0.4790  0.2658
   90SAPS   H8X 8778   3.028   4.809  10.124  1.9075  2.7063 -2.4635
   90SAPS   H8Y 8779   2.939   4.951  10.170 -1.3022 -0.6108  0.7368
   90SAPS   C39 8780   2.902   4.898   9.964  0.6461 -0.2874 -0.2057
   90SAPS   H9X 8781   2.909   4.809   9.897  0.6417 -1.6364  1.5072
   90SAPS   H9Y 8782   2.982   4.966   9.929 -0.3218 -1.1070 -4.6174
   90SAPS  C310 8783   2.761   4.962   9.937 -0.2484 -0.0696  0.0061
   90SAPS  H10X 8784   2.747   5.014  10.035  2.2074  2.9839 -1.0880
   90SAPS  H10Y 8785   2.681   4.886   9.926 -0.8604  0.8589 -2.6258
   90SAPS  C311 8786   2.752   5.058   9.820  0.0727 -0.6771  0.0421
   90SAPS  H11X 8787   2.823   5.143   9.829 -0.8489  0.3755 -1.8070
   90SAPS  H11Y 8788   2.656   5.111   9.838  0.5221 -0.0755  0.7264
   90SAPS  C312 8789   2.760   4.992   9.682 -0.5213 -0.8952  0.5854
   90SAPS  H12X 8790   2.706   4.895   9.675 -1.0447 -0.6889  1.5834
   90SAPS  H12Y 8791   2.866   4.976   9.652 -0.4213  0.3745  0.2076
   90SAPS  C313 8792   2.696   5.075   9.566  0.7408  0.0098 -0.5945
   90SAPS  H13X 8793   2.704   5.183   9.594  0.5625 -0.7091  2.6308
   90SAPS  H13Y 8794   2.589   5.053   9.584  0.1686  0.6474 -2.8058
   90SAPS  C314 8795   2.745   5.043   9.427 -0.4004 -0.2066  0.5182
   90SAPS  H14X 8796   2.854   5.026   9.427 -0.3337 -0.5310 -3.1335
   90SAPS  H14Y 8797   2.744   5.133   9.361  1.3454 -0.1534  0.5350
   90SAPS  C315 8798   2.669   4.930   9.362 -0.5137 -0.2499 -0.4139
   90SAPS  H15X 8799   2.563   4.946   9.392 -0.0678  2.9147 -0.2340
   90SAPS  H15Y 8800   2.708   4.829   9.387 -1.0906  0.1282  2.2988
   90SAPS  C316 8801   2.670   4.952   9.206  0.2356 -0.1622  0.3267
   90SAPS  H16X 8802   2.654   5.060   9.184  0.9240  0.0782  0.9683
   90SAPS  H16Y 8803   2.583   4.895   9.167  0.6480 -2.4013  2.4199
   90SAPS  C317 8804   2.795   4.905   9.129 -0.8617 -0.0650  0.1009
   90SAPS  H17X 8805   2.819   4.801   9.157  1.6136  1.2361  3.5046
   90SAPS  H17Y 8806   2.883   4.960   9.168  0.7734 -1.6417 -1.2301
   90SAPS  C318 8807   2.783   4.923   8.977 -0.7250 -0.1533 -0.1221
   90SAPS  H18X 8808   2.711   4.851   8.932 -4.6906  3.4170 -0.0467
   90SAPS  H18Y 8809   2.876   4.908   8.917 -0.2016  0.8328  0.4116
   90SAPS  H18Z 8810   2.734   5.017   8.943  1.7687  0.3459 -2.8100
   91SAPS     N 8811   3.060   0.850   6.127 -0.2082 -0.5955  0.0898
   91SAPS   HN1 8812   3.151   0.900   6.115 -0.5237 -0.4154 -1.9742
   91SAPS   HN2 8813   2.990   0.910   6.175 -1.4438 -3.1713  1.7483
   91SAPS   HN3 8814   3.072   0.762   6.182 -3.0394 -0.2441  1.4608
   91SAPS   C12 8815   3.016   0.823   5.998  0.1016  0.4110  0.2069
   91SAPS  H12A 8816   2.968   0.913   5.961 -0.1813 -0.0744 -0.6334
   91SAPS   C13 8817   3.125   0.776   5.890  0.1340 -0.6013  0.3885
   91SAPS  O13A 8818   3.245   0.757   5.923 -0.4004  0.1903 -0.3744
   91SAPS  O13B 8819   3.091   0.782   5.768 -0.2862  0.0060 -0.0240
   91SAPS   C11 8820   2.913   0.702   6.012  0.5203  0.0536  0.0090
   91SAPS  H11A 8821   2.961   0.603   6.028 -1.0584 -0.5765  0.9800
   91SAPS  H11B 8822   2.860   0.691   5.915  0.9768 -0.7576 -0.1634
   91SAPS     P 8823   2.694   0.624   6.120  0.0501  0.6159  0.0483
   91SAPS   O13 8824   2.589   0.681   6.033 -0.6633  0.1554  0.1983
   91SAPS   O14 8825   2.725   0.482   6.089 -0.3930  0.7854 -0.3679
   91SAPS   O12 8826   2.818   0.719   6.114 -0.1157  0.7687  0.3436
   91SAPS   O11 8827   2.654   0.645   6.273  0.2991  0.3293 -0.5545
   91SAPS    C1 8828   2.674   0.765   6.343  0.5688  1.1040 -0.3520
   91SAPS    HA 8829   2.732   0.841   6.286  1.5030 -1.3864 -2.9744
   91SAPS    HB 8830   2.574   0.813   6.352 -0.8453 -1.8906  1.1829
   91SAPS    C2 8831   2.718   0.738   6.486 -0.0084  0.1712  0.0154
   91SAPS    HS 8832   2.639   0.669   6.522  0.3657 -1.1029 -1.4772
   91SAPS   O21 8833   2.707   0.866   6.562  0.0292 -0.3690 -0.1663
   91SAPS   C21 8834   2.588   0.899   6.612  0.9459 -0.2745 -0.1563
   91SAPS   O22 8835   2.484   0.832   6.607 -0.0535 -0.7825 -0.5610
   91SAPS   C22 8836   2.600   1.031   6.692 -0.0378  0.9005  0.3239
   91SAPS   H2R 8837   2.679   0.999   6.763  1.5519  1.6408 -1.0396
   91SAPS   H2S 8838   2.657   1.106   6.632  3.0111 -0.1264  1.7285
   91SAPS    C3 8839   2.862   0.684   6.491 -0.4369  0.9364  0.6422
   91SAPS    HX 8840   2.927   0.767   6.455 -0.9214  1.6975  1.4879
   91SAPS    HY 8841   2.885   0.594   6.430  1.1515  0.2922  2.1151
   91SAPS   O31 8842   2.892   0.650   6.628  0.6108 -0.3135 -0.9509
   91SAPS   C31 8843   2.978   0.725   6.696 -0.2438  0.4065 -0.4625
   91SAPS   O32 8844   3.037   0.819   6.653  0.1006  0.1050 -0.4998
   91SAPS   C32 8845   2.982   0.678   6.846  0.7610  0.9247  0.6725
   91SAPS   H2X 8846   3.084   0.636   6.857 -0.6904 -4.0805 -1.9169
   91SAPS   H2Y 8847   2.916   0.589   6.859 -0.0140  1.2433 -0.8190
   91SAPS   C23 8848   2.464   1.082   6.741  0.1314  0.0700  0.5640
   91SAPS   H3R 8849   2.380   1.086   6.668  0.8561  1.6542 -0.2329
   91SAPS   H3S 8850   2.476   1.185   6.781 -3.6764  0.7581  0.3414
   91SAPS   C24 8851   2.429   1.007   6.867 -0.3429  0.2467  0.5708
   91SAPS   H4R 8852   2.528   0.981   6.909 -0.1126 -1.0008 -0.6929
   91SAPS   H4S 8853   2.377   0.911   6.846  0.8326 -0.5070  1.0171
   91SAPS   C25 8854   2.346   1.097   6.954  0.2730  0.7575 -0.2058
   91SAPS   H5R 8855   2.238   1.093   6.936  0.0168  0.3662  1.2630
   91SAPS   C26 8856   2.383   1.161   7.066 -0.5535 -0.5428 -0.3186
   91SAPS   H6R 8857   2.310   1.227   7.113 -1.8090 -0.2112 -2.6403
   91SAPS   C27 8858   2.524   1.175   7.127 -0.5642 -0.0652 -0.2428
   91SAPS   H7R 8859   2.545   1.281   7.152  2.5241 -1.0007  1.7474
   91SAPS   H7S 8860   2.597   1.151   7.047 -1.6028 -1.1292 -0.8917
   91SAPS   C28 8861   2.558   1.097   7.250  0.7129 -0.7688  0.1177
   91SAPS   H8R 8862   2.600   0.996   7.237 -0.6258 -1.3698  0.3425
   91SAPS   C29 8863   2.532   1.130   7.379 -0.2419 -0.4951 -0.0560
   91SAPS   H9R 8864   2.560   1.055   7.455 -0.5330  1.2272  1.8432
   91SAPS  C210 8865   2.466   1.250   7.443 -0.4575  0.0177  0.3009
   91SAPS  H10R 8866   2.415   1.303   7.360 -0.3644 -1.5547 -0.8080
   91SAPS  H10S 8867   2.545   1.318   7.480 -1.7516  0.8948  1.5641
   91SAPS  C211 8868   2.364   1.212   7.542  0.8264  0.0694  0.1229
   91SAPS  H11R 8869   2.289   1.148   7.494  0.4315  0.4282  0.2415
   91SAPS  C212 8870   2.339   1.255   7.670  0.2086  0.5989  0.1082
   91SAPS  H12R 8871   2.260   1.205   7.728 -0.4962 -0.1849 -1.4668
   91SAPS  C213 8872   2.426   1.356   7.736 -0.0599 -0.3811 -0.3297
   91SAPS  H13R 8873   2.356   1.437   7.766 -1.3168 -1.7238  0.5083
   91SAPS  H13S 8874   2.498   1.389   7.658  0.6875 -3.4195 -1.0605
   91SAPS  C214 8875   2.488   1.329   7.863  0.0859  0.1911 -0.6832
   91SAPS  H14R 8876   2.598   1.335   7.868  0.1441  1.3902 -2.5121
   91SAPS  C215 8877   2.429   1.311   7.981 -0.5677 -0.3208 -0.3315
   91SAPS  H15R 8878   2.499   1.305   8.066 -0.5352 -2.0615 -0.4583
   91SAPS  C216 8879   2.282   1.310   8.024 -0.3286 -0.3937  0.6659
   91SAPS  H16R 8880   2.220   1.297   7.933 -0.3029 -1.8054  0.8225
   91SAPS  H16S 8881   2.265   1.397   8.091  0.8932 -0.5170  1.1624
   91SAPS  C217 8882   2.245   1.197   8.121  1.1354  0.3927  1.2174
   91SAPS  H17R 8883   2.276   1.100   8.076 -1.4558  0.2350 -0.4065
   91SAPS  H17S 8884   2.134   1.197   8.124  1.0709 -0.5103 -0.2058
   91SAPS  C218 8885   2.294   1.197   8.265  0.7379 -0.0351  0.3052
   91SAPS  H18R 8886   2.240   1.280   8.316 -1.8108 -1.1116 -0.4938
   91SAPS  H18S 8887   2.398   1.232   8.284  0.7241 -0.6075  1.5003
   91SAPS  C219 8888   2.264   1.058   8.331 -0.1136 -0.4386 -0.6133
   91SAPS  H19R 8889   2.302   0.974   8.269 -0.0387 -1.8907  1.3041
   91SAPS  H19S 8890   2.153   1.051   8.337 -0.0140 -0.4764  2.5840
   91SAPS  C220 8891   2.301   1.050   8.480  0.1578 -0.2974  0.0287
   91SAPS  H20R 8892   2.284   0.942   8.504  1.1889 -0.6848 -0.8871
   91SAPS  H20S 8893   2.236   1.111   8.546 -1.6939 -1.0163 -1.0391
   91SAPS  H20T 8894   2.405   1.069   8.512  0.1383 -2.7312  1.8207
   91SAPS   C33 8895   2.951   0.789   6.951  0.9964 -0.0024 -0.6596
   91SAPS   H3X 8896   2.848   0.828   6.945  0.0396 -2.1059  0.8978
   91SAPS   H3Y 8897   3.034   0.862   6.939 -0.1908  1.3921 -0.5734
   91SAPS   C34 8898   2.971   0.743   7.095 -0.0310  0.1890  0.1689
   91SAPS   H4X 8899   3.079   0.721   7.106  0.2816  0.6356 -1.7329
   91SAPS   H4Y 8900   2.912   0.650   7.107  1.9285 -1.0358  0.7856
   91SAPS   C35 8901   2.907   0.843   7.193  0.3496 -0.4196  0.9171
   91SAPS   H5X 8902   2.801   0.847   7.162  0.0741  0.1663  1.8940
   91SAPS   H5Y 8903   2.957   0.942   7.184  0.0068 -0.2027  1.3188
   91SAPS   C36 8904   2.918   0.801   7.335  0.1886  0.6963 -0.0394
   91SAPS   H6X 8905   3.023   0.769   7.352  0.2610  0.5495 -0.7378
   91SAPS   H6Y 8906   2.844   0.721   7.360  0.5823  1.4054  4.1493
   91SAPS   C37 8907   2.895   0.921   7.427  0.2191  0.1266  0.4553
   91SAPS   H7X 8908   2.810   0.981   7.388 -0.7459 -0.7614  1.1423
   91SAPS   H7Y 8909   2.985   0.984   7.414  0.1200 -0.1423 -2.1685
   91SAPS   C38 8910   2.869   0.878   7.569  0.9722 -0.0353 -0.2521
   91SAPS   H8X 8911   2.958   0.842   7.625  0.9063 -1.3568 -0.9550
   91SAPS   H8Y 8912   2.788   0.802   7.573  1.9304 -1.2659 -2.5876
   91SAPS   C39 8913   2.811   0.989   7.659  0.2977  0.0453  0.1058
   91SAPS   H9X 8914   2.731   1.043   7.604 -0.8987 -1.5785  0.1497
   91SAPS   H9Y 8915   2.895   1.059   7.674  0.1408  0.1009  0.7322
   91SAPS  C310 8916   2.758   0.928   7.788 -0.3632  1.0724  0.0674
   91SAPS  H10X 8917   2.836   0.852   7.807 -1.9878 -0.7521 -0.2411
   91SAPS  H10Y 8918   2.665   0.874   7.760 -0.1694  1.2793 -1.0611
   91SAPS  C311 8919   2.722   1.017   7.911 -0.2835 -0.0513 -0.7486
   91SAPS  H11X 8920   2.641   1.083   7.873 -2.6676 -3.2281 -1.6418
   91SAPS  H11Y 8921   2.805   1.085   7.941 -0.8820 -0.0003  0.8833
   91SAPS  C312 8922   2.694   0.930   8.040 -0.6201  0.7559 -1.1418
   91SAPS  H12X 8923   2.778   0.863   8.069 -0.6287  1.7367  1.3877
   91SAPS  H12Y 8924   2.604   0.865   8.032 -0.7982  0.7268  0.7651
   91SAPS  C313 8925   2.664   1.021   8.158 -0.0076  0.2623  0.1909
   91SAPS  H13X 8926   2.565   1.068   8.139 -1.3119 -2.2065  0.5155
   91SAPS  H13Y 8927   2.724   1.114   8.168 -0.0346  0.8625 -3.7192
   91SAPS  C314 8928   2.657   0.949   8.301 -0.3054  0.2107 -0.1646
   91SAPS  H14X 8929   2.747   0.884   8.307 -0.3100 -0.0429 -2.1124
   91SAPS  H14Y 8930   2.561   0.894   8.305 -0.7906  1.0061  4.2787
   91SAPS  C315 8931   2.653   1.046   8.423 -0.7817  0.2433  0.1680
   91SAPS  H15X 8932   2.571   1.120   8.410 -1.0134  0.2978  1.7440
   91SAPS  H15Y 8933   2.750   1.100   8.432 -1.1758  0.8183  1.1872
   91SAPS  C316 8934   2.635   0.980   8.557 -0.6550  0.7115 -0.8735
   91SAPS  H16X 8935   2.731   0.926   8.560 -1.8841 -1.5773  1.0430
   91SAPS  H16Y 8936   2.546   0.914   8.574  0.9187 -1.1310  0.7203
   91SAPS  C317 8937   2.632   1.080   8.668 -0.3025  0.2350  0.4953
   91SAPS  H17X 8938   2.530   1.084   8.713  0.2898 -0.1661  1.9401
   91SAPS  H17Y 8939   2.662   1.177   8.623  3.5010 -0.6124  0.9065
   91SAPS  C318 8940   2.734   1.040   8.782  0.2748  0.1447  0.4915
   91SAPS  H18X 8941   2.717   1.069   8.888 -1.4560  0.0534  0.2691
   91SAPS  H18Y 8942   2.834   1.080   8.759  0.4704 -0.5493  0.1156
   91SAPS  H18Z 8943   2.734   0.929   8.785  0.6219  0.1261 -0.1521
   92SAPS     N 8944   2.121   6.530   6.296 -0.3890  0.1219  0.2852
   92SAPS   HN1 8945   2.065   6.522   6.209  0.8351 -0.6096 -0.4825
   92SAPS   HN2 8946   2.063   6.566   6.375  1.3178  3.4966  0.1798
   92SAPS   HN3 8947   2.193   6.602   6.273  0.2195 -0.3425  0.6815
   92SAPS   C12 8948   2.187   6.400   6.317  0.0594  0.6383 -0.3480
   92SAPS  H12A 8949   2.122   6.329   6.269 -2.8835  2.8321  0.1122
   92SAPS   C13 8950   2.329   6.382   6.257 -0.4592  0.2836 -0.2770
   92SAPS  O13A 8951   2.389   6.482   6.213 -0.4424  0.6973  0.8104
   92SAPS  O13B 8952   2.399   6.280   6.279  0.1489 -0.3868 -0.4167
   92SAPS   C11 8953   2.201   6.360   6.466 -0.0036 -0.1830  0.3369
   92SAPS  H11A 8954   2.108   6.390   6.517  0.7010 -1.2538  2.3789
   92SAPS  H11B 8955   2.277   6.427   6.512  1.1344  1.4398 -3.4709
   92SAPS     P 8956   2.113   6.113   6.503  0.1097 -0.2618 -0.1676
   92SAPS   O13 8957   2.048   6.095   6.366  0.0029 -0.2058  0.1432
   92SAPS   O14 8958   2.165   5.991   6.570 -0.0637 -0.2478 -0.0658
   92SAPS   O12 8959   2.231   6.224   6.497 -0.5334  0.5436  0.2734
   92SAPS   O11 8960   2.004   6.177   6.590  0.3136 -0.0537 -0.1932
   92SAPS    C1 8961   2.024   6.228   6.726 -0.0016 -0.1408 -0.5187
   92SAPS    HA 8962   2.078   6.156   6.791 -0.4972  0.5100  0.6326
   92SAPS    HB 8963   2.094   6.315   6.725 -0.6958  0.4874  1.3447
   92SAPS    C2 8964   1.888   6.278   6.786  0.2046  0.1757 -0.6936
   92SAPS    HS 8965   1.856   6.363   6.722  0.5493  0.8567  0.0264
   92SAPS   O21 8966   1.915   6.310   6.926  0.0845  0.5078  0.5716
   92SAPS   C21 8967   1.819   6.372   6.981 -0.1593  0.3026 -0.0130
   92SAPS   O22 8968   1.731   6.435   6.923  0.1502  0.1211 -0.3165
   92SAPS   C22 8969   1.842   6.367   7.131  0.3551  0.3896 -0.3897
   92SAPS   H2R 8970   1.874   6.266   7.163 -0.1922  1.2914  3.5797
   92SAPS   H2S 8971   1.921   6.442   7.151  0.4961  0.3428 -0.7738
   92SAPS    C3 8972   1.773   6.169   6.786 -0.6362  0.2970 -0.0697
   92SAPS    HX 8973   1.772   6.143   6.678  0.7147  3.1256 -0.8776
   92SAPS    HY 8974   1.680   6.223   6.814 -0.9352 -0.0164 -0.4490
   92SAPS   O31 8975   1.795   6.051   6.867  0.0567 -0.3280  0.8574
   92SAPS   C31 8976   1.694   5.965   6.879 -0.6734  0.0549 -0.0427
   92SAPS   O32 8977   1.583   5.983   6.830 -0.1886 -0.4422  0.1184
   92SAPS   C32 8978   1.728   5.854   6.973 -0.4459 -0.2380 -0.9986
   92SAPS   H2X 8979   1.789   5.902   7.053 -1.1041  0.2142 -0.7620
   92SAPS   H2Y 8980   1.794   5.777   6.928 -0.2810 -0.1116 -0.9786
   92SAPS   C23 8981   1.709   6.392   7.216 -0.7573 -0.2234  0.0115
   92SAPS   H3R 8982   1.661   6.480   7.170  0.9079 -0.3853 -2.1871
   92SAPS   H3S 8983   1.731   6.424   7.321  0.4049 -0.7497 -0.0554
   92SAPS   C24 8984   1.603   6.278   7.223 -0.7462  0.1893 -0.2632
   92SAPS   H4R 8985   1.571   6.260   7.117  3.5515 -0.2221 -1.6686
   92SAPS   H4S 8986   1.509   6.306   7.275 -0.9886 -1.4363  0.2409
   92SAPS   C25 8987   1.648   6.140   7.273 -0.6306  0.0123 -0.5279
   92SAPS   H5R 8988   1.703   6.071   7.207  0.5378  1.5292 -1.1810
   92SAPS   C26 8989   1.632   6.096   7.397 -0.3273 -0.1074  0.3447
   92SAPS   H6R 8990   1.686   6.003   7.422  1.5607  0.7428 -0.3347
   92SAPS   C27 8991   1.574   6.161   7.517 -0.5744 -0.1527  0.9515
   92SAPS   H7R 8992   1.569   6.270   7.493  0.1742 -0.2135  0.5245
   92SAPS   H7S 8993   1.641   6.175   7.605  0.5253  0.8555 -0.0242
   92SAPS   C28 8994   1.446   6.097   7.554  0.0443 -0.0781 -0.5021
   92SAPS   H8R 8995   1.367   6.094   7.478  0.5733 -3.1477 -1.0615
   92SAPS   C29 8996   1.414   6.036   7.671 -0.8694  0.3307 -0.7213
   92SAPS   H9R 8997   1.314   6.001   7.698  1.1298 -3.9348  2.3664
   92SAPS  C210 8998   1.517   6.012   7.782 -0.4711 -0.0139 -0.1748
   92SAPS  H10R 8999   1.548   6.105   7.834  2.2880 -1.0814  0.2628
   92SAPS  H10S 9000   1.613   5.975   7.741  0.1105  1.2751 -0.0267
   92SAPS  C211 9001   1.452   5.930   7.890 -0.2168  0.1132 -0.1226
   92SAPS  H11R 9002   1.404   5.836   7.860  1.6969 -0.8228 -0.4426
   92SAPS  C212 9003   1.459   5.952   8.022  0.6334  0.2078  0.1417
   92SAPS  H12R 9004   1.416   5.876   8.089 -2.9954  2.2920  0.4663
   92SAPS  C213 9005   1.520   6.061   8.118  0.4686  0.1117 -0.2310
   92SAPS  H13R 9006   1.442   6.094   8.189  0.5303  1.5620 -0.7940
   92SAPS  H13S 9007   1.538   6.153   8.058 -2.3144  0.5279 -0.5346
   92SAPS  C214 9008   1.648   6.019   8.184 -0.0544  0.1637  0.3608
   92SAPS  H14R 9009   1.715   5.965   8.116 -2.0091 -0.2603 -1.3434
   92SAPS  C215 9010   1.684   6.049   8.309  0.4750 -0.0318  0.2598
   92SAPS  H15R 9011   1.773   6.007   8.359  0.7649  0.6561  0.3347
   92SAPS  C216 9012   1.611   6.123   8.413 -0.0900  0.5487 -0.1312
   92SAPS  H16R 9013   1.554   6.210   8.373  1.0799  1.8172  0.8841
   92SAPS  H16S 9014   1.685   6.179   8.474 -0.7793  1.3367  0.0028
   92SAPS  C217 9015   1.526   6.031   8.498  0.1384  0.4332  0.3322
   92SAPS  H17R 9016   1.598   5.963   8.549 -0.6648 -0.7199 -0.0298
   92SAPS  H17S 9017   1.467   5.964   8.433  2.6260 -1.1833 -0.4252
   92SAPS  C218 9018   1.435   6.104   8.592  0.4516 -0.0236 -0.6477
   92SAPS  H18R 9019   1.406   6.039   8.677  1.0753 -0.2237 -0.5789
   92SAPS  H18S 9020   1.346   6.155   8.551  0.6359  0.6043 -0.2703
   92SAPS  C219 9021   1.515   6.212   8.668 -0.0739 -0.2287 -0.2027
   92SAPS  H19R 9022   1.539   6.294   8.596  1.9901  0.9035  1.6507
   92SAPS  H19S 9023   1.608   6.162   8.705  0.2374  1.4455  1.3821
   92SAPS  C220 9024   1.435   6.271   8.781 -0.0805 -0.1162 -0.1342
   92SAPS  H20R 9025   1.494   6.349   8.834 -0.9378  0.3167  0.2040
   92SAPS  H20S 9026   1.387   6.197   8.848 -3.5888 -0.4214 -2.7106
   92SAPS  H20T 9027   1.344   6.320   8.738  0.3943  0.0900 -0.9281
   92SAPS   C33 9028   1.601   5.788   7.029  0.0753 -0.9518 -0.0097
   92SAPS   H3X 9029   1.535   5.745   6.952 -2.9582  1.0592  1.2839
   92SAPS   H3Y 9030   1.547   5.876   7.069  2.3205  0.5960 -0.1700
   92SAPS   C34 9031   1.626   5.684   7.130  0.2331  0.1099  0.4836
   92SAPS   H4X 9032   1.720   5.630   7.105 -2.0277 -2.9387 -2.2142
   92SAPS   H4Y 9033   1.549   5.605   7.120  0.7643 -0.2393 -1.3102
   92SAPS   C35 9034   1.635   5.737   7.266 -0.5765  0.1762 -0.4032
   92SAPS   H5X 9035   1.533   5.774   7.291 -0.4190 -0.3681  1.1531
   92SAPS   H5Y 9036   1.703   5.824   7.274  1.7357 -1.6486  1.2193
   92SAPS   C36 9037   1.681   5.634   7.369  0.1804  0.7170  0.2539
   92SAPS   H6X 9038   1.779   5.585   7.349 -0.7241 -0.6192 -1.1191
   92SAPS   H6Y 9039   1.604   5.554   7.364  0.2565  0.6763 -0.4372
   92SAPS   C37 9040   1.684   5.695   7.516 -0.1063 -0.5906 -1.0292
   92SAPS   H7X 9041   1.577   5.714   7.540  0.7830  1.6691  1.5656
   92SAPS   H7Y 9042   1.728   5.796   7.532  0.3257 -0.9288 -0.0379
   92SAPS   C38 9043   1.738   5.603   7.625  0.0254  0.2450 -0.0092
   92SAPS   H8X 9044   1.849   5.596   7.633  0.0315  1.4580  1.5704
   92SAPS   H8Y 9045   1.696   5.500   7.622  0.3315  0.1109  0.1837
   92SAPS   C39 9046   1.706   5.672   7.761  0.6593 -0.1133 -0.3643
   92SAPS   H9X 9047   1.598   5.695   7.765  0.5173 -0.7800 -0.0946
   92SAPS   H9Y 9048   1.751   5.773   7.754  0.2533  0.2381  1.5762
   92SAPS  C310 9049   1.767   5.599   7.886  0.7810  0.7434  0.4313
   92SAPS  H10X 9050   1.870   5.565   7.859  0.4145  1.4469 -2.0798
   92SAPS  H10Y 9051   1.711   5.505   7.906  2.4677 -0.3990  0.0120
   92SAPS  C311 9052   1.764   5.687   8.009 -0.2203  0.8374  0.3504
   92SAPS  H11X 9053   1.659   5.720   8.019 -0.9920 -1.4762  0.3893
   92SAPS  H11Y 9054   1.837   5.771   8.002 -0.9192  1.4540  0.4452
   92SAPS  C312 9055   1.804   5.605   8.135 -0.4533 -0.8230  0.5713
   92SAPS  H12X 9056   1.914   5.588   8.132 -0.2412  0.4986 -1.3484
   92SAPS  H12Y 9057   1.748   5.509   8.137 -1.8857 -0.0978 -0.9886
   92SAPS  C313 9058   1.797   5.687   8.265  0.0608  0.1560 -0.2331
   92SAPS  H13X 9059   1.689   5.703   8.287  0.0713 -1.8759  1.7759
   92SAPS  H13Y 9060   1.842   5.787   8.252 -0.4131  0.5048  0.6770
   92SAPS  C314 9061   1.854   5.617   8.389 -0.3801  0.2426  0.2078
   92SAPS  H14X 9062   1.954   5.578   8.359 -0.0019  1.0567  0.3771
   92SAPS  H14Y 9063   1.787   5.530   8.409  1.2718 -0.9103  0.9293
   92SAPS  C315 9064   1.853   5.716   8.505  0.2897 -0.0604  0.2468
   92SAPS  H15X 9065   1.753   5.758   8.527  0.4270  1.1319 -1.3133
   92SAPS  H15Y 9066   1.915   5.801   8.471  1.0526 -0.9168 -0.5516
   92SAPS  C316 9067   1.923   5.661   8.635  0.1820  0.5338 -0.8063
   92SAPS  H16X 9068   1.963   5.747   8.694  2.2047 -1.4748  0.9904
   92SAPS  H16Y 9069   2.008   5.605   8.590  0.2915 -1.0961  1.3019
   92SAPS  C317 9070   1.842   5.560   8.714 -0.3989  0.6394 -0.0999
   92SAPS  H17X 9071   1.915   5.510   8.780  0.1793  3.2641  1.3931
   92SAPS  H17Y 9072   1.800   5.490   8.639 -1.5495  0.5427  0.6165
   92SAPS  C318 9073   1.745   5.630   8.809 -0.4411  0.0672  0.0067
   92SAPS  H18X 9074   1.695   5.563   8.882 -0.6172  0.6913  0.4693
   92SAPS  H18Y 9075   1.672   5.680   8.741  0.7823  2.3829  0.2987
   92SAPS  H18Z 9076   1.786   5.716   8.866 -4.0263 -0.2961  3.6181
   93SAPS     N 9077   1.974   0.258   6.329 -0.2671 -0.2585  1.0080
   93SAPS   HN1 9078   2.037   0.340   6.344  0.3310 -0.7750  1.3382
   93SAPS   HN2 9079   1.945   0.263   6.229  0.1095 -2.0198  0.7929
   93SAPS   HN3 9080   1.899   0.263   6.401 -0.6025 -0.0293  0.6508
   93SAPS   C12 9081   2.057   0.134   6.340 -0.0989 -0.7793  0.8783
   93SAPS  H12A 9082   1.992   0.048   6.333 -0.7995 -0.3601  1.8692
   93SAPS   C13 9083   2.161   0.127   6.226 -0.6706  0.2647  0.2281
   93SAPS  O13A 9084   2.187   0.222   6.147 -0.3562  0.4358  0.2371
   93SAPS  O13B 9085   2.199   0.011   6.212 -0.2999  0.1563  0.1876
   93SAPS   C11 9086   2.132   0.142   6.477 -0.2553 -0.5902 -0.1735
   93SAPS  H11A 9087   2.171   0.243   6.504 -3.9706  1.9831 -3.2144
   93SAPS  H11B 9088   2.223   0.080   6.488  0.2277  0.3068  1.1742
   93SAPS     P 9089   2.024  -0.035   6.643  0.1013 -0.3156 -0.2568
   93SAPS   O13 9090   1.912  -0.044   6.739  0.1789  0.0690  0.2840
   93SAPS   O14 9091   2.014  -0.131   6.528 -0.6475 -0.5012 -0.8375
   93SAPS   O12 9092   2.032   0.113   6.578 -0.3726 -0.3630 -0.5430
   93SAPS   O11 9093   2.161  -0.060   6.713 -0.1429  0.3661  0.0156
   93SAPS    C1 9094   2.213   0.002   6.830  0.4037 -0.1274 -0.2378
   93SAPS    HA 9095   2.321  -0.024   6.832  0.3553 -0.3337 -0.2637
   93SAPS    HB 9096   2.189   0.110   6.841  0.6049  0.2742 -2.9925
   93SAPS    C2 9097   2.174  -0.075   6.960 -0.6366 -0.0392 -0.4426
   93SAPS    HS 9098   2.063  -0.071   6.967 -0.5106  0.7900  3.0178
   93SAPS   O21 9099   2.249  -0.016   7.071  0.0957 -0.1839 -0.3274
   93SAPS   C21 9100   2.187   0.086   7.133  0.2490  0.2940 -1.1000
   93SAPS   O22 9101   2.072   0.118   7.113  0.1065 -0.1000  0.4522
   93SAPS   C22 9102   2.280   0.144   7.245  0.6167 -0.5679  0.1969
   93SAPS   H2R 9103   2.290   0.064   7.321 -0.1109 -0.9054 -0.0476
   93SAPS   H2S 9104   2.379   0.173   7.204 -0.1248  1.2287 -0.4596
   93SAPS    C3 9105   2.217  -0.226   6.952 -0.1619 -0.1101 -0.0782
   93SAPS    HX 9106   2.325  -0.239   6.930 -0.5197  0.1338 -2.1430
   93SAPS    HY 9107   2.171  -0.279   6.867 -0.6996  2.0306 -1.1896
   93SAPS   O31 9108   2.188  -0.286   7.079 -0.1590  0.0858 -0.0818
   93SAPS   C31 9109   2.251  -0.409   7.092  0.0534 -0.2140  1.5185
   93SAPS   O32 9110   2.307  -0.474   7.007  0.2331  0.1700 -0.1508
   93SAPS   C32 9111   2.251  -0.457   7.236 -0.2166  0.7042 -0.5238
   93SAPS   H2X 9112   2.223  -0.564   7.232  2.8909 -0.1745 -0.9171
   93SAPS   H2Y 9113   2.169  -0.405   7.290 -1.1413 -1.4213  0.2379
   93SAPS   C23 9114   2.222   0.281   7.295  0.0566 -0.1137  0.5654
   93SAPS   H3R 9115   2.112   0.288   7.299  0.0064 -1.0514  0.9603
   93SAPS   H3S 9116   2.243   0.351   7.211 -0.0560  0.5805  1.1083
   93SAPS   C24 9117   2.292   0.330   7.422  0.7636 -0.0988 -0.3407
   93SAPS   H4R 9118   2.393   0.373   7.401  0.7852  0.8210  1.4762
   93SAPS   H4S 9119   2.303   0.247   7.494  0.1355  1.1064  1.1949
   93SAPS   C25 9120   2.213   0.446   7.475  0.5708 -0.0113 -0.6814
   93SAPS   H5R 9121   2.215   0.546   7.430 -1.2892  0.7895  0.8557
   93SAPS   C26 9122   2.135   0.435   7.587 -0.1785  0.1962  0.0630
   93SAPS   H6R 9123   2.093   0.526   7.632 -1.5166 -1.4318  2.2943
   93SAPS   C27 9124   2.114   0.309   7.672  0.8659 -0.2393 -0.0217
   93SAPS   H7R 9125   2.105   0.221   7.604 -0.0608 -0.3055  0.1740
   93SAPS   H7S 9126   2.015   0.313   7.723  0.6404  0.2828 -0.4955
   93SAPS   C28 9127   2.228   0.285   7.770  0.2093  0.1116 -0.1542
   93SAPS   H8R 9128   2.302   0.366   7.773  0.7447 -0.1185 -3.3893
   93SAPS   C29 9129   2.229   0.198   7.871  0.9015 -0.7189 -0.9114
   93SAPS   H9R 9130   2.323   0.186   7.926 -0.0982  1.1124  1.3344
   93SAPS  C210 9131   2.117   0.101   7.900  0.0943 -0.2719 -0.2621
   93SAPS  H10R 9132   2.026   0.110   7.838 -1.2262  2.6629  1.8593
   93SAPS  H10S 9133   2.072   0.118   8.000  0.9833  1.4660 -0.1158
   93SAPS  C211 9134   2.176  -0.036   7.906 -0.1302  0.0423  0.5394
   93SAPS  H11R 9135   2.199  -0.072   8.008  1.4352 -0.9144 -0.0996
   93SAPS  C212 9136   2.194  -0.122   7.807 -0.0259 -0.2067  1.0882
   93SAPS  H12R 9137   2.249  -0.216   7.826  0.9584  0.0166 -0.4461
   93SAPS  C213 9138   2.179  -0.084   7.662  0.0493  0.0220  0.0678
   93SAPS  H13R 9139   2.260  -0.013   7.636 -1.3278  0.7248 -2.7744
   93SAPS  H13S 9140   2.079  -0.035   7.652  0.3090  0.6021  0.3005
   93SAPS  C214 9141   2.168  -0.193   7.567 -0.6344 -0.2850  0.1234
   93SAPS  H14R 9142   2.261  -0.250   7.557 -0.8907 -0.8264  0.7416
   93SAPS  C215 9143   2.057  -0.226   7.494  0.0884 -0.0440  0.4357
   93SAPS  H15R 9144   2.066  -0.307   7.420 -2.7501  1.5603 -1.8924
   93SAPS  C216 9145   1.923  -0.155   7.493  0.2709  0.2173 -0.0031
   93SAPS  H16R 9146   1.886  -0.152   7.389 -1.1081  0.1044  0.4571
   93SAPS  H16S 9147   1.928  -0.051   7.531 -0.6418 -0.7094  3.0255
   93SAPS  C217 9148   1.810  -0.213   7.581 -0.4144 -0.1202 -0.7206
   93SAPS  H17R 9149   1.785  -0.307   7.528 -3.0258 -0.3935  0.8119
   93SAPS  H17S 9150   1.720  -0.148   7.584 -1.7635 -1.9189  0.8897
   93SAPS  C218 9151   1.855  -0.251   7.726  0.2300  0.8899 -0.7497
   93SAPS  H18R 9152   1.902  -0.171   7.787 -0.4449  0.3231  0.5578
   93SAPS  H18S 9153   1.930  -0.333   7.716  0.3627  1.0844 -1.4196
   93SAPS  C219 9154   1.738  -0.305   7.803 -0.1098  1.0892 -0.5268
   93SAPS  H19R 9155   1.708  -0.395   7.745 -0.0806  1.5018 -1.2003
   93SAPS  H19S 9156   1.654  -0.232   7.801  0.7280  2.1314  0.6654
   93SAPS  C220 9157   1.772  -0.341   7.948  0.7551 -0.3392  0.0196
   93SAPS  H20R 9158   1.676  -0.379   7.989 -1.9768  0.2219 -5.0010
   93SAPS  H20S 9159   1.812  -0.252   8.001 -0.2790  1.9034 -2.7081
   93SAPS  H20T 9160   1.844  -0.425   7.954  0.9441 -0.0569  2.5977
   93SAPS   C33 9161   2.383  -0.443   7.312  1.1408 -0.2353 -0.4059
   93SAPS   H3X 9162   2.399  -0.333   7.316 -1.5731  0.1834  1.6107
   93SAPS   H3Y 9163   2.463  -0.486   7.248  0.4696 -1.8934 -0.1840
   93SAPS   C34 9164   2.371  -0.488   7.456 -0.0822  1.2478 -1.2459
   93SAPS   H4X 9165   2.378  -0.599   7.447  0.3992  1.3434 -2.1905
   93SAPS   H4Y 9166   2.271  -0.463   7.498 -0.3696 -1.6716  0.0619
   93SAPS   C35 9167   2.492  -0.451   7.544 -0.8832 -0.2407  0.5047
   93SAPS   H5X 9168   2.503  -0.341   7.533 -2.3070 -0.2958 -2.8455
   93SAPS   H5Y 9169   2.585  -0.506   7.517 -0.8405  0.0199  0.1189
   93SAPS   C36 9170   2.460  -0.474   7.693  0.4210  0.0936 -0.1658
   93SAPS   H6X 9171   2.392  -0.562   7.691  0.6683 -0.1110 -2.7317
   93SAPS   H6Y 9172   2.394  -0.387   7.712  1.5421  2.1408 -4.5194
   93SAPS   C37 9173   2.586  -0.477   7.781 -0.2781 -0.0157  0.5486
   93SAPS   H7X 9174   2.644  -0.385   7.758 -1.2311  0.3473 -0.4846
   93SAPS   H7Y 9175   2.644  -0.570   7.764 -0.6219 -0.3522  1.2051
   93SAPS   C38 9176   2.556  -0.481   7.933 -0.3511 -0.0695  0.3811
   93SAPS   H8X 9177   2.656  -0.502   7.978 -0.0890  0.0647 -0.1393
   93SAPS   H8Y 9178   2.475  -0.554   7.954 -3.0422  2.9789  1.4076
   93SAPS   C39 9179   2.511  -0.349   7.990 -0.0587 -0.2043 -0.4094
   93SAPS   H9X 9180   2.431  -0.301   7.930  0.1388 -1.1041 -1.4239
   93SAPS   H9Y 9181   2.593  -0.274   7.980  2.3518 -2.6199 -0.0274
   93SAPS  C310 9182   2.479  -0.351   8.142 -0.6041  0.6939 -0.0266
   93SAPS  H10X 9183   2.498  -0.254   8.193 -0.1968  0.9407 -0.6413
   93SAPS  H10Y 9184   2.559  -0.420   8.176 -0.2092  0.4211 -1.4305
   93SAPS  C311 9185   2.335  -0.406   8.171 -0.2044 -0.6154 -0.0802
   93SAPS  H11X 9186   2.332  -0.425   8.280 -2.1011  1.4922  0.3141
   93SAPS  H11Y 9187   2.311  -0.501   8.119 -1.6036 -0.5552  0.4147
   93SAPS  C312 9188   2.220  -0.313   8.144 -0.5919  0.1457  0.6181
   93SAPS  H12X 9189   2.128  -0.374   8.161  0.4819 -1.2507  1.6200
   93SAPS  H12Y 9190   2.228  -0.276   8.039  1.9988  1.3455  1.1648
   93SAPS  C313 9191   2.221  -0.197   8.245 -0.1003  0.0857 -0.2481
   93SAPS  H13X 9192   2.178  -0.108   8.194 -1.3138  0.5216  1.4633
   93SAPS  H13Y 9193   2.328  -0.178   8.268 -0.3474  1.9068 -0.4742
   93SAPS  C314 9194   2.166  -0.226   8.382  0.7753  0.0416  0.1479
   93SAPS  H14X 9195   2.192  -0.332   8.403 -0.1102 -0.2161 -0.0062
   93SAPS  H14Y 9196   2.055  -0.222   8.388  0.6163  0.5123 -2.1346
   93SAPS  C315 9197   2.209  -0.135   8.501 -0.8350 -0.4166  0.5403
   93SAPS  H15X 9198   2.317  -0.161   8.505 -0.7681 -0.0944  0.8401
   93SAPS  H15Y 9199   2.152  -0.160   8.593 -0.5636 -1.4286  0.4457
   93SAPS  C316 9200   2.192   0.011   8.474  0.3961 -0.3872  0.9422
   93SAPS  H16X 9201   2.085   0.042   8.478  0.7583  0.9177  1.1704
   93SAPS  H16Y 9202   2.239   0.042   8.378  0.5681  1.8624  1.6945
   93SAPS  C317 9203   2.265   0.109   8.574  0.3429 -0.0560  0.0316
   93SAPS  H17X 9204   2.375   0.094   8.584  0.5697  2.4403  2.3111
   93SAPS  H17Y 9205   2.227   0.078   8.673 -1.8959  0.2137 -0.6919
   93SAPS  C318 9206   2.233   0.253   8.569  0.2944  0.0322 -0.1622
   93SAPS  H18X 9207   2.265   0.295   8.667 -0.4417  1.0865 -0.3584
   93SAPS  H18Y 9208   2.125   0.274   8.556  0.1717 -0.1377  0.5078
   93SAPS  H18Z 9209   2.292   0.308   8.493  1.9411  0.3305  1.2686
   94SAPS     N 9210   2.950   1.677   5.722  0.3799 -1.3214 -0.1274
   94SAPS   HN1 9211   2.989   1.729   5.804 -3.6125  0.8681  0.6175
   94SAPS   HN2 9212   2.999   1.707   5.635 -1.7897  0.2389 -0.8951
   94SAPS   HN3 9213   2.851   1.707   5.723  1.2681  2.0752  0.3291
   94SAPS   C12 9214   2.958   1.538   5.735  0.5292 -0.1609  0.0294
   94SAPS  H12A 9215   2.905   1.498   5.650 -0.8624 -0.8280  1.1564
   94SAPS   C13 9216   3.104   1.476   5.729 -0.2623 -0.8774  0.1256
   94SAPS  O13A 9217   3.202   1.556   5.703  0.8843  0.3370  0.3440
   94SAPS  O13B 9218   3.114   1.363   5.778 -0.0905  0.6503 -1.3086
   94SAPS   C11 9219   2.890   1.488   5.872 -0.7394 -0.2825  0.1566
   94SAPS  H11A 9220   2.958   1.496   5.960  0.1006 -1.9808 -0.2962
   94SAPS  H11B 9221   2.871   1.379   5.863 -0.1576 -0.2979 -1.0291
   94SAPS     P 9222   2.685   1.503   6.025 -0.0304 -0.6561 -0.1386
   94SAPS   O13 9223   2.574   1.598   6.044  0.2870  0.1784  0.0453
   94SAPS   O14 9224   2.651   1.365   5.991 -0.0583 -0.3543  0.2268
   94SAPS   O12 9225   2.770   1.559   5.901 -0.0579 -0.1051 -0.6976
   94SAPS   O11 9226   2.780   1.511   6.146 -0.4206 -0.1602  0.3147
   94SAPS    C1 9227   2.806   1.399   6.232  0.2136 -0.2801 -0.4428
   94SAPS    HA 9228   2.820   1.306   6.173  0.9441 -0.6085  0.2299
   94SAPS    HB 9229   2.901   1.413   6.288 -0.7683  2.0437  0.7663
   94SAPS    C2 9230   2.692   1.378   6.331  0.2138 -0.1292  0.1731
   94SAPS    HS 9231   2.596   1.365   6.275  0.0660 -2.6092  0.8947
   94SAPS   O21 9232   2.691   1.496   6.423  0.2107  0.1516  0.3225
   94SAPS   C21 9233   2.594   1.500   6.507  0.0154  0.0369  0.6115
   94SAPS   O22 9234   2.497   1.422   6.512  0.1167  0.0909  0.3985
   94SAPS   C22 9235   2.606   1.620   6.600 -0.4649 -0.8663  0.1742
   94SAPS   H2R 9236   2.705   1.612   6.650  0.1099  1.1209 -0.5752
   94SAPS   H2S 9237   2.601   1.708   6.533  1.3439 -1.3952 -0.7274
   94SAPS    C3 9238   2.704   1.242   6.415 -0.5747  0.0964 -0.5648
   94SAPS    HX 9239   2.689   1.155   6.347  2.6728 -0.8702 -0.1901
   94SAPS    HY 9240   2.624   1.236   6.492  0.2623 -0.5755  0.2725
   94SAPS   O31 9241   2.829   1.218   6.481 -0.4360  0.2583 -0.2142
   94SAPS   C31 9242   2.860   1.276   6.598  0.1247  0.1266  0.2496
   94SAPS   O32 9243   2.785   1.320   6.683  0.1649 -0.1819 -0.1711
   94SAPS   C32 9244   3.020   1.262   6.607  0.1903 -0.5174  0.0000
   94SAPS   H2X 9245   3.055   1.366   6.626  0.9754 -0.7793  0.0407
   94SAPS   H2Y 9246   3.060   1.221   6.512 -1.5178  0.0522 -0.9859
   94SAPS   C23 9247   2.489   1.629   6.708 -0.1143 -0.8725  0.1404
   94SAPS   H3R 9248   2.396   1.625   6.648 -0.5664 -1.5483  0.8744
   94SAPS   H3S 9249   2.491   1.728   6.759  1.5015 -1.4063  1.2095
   94SAPS   C24 9250   2.505   1.526   6.821 -0.1757 -0.3966  0.0336
   94SAPS   H4R 9251   2.511   1.425   6.774 -1.1927 -1.8088  2.7302
   94SAPS   H4S 9252   2.417   1.510   6.887 -0.4179  0.0088 -0.1854
   94SAPS   C25 9253   2.630   1.540   6.900 -0.3227 -0.1279 -0.6754
   94SAPS   H5R 9254   2.719   1.505   6.847  1.6185  0.7059  1.8106
   94SAPS   C26 9255   2.632   1.599   7.021 -0.4431  0.5293  0.4479
   94SAPS   H6R 9256   2.731   1.589   7.068  0.2611 -2.7553 -1.4307
   94SAPS   C27 9257   2.530   1.663   7.111 -0.6910  0.4426  0.3512
   94SAPS   H7R 9258   2.434   1.675   7.056  0.0285  1.1192 -0.7906
   94SAPS   H7S 9259   2.556   1.768   7.138  2.4670  0.2114 -1.3758
   94SAPS   C28 9260   2.502   1.577   7.231  0.0598  1.0212  0.0936
   94SAPS   H8R 9261   2.437   1.494   7.201  0.8713  0.4129 -0.0341
   94SAPS   C29 9262   2.540   1.608   7.356 -0.0419  0.0716 -0.3353
   94SAPS   H9R 9263   2.510   1.536   7.433  0.6875 -2.1798 -2.0335
   94SAPS  C210 9264   2.622   1.728   7.395 -0.9807  0.0732 -0.2782
   94SAPS  H10R 9265   2.676   1.774   7.310 -2.0348  1.9410 -0.0085
   94SAPS  H10S 9266   2.696   1.687   7.468 -0.3573 -0.7893 -1.3708
   94SAPS  C211 9267   2.536   1.836   7.466 -0.6012  0.2134  0.2936
   94SAPS  H11R 9268   2.489   1.903   7.393  3.4216  1.8949 -1.0784
   94SAPS  C212 9269   2.518   1.856   7.601 -0.3291 -0.1168 -0.4415
   94SAPS  H12R 9270   2.444   1.926   7.642 -1.4128  0.6506 -3.5022
   94SAPS  C213 9271   2.578   1.758   7.699 -0.0471  0.6705  0.3526
   94SAPS  H13R 9272   2.679   1.789   7.735  0.2720 -0.5239  0.5211
   94SAPS  H13S 9273   2.590   1.664   7.641 -0.4106  1.3484 -0.8386
   94SAPS  C214 9274   2.488   1.713   7.810 -0.1286 -0.7205 -0.1556
   94SAPS  H14R 9275   2.389   1.681   7.773  0.4544  0.0585 -2.5962
   94SAPS  C215 9276   2.509   1.720   7.942 -0.5542 -0.1052 -0.1346
   94SAPS  H15R 9277   2.427   1.680   8.002 -1.7357  1.0254 -0.9424
   94SAPS  C216 9278   2.634   1.763   8.015 -0.6488  0.0452 -0.1358
   94SAPS  H16R 9279   2.705   1.801   7.939 -0.2828 -0.2061  0.0799
   94SAPS  H16S 9280   2.681   1.680   8.073 -2.8718 -1.8890 -0.9559
   94SAPS  C217 9281   2.608   1.884   8.116 -0.1355 -0.2979 -0.6819
   94SAPS  H17R 9282   2.545   1.961   8.067 -0.5960  1.1237  1.9523
   94SAPS  H17S 9283   2.707   1.930   8.132 -1.3432  2.4625 -0.5265
   94SAPS  C218 9284   2.550   1.831   8.245  0.0510 -0.9555 -0.2751
   94SAPS  H18R 9285   2.599   1.735   8.273  1.8532 -0.1576 -0.5314
   94SAPS  H18S 9286   2.441   1.809   8.236 -0.4251  1.1120 -0.1071
   94SAPS  C219 9287   2.566   1.935   8.356 -0.5720 -1.2393  0.2760
   94SAPS  H19R 9288   2.534   2.034   8.317  0.5512 -0.8219  0.3765
   94SAPS  H19S 9289   2.674   1.945   8.378 -0.9343  0.4076  1.4931
   94SAPS  C220 9290   2.490   1.899   8.483 -0.2942 -0.1029 -0.5719
   94SAPS  H20R 9291   2.492   1.985   8.553  2.3979 -1.3496  1.0463
   94SAPS  H20S 9292   2.546   1.811   8.520 -1.4504 -1.3972 -1.7484
   94SAPS  H20T 9293   2.392   1.853   8.456 -0.0892 -0.6565 -0.3875
   94SAPS   C33 9294   3.070   1.171   6.722 -0.3504 -0.5351 -0.0504
   94SAPS   H3X 9295   3.181   1.172   6.720 -0.3668 -0.2177 -1.1747
   94SAPS   H3Y 9296   3.033   1.067   6.723 -0.8226 -0.3693  0.1168
   94SAPS   C34 9297   3.026   1.206   6.862 -0.1749 -0.0107 -0.7085
   94SAPS   H4X 9298   3.054   1.128   6.936  0.3088  0.3740 -0.4740
   94SAPS   H4Y 9299   2.916   1.225   6.864 -0.3354 -0.8593 -1.1899
   94SAPS   C35 9300   3.098   1.330   6.922 -0.3063  0.2817  0.2734
   94SAPS   H5X 9301   3.107   1.410   6.846 -2.2324  0.2873 -0.0059
   94SAPS   H5Y 9302   3.202   1.307   6.952  0.9817 -0.3471 -4.0865
   94SAPS   C36 9303   3.024   1.398   7.046 -0.6696 -0.2200  0.6788
   94SAPS   H6X 9304   2.928   1.424   6.996 -1.5440 -1.6538  1.5469
   94SAPS   H6Y 9305   3.079   1.483   7.093  0.1106 -0.0501 -0.4903
   94SAPS   C37 9306   2.993   1.313   7.169 -0.1371  0.6674  0.4428
   94SAPS   H7X 9307   3.094   1.288   7.210  1.0452 -0.4354 -2.7897
   94SAPS   H7Y 9308   2.946   1.214   7.152  2.1753 -0.7908  1.9468
   94SAPS   C38 9309   2.925   1.392   7.281 -0.4435 -0.0164  0.1558
   94SAPS   H8X 9310   2.832   1.444   7.250  0.7323  2.6820  0.8406
   94SAPS   H8Y 9311   3.001   1.471   7.302  1.4207 -1.0206 -2.3483
   94SAPS   C39 9312   2.886   1.295   7.398 -0.6626 -1.2100 -0.8013
   94SAPS   H9X 9313   2.970   1.226   7.420  1.0790  1.3789  1.2309
   94SAPS   H9Y 9314   2.789   1.252   7.364 -0.7770 -0.4362 -1.4818
   94SAPS  C310 9315   2.859   1.369   7.530 -0.3678 -0.3764 -0.5170
   94SAPS  H10X 9316   2.814   1.294   7.599 -0.2589 -1.1598 -1.2868
   94SAPS  H10Y 9317   2.785   1.452   7.526  0.2585  0.2074 -0.2491
   94SAPS  C311 9318   2.984   1.415   7.609  0.4013  0.1710  0.6900
   94SAPS  H11X 9319   3.047   1.483   7.549  1.6775 -1.1525  0.4757
   94SAPS  H11Y 9320   3.046   1.324   7.621 -0.9577 -0.9373 -0.3224
   94SAPS  C312 9321   2.956   1.480   7.752  0.3537  0.6003  0.1107
   94SAPS  H12X 9322   2.873   1.554   7.744 -0.0766  0.0349 -0.8465
   94SAPS  H12Y 9323   3.046   1.537   7.780  0.3413  0.1802  1.0695
   94SAPS  C313 9324   2.927   1.377   7.863 -0.2437 -1.2128  0.9413
   94SAPS  H13X 9325   3.027   1.338   7.889 -0.4200 -1.6606  0.9515
   94SAPS  H13Y 9326   2.861   1.298   7.821 -0.5241 -0.5201  0.0501
   94SAPS  C314 9327   2.856   1.446   7.986  0.4632 -0.7480  0.4774
   94SAPS  H14X 9328   2.747   1.443   7.965  0.5553  1.6071 -0.7090
   94SAPS  H14Y 9329   2.887   1.553   7.984 -4.0669  0.7638 -1.1455
   94SAPS  C315 9330   2.880   1.388   8.122 -0.5076  0.1158  0.2459
   94SAPS  H15X 9331   2.991   1.385   8.133 -0.4986  2.2639  1.1100
   94SAPS  H15Y 9332   2.844   1.283   8.113 -0.5656  0.2850 -2.5386
   94SAPS  C316 9333   2.822   1.469   8.234  1.0222 -0.0202  0.1209
   94SAPS  H16X 9334   2.715   1.489   8.213  0.9163 -1.0390 -0.3576
   94SAPS  H16Y 9335   2.881   1.563   8.241  1.2430 -0.0292 -1.3362
   94SAPS  C317 9336   2.826   1.382   8.359  0.1832  0.7649  0.2562
   94SAPS  H17X 9337   2.909   1.308   8.365 -1.2398 -1.0432 -1.1657
   94SAPS  H17Y 9338   2.742   1.310   8.353  1.7290 -1.1707  0.7970
   94SAPS  C318 9339   2.822   1.473   8.482 -0.2611  0.6565 -0.0145
   94SAPS  H18X 9340   2.747   1.554   8.467 -1.8854 -0.9241 -0.7356
   94SAPS  H18Y 9341   2.923   1.516   8.500  0.1240 -1.3835  3.7039
   94SAPS  H18Z 9342   2.793   1.414   8.572 -1.2316  0.2031 -0.6094
   95SAPS     N 9343   5.851   6.267   6.245 -0.7334 -0.6872  0.0879
   95SAPS   HN1 9344   5.947   6.304   6.227 -0.5358 -0.9832  0.5196
   95SAPS   HN2 9345   5.785   6.341   6.215 -0.7599 -0.1328  1.4823
   95SAPS   HN3 9346   5.843   6.254   6.347  1.5864  1.4773  0.6489
   95SAPS   C12 9347   5.846   6.146   6.157  0.2419  0.4917 -0.1355
   95SAPS  H12A 9348   5.786   6.071   6.206  0.1897  0.1491 -0.7207
   95SAPS   C13 9349   5.792   6.185   6.021 -0.1809 -0.3742 -0.1358
   95SAPS  O13A 9350   5.783   6.306   5.989 -0.2102 -0.0374  0.1176
   95SAPS  O13B 9351   5.778   6.098   5.932 -0.4894 -0.6594  0.5015
   95SAPS   C11 9352   5.989   6.088   6.140  1.1688  0.3620 -0.5492
   95SAPS  H11A 9353   6.058   6.153   6.082  1.4651  1.1438  0.6308
   95SAPS  H11B 9354   5.968   6.006   6.069 -0.3268 -0.6489  0.9724
   95SAPS     P 9355   5.993   5.902   6.335  0.0060 -0.3341  0.0529
   95SAPS   O13 9356   5.871   5.852   6.274  0.2813  0.0475 -0.1018
   95SAPS   O14 9357   6.110   5.814   6.350  0.3168 -0.6153  0.0753
   95SAPS   O12 9358   6.032   6.046   6.274  0.3937 -0.4011  0.1928
   95SAPS   O11 9359   5.949   5.950   6.478  0.8508  0.3322  0.1132
   95SAPS    C1 9360   5.927   5.839   6.578 -0.0476 -0.0240 -0.5274
   95SAPS    HA 9361   5.829   5.857   6.626 -0.8122 -1.3651 -1.5176
   95SAPS    HB 9362   5.915   5.738   6.533 -0.1956 -1.6146  2.7683
   95SAPS    C2 9363   6.040   5.818   6.689 -0.1056  0.9898 -0.2168
   95SAPS    HS 9364   5.997   5.739   6.754  0.3693 -1.2097 -2.4290
   95SAPS   O21 9365   6.049   5.935   6.768 -0.2502  0.1335 -0.5608
   95SAPS   C21 9366   5.935   5.960   6.838 -0.3780 -0.1724 -0.5095
   95SAPS   O22 9367   5.850   5.876   6.860 -0.3873  0.5358 -0.2314
   95SAPS   C22 9368   5.933   6.100   6.898 -0.0740  0.1387  0.6088
   95SAPS   H2R 9369   5.905   6.165   6.813 -1.1501  0.1745  0.9827
   95SAPS   H2S 9370   5.859   6.100   6.981  0.0821 -0.0941  0.7512
   95SAPS    C3 9371   6.184   5.780   6.637  1.2060  0.5702 -0.3796
   95SAPS    HX 9372   6.208   5.874   6.583 -0.4837  1.8207  0.9273
   95SAPS    HY 9373   6.191   5.701   6.559  2.7538  1.1405 -0.8453
   95SAPS   O31 9374   6.278   5.765   6.741 -0.2553  0.7395 -0.3134
   95SAPS   C31 9375   6.258   5.660   6.818  0.3782 -0.3024  0.2982
   95SAPS   O32 9376   6.168   5.577   6.811  0.4805 -0.3815  0.3307
   95SAPS   C32 9377   6.375   5.668   6.915 -0.3981 -0.7017  0.2809
   95SAPS   H2X 9378   6.368   5.760   6.977 -1.7296 -1.2052  0.9104
   95SAPS   H2Y 9379   6.471   5.666   6.859 -0.0025 -1.3347  0.9659
   95SAPS   C23 9380   6.071   6.137   6.953  0.4273 -0.0816 -0.0071
   95SAPS   H3R 9381   6.052   6.236   7.000  0.2184 -0.0255 -0.2116
   95SAPS   H3S 9382   6.161   6.152   6.890 -0.3542  0.1462 -1.0980
   95SAPS   C24 9383   6.117   6.042   7.068  0.2954 -0.4478 -0.5389
   95SAPS   H4R 9384   6.162   5.949   7.026  2.9468  1.5602 -2.4964
   95SAPS   H4S 9385   6.027   6.017   7.128  0.5453  0.5779  0.3008
   95SAPS   C25 9386   6.222   6.104   7.155  0.5020 -0.2059  0.2566
   95SAPS   H5R 9387   6.305   6.137   7.090 -1.5444  0.4843 -2.1666
   95SAPS   C26 9388   6.217   6.122   7.289 -0.7066 -0.1947 -0.1158
   95SAPS   H6R 9389   6.307   6.153   7.344  1.9964 -4.5496 -1.5298
   95SAPS   C27 9390   6.105   6.076   7.379 -0.5732 -0.5403 -0.1582
   95SAPS   H7R 9391   6.002   6.080   7.340 -1.4859  0.3827  2.1592
   95SAPS   H7S 9392   6.102   6.145   7.466 -0.9760 -0.6546 -0.0825
   95SAPS   C28 9393   6.122   5.928   7.411  0.3184 -0.3556  0.8974
   95SAPS   H8R 9394   6.111   5.855   7.330  1.5119 -0.5326  0.8657
   95SAPS   C29 9395   6.168   5.892   7.537  0.2287  1.0032  0.3661
   95SAPS   H9R 9396   6.168   5.783   7.552 -0.6009  0.7082 -1.4786
   95SAPS  C210 9397   6.194   5.983   7.652  0.0143 -0.3087  0.5132
   95SAPS  H10R 9398   6.091   6.003   7.689 -0.0487  0.1472  0.1048
   95SAPS  H10S 9399   6.219   6.084   7.614 -1.8814 -0.1156 -0.3760
   95SAPS  C211 9400   6.293   5.928   7.747  0.0491  0.0950 -1.0293
   95SAPS  H11R 9401   6.396   5.918   7.710 -0.2377 -2.1773 -1.3417
   95SAPS  C212 9402   6.277   5.887   7.874  0.1121  0.3957  0.2087
   95SAPS  H12R 9403   6.360   5.841   7.930 -1.5547 -1.4074  1.3825
   95SAPS  C213 9404   6.146   5.891   7.954  0.3437  0.2247  0.3873
   95SAPS  H13R 9405   6.072   5.817   7.917 -1.2097  1.1718  1.5196
   95SAPS  H13S 9406   6.104   5.993   7.946  1.3457  0.6029 -0.3424
   95SAPS  C214 9407   6.168   5.855   8.098 -0.1807 -0.0494 -0.4421
   95SAPS  H14R 9408   6.259   5.795   8.112  0.1089  0.9119  2.3808
   95SAPS  C215 9409   6.101   5.888   8.208 -0.2372 -0.1054  0.3817
   95SAPS  H15R 9410   6.126   5.854   8.310  0.5253  0.9913  0.5722
   95SAPS  C216 9411   5.994   5.991   8.204  0.4655 -0.0282 -0.5193
   95SAPS  H16R 9412   5.896   5.957   8.164 -0.7581  0.1301  2.1075
   95SAPS  H16S 9413   6.023   6.085   8.154 -0.5452 -0.2871 -1.6331
   95SAPS  C217 9414   5.941   6.018   8.351 -0.0672 -0.3158 -0.0698
   95SAPS  H17R 9415   6.028   6.051   8.410 -0.8155  1.0081  0.3388
   95SAPS  H17S 9416   5.898   5.925   8.395  0.4309 -1.3461 -1.6457
   95SAPS  C218 9417   5.835   6.130   8.353 -0.6683 -0.1132 -0.3234
   95SAPS  H18R 9418   5.750   6.093   8.291 -1.3071  1.0062 -0.1379
   95SAPS  H18S 9419   5.859   6.226   8.303 -1.0847 -0.3311 -0.9505
   95SAPS  C219 9420   5.798   6.166   8.502 -0.2909  0.2264  0.4087
   95SAPS  H19R 9421   5.885   6.207   8.559 -0.2246 -0.5314  0.8609
   95SAPS  H19S 9422   5.752   6.084   8.560  0.9709 -1.5516 -0.9822
   95SAPS  C220 9423   5.700   6.280   8.514  0.5845 -0.1459 -0.0566
   95SAPS  H20R 9424   5.612   6.273   8.446 -0.2024 -0.9006  0.9836
   95SAPS  H20S 9425   5.750   6.374   8.485 -1.7149  1.1218 -0.1938
   95SAPS  H20T 9426   5.653   6.277   8.615  1.7066  0.8914  0.5224
   95SAPS   C33 9427   6.400   5.549   7.006  0.5460  0.8734  0.1940
   95SAPS   H3X 9428   6.441   5.465   6.946  0.8199 -1.1653  3.0221
   95SAPS   H3Y 9429   6.307   5.513   7.055  0.2835  0.1835 -0.7729
   95SAPS   C34 9430   6.502   5.574   7.107  0.0100 -0.1376  0.5391
   95SAPS   H4X 9431   6.481   5.668   7.162 -1.7928 -0.2302  0.0966
   95SAPS   H4Y 9432   6.599   5.584   7.054  0.3092 -5.4132 -0.4358
   95SAPS   C35 9433   6.510   5.450   7.199 -0.0751 -0.0855 -0.2705
   95SAPS   H5X 9434   6.615   5.434   7.233  0.6148 -0.1524 -2.2575
   95SAPS   H5Y 9435   6.479   5.356   7.148  0.7988 -0.6181  0.1570
   95SAPS   C36 9436   6.435   5.486   7.333  0.7954  0.4565  0.1581
   95SAPS   H6X 9437   6.327   5.469   7.314  0.8826  1.3586 -1.2914
   95SAPS   H6Y 9438   6.435   5.592   7.365 -0.2438 -0.3008  3.0521
   95SAPS   C37 9439   6.465   5.401   7.457  0.1960 -0.6731  0.0296
   95SAPS   H7X 9440   6.561   5.431   7.504 -0.3324 -0.0088  0.7091
   95SAPS   H7Y 9441   6.479   5.297   7.420  2.0214  0.1440 -1.7018
   95SAPS   C38 9442   6.344   5.398   7.552  0.1342  0.4211  0.6119
   95SAPS   H8X 9443   6.362   5.324   7.633  0.2483 -0.3770 -0.1278
   95SAPS   H8Y 9444   6.244   5.393   7.505  0.9617 -0.4971 -1.1882
   95SAPS   C39 9445   6.332   5.526   7.639 -0.2405 -0.2784  0.9333
   95SAPS   H9X 9446   6.245   5.527   7.708 -0.5288 -0.8796  0.5865
   95SAPS   H9Y 9447   6.314   5.611   7.569  0.6920 -2.1563 -1.7910
   95SAPS  C310 9448   6.458   5.545   7.733 -0.3983 -0.5048 -0.1616
   95SAPS  H10X 9449   6.458   5.655   7.753 -0.9995 -0.6837  0.8838
   95SAPS  H10Y 9450   6.553   5.535   7.675 -0.0034  0.7615  0.2270
   95SAPS  C311 9451   6.470   5.462   7.864 -0.2779  0.8526  0.1066
   95SAPS  H11X 9452   6.575   5.429   7.881 -0.5745  0.5469  1.4123
   95SAPS  H11Y 9453   6.421   5.367   7.834  2.7676 -0.8186 -0.0476
   95SAPS  C312 9454   6.408   5.523   7.985 -0.3322  0.1825 -0.0222
   95SAPS  H12X 9455   6.312   5.564   7.947 -0.1651  0.3914 -0.2219
   95SAPS  H12Y 9456   6.472   5.611   8.010  0.6228 -0.2938 -0.7253
   95SAPS  C313 9457   6.398   5.421   8.105 -0.0812 -0.4612 -0.0640
   95SAPS  H13X 9458   6.340   5.334   8.066 -0.0982 -0.0067 -1.0700
   95SAPS  H13Y 9459   6.330   5.470   8.178 -0.1086  0.2813 -0.5769
   95SAPS  C314 9460   6.530   5.371   8.163  0.5701 -0.2235  0.0507
   95SAPS  H14X 9461   6.582   5.468   8.181  1.0574 -0.1856 -1.3922
   95SAPS  H14Y 9462   6.599   5.323   8.090  0.1210 -0.4749 -0.2094
   95SAPS  C315 9463   6.531   5.296   8.290  0.5667  1.1431  0.3856
   95SAPS  H15X 9464   6.470   5.204   8.286  3.5715 -0.9782 -1.1314
   95SAPS  H15Y 9465   6.494   5.353   8.377 -2.7207  0.6571 -0.5622
   95SAPS  C316 9466   6.677   5.246   8.320 -0.3655 -0.0103  0.9322
   95SAPS  H16X 9467   6.722   5.345   8.342  1.3352 -0.2940 -1.0072
   95SAPS  H16Y 9468   6.726   5.216   8.225 -0.2206  0.9261  0.7034
   95SAPS  C317 9469   6.677   5.133   8.431 -0.2375 -0.1598 -0.3383
   95SAPS  H17X 9470   6.779   5.091   8.422 -0.1094 -0.0646  0.5570
   95SAPS  H17Y 9471   6.605   5.059   8.390 -0.0017  0.8825 -2.7679
   95SAPS  C318 9472   6.645   5.182   8.578 -0.0765  0.5718  0.9238
   95SAPS  H18X 9473   6.650   5.095   8.647  0.1616  0.2355  0.4921
   95SAPS  H18Y 9474   6.544   5.226   8.584 -0.1867  0.3823  0.4982
   95SAPS  H18Z 9475   6.724   5.249   8.618  0.4071  0.3543  0.3489
   96SAPS     N 9476   5.791   0.254   6.180 -0.1132  0.3562  0.5943
   96SAPS   HN1 9477   5.703   0.308   6.194 -0.5000  0.0299 -0.4873
   96SAPS   HN2 9478   5.770   0.162   6.138 -3.4763 -0.0762  2.8108
   96SAPS   HN3 9479   5.833   0.243   6.275  1.4390 -2.7407 -0.3193
   96SAPS   C12 9480   5.888   0.327   6.088 -0.5937  0.7740 -0.7523
   96SAPS  H12A 9481   5.987   0.285   6.090  0.2100  2.5403 -1.4998
   96SAPS   C13 9482   5.844   0.344   5.945  0.1588  0.3065 -0.5250
   96SAPS  O13A 9483   5.768   0.264   5.891  0.1415  0.3230  0.1213
   96SAPS  O13B 9484   5.914   0.418   5.867 -0.6364 -0.0580 -0.2056
   96SAPS   C11 9485   5.892   0.473   6.139  0.1649  0.0991  0.8432
   96SAPS  H11A 9486   5.787   0.508   6.143  0.4028  0.7475  1.5726
   96SAPS  H11B 9487   5.932   0.549   6.069  0.8985  0.2454  1.4172
   96SAPS     P 9488   5.882   0.540   6.397  0.2412 -0.3237 -0.1741
   96SAPS   O13 9489   5.806   0.656   6.344  0.0852 -0.0759 -0.2218
   96SAPS   O14 9490   5.806   0.427   6.452  0.0517  0.4847 -0.6283
   96SAPS   O12 9491   5.958   0.481   6.266 -0.2943 -0.0017 -0.4315
   96SAPS   O11 9492   6.009   0.592   6.482 -0.0079  0.5811  0.2741
   96SAPS    C1 9493   6.128   0.516   6.510  0.4657 -0.4368  0.9566
   96SAPS    HA 9494   6.130   0.414   6.466 -0.7741  0.6373 -1.7954
   96SAPS    HB 9495   6.209   0.575   6.462  0.9453 -1.0869  0.9476
   96SAPS    C2 9496   6.145   0.521   6.673  0.1232 -0.2425  0.1705
   96SAPS    HS 9497   6.254   0.501   6.685  0.4105 -0.2068 -1.9586
   96SAPS   O21 9498   6.065   0.416   6.726  0.4070 -0.1268  0.5140
   96SAPS   C21 9499   6.129   0.359   6.831  0.2436 -0.1517  0.9390
   96SAPS   O22 9500   6.237   0.391   6.876 -0.0772  0.3695 -0.1894
   96SAPS   C22 9501   6.021   0.265   6.905  0.4781  0.0881 -0.3089
   96SAPS   H2R 9502   5.955   0.339   6.955 -2.1280 -2.0724 -0.3352
   96SAPS   H2S 9503   5.961   0.218   6.825 -2.5987 -0.1624  1.9690
   96SAPS    C3 9504   6.115   0.665   6.726  0.8015 -0.4870 -0.1915
   96SAPS    HX 9505   6.012   0.701   6.703  1.3951  2.3951  1.1153
   96SAPS    HY 9506   6.176   0.739   6.670 -0.5004  0.5571 -0.2878
   96SAPS   O31 9507   6.139   0.665   6.864 -0.0302 -0.4269  0.3986
   96SAPS   C31 9508   6.036   0.642   6.951  0.0708  0.4404  0.2066
   96SAPS   O32 9509   5.926   0.608   6.921  0.0792  0.2947 -0.2269
   96SAPS   C32 9510   6.094   0.665   7.091  0.3253 -0.4422  0.0554
   96SAPS   H2X 9511   6.199   0.633   7.074  0.3424  0.1249 -0.9704
   96SAPS   H2Y 9512   6.042   0.611   7.174 -0.9348 -2.1925 -1.7685
   96SAPS   C23 9513   6.085   0.169   7.004  0.1583  0.5152 -0.5406
   96SAPS   H3R 9514   6.167   0.223   7.056  0.1211  1.0561 -1.0360
   96SAPS   H3S 9515   6.117   0.075   6.955 -1.9899 -0.8429  0.5449
   96SAPS   C24 9516   5.999   0.114   7.118 -0.0870  0.7128  0.8794
   96SAPS   H4R 9517   6.054   0.037   7.176 -0.6817 -0.2546  0.1805
   96SAPS   H4S 9518   5.924   0.060   7.057  4.1119 -1.1322 -3.3124
   96SAPS   C25 9519   5.940   0.226   7.199 -0.5781  0.1205 -0.2925
   96SAPS   H5R 9520   5.883   0.304   7.145  0.0718  2.3692  2.0579
   96SAPS   C26 9521   5.964   0.241   7.333  0.1317 -0.4033  0.7745
   96SAPS   H6R 9522   5.931   0.335   7.381  1.3233  1.4922 -1.8937
   96SAPS   C27 9523   6.050   0.147   7.416 -0.0109 -0.5463  0.3783
   96SAPS   H7R 9524   6.032   0.044   7.378 -2.5851 -0.0978  0.2271
   96SAPS   H7S 9525   6.012   0.144   7.520 -1.2056 -0.2242 -0.0304
   96SAPS   C28 9526   6.198   0.182   7.401 -0.1326  0.7345 -0.1537
   96SAPS   H8R 9527   6.227   0.227   7.306 -2.9611  3.3844  0.0816
   96SAPS   C29 9528   6.294   0.168   7.495  0.4757  0.0933 -0.0846
   96SAPS   H9R 9529   6.395   0.203   7.470  1.4396 -0.5460  2.5762
   96SAPS  C210 9530   6.284   0.127   7.643 -0.2905  0.2217 -0.3131
   96SAPS  H10R 9531   6.190   0.068   7.650 -2.1644  2.7647 -2.3688
   96SAPS  H10S 9532   6.279   0.215   7.710  0.3329  1.0435 -1.3131
   96SAPS  C211 9533   6.399   0.044   7.687 -0.5447  0.8491  0.4086
   96SAPS  H11R 9534   6.470   0.013   7.608  0.8328  0.5169  1.7149
   96SAPS  C212 9535   6.437   0.029   7.811  0.0101  0.2180 -0.2168
   96SAPS  H12R 9536   6.525  -0.035   7.826 -0.5880 -0.6449 -0.3127
   96SAPS  C213 9537   6.382   0.099   7.936  0.0822  0.0224  0.3097
   96SAPS  H13R 9538   6.296   0.161   7.905 -0.0952 -0.3541  0.0449
   96SAPS  H13S 9539   6.454   0.162   7.993 -2.3652  1.0922  2.3992
   96SAPS  C214 9540   6.341  -0.016   8.026  0.3460  0.6991 -0.0639
   96SAPS  H14R 9541   6.280  -0.094   7.979 -1.2614  1.7824  0.1695
   96SAPS  C215 9542   6.373  -0.047   8.156  0.1076  0.1626  0.7529
   96SAPS  H15R 9543   6.343  -0.143   8.199 -1.9503  0.7321  0.6986
   96SAPS  C216 9544   6.455   0.048   8.235  0.0068  0.2590 -0.0659
   96SAPS  H16R 9545   6.393   0.108   8.304  0.3436  0.0620  0.4170
   96SAPS  H16S 9546   6.507   0.133   8.187  1.5069 -0.5473  0.0333
   96SAPS  C217 9547   6.564  -0.026   8.317 -0.4945 -0.1743 -0.6386
   96SAPS  H17R 9548   6.644  -0.069   8.252 -0.9355 -0.4873 -0.9814
   96SAPS  H17S 9549   6.512  -0.108   8.370 -2.0049  1.5403  0.6238
   96SAPS  C218 9550   6.634   0.058   8.426  0.4531  0.0933 -0.0071
   96SAPS  H18R 9551   6.694   0.135   8.374  0.2276  0.9015  0.8964
   96SAPS  H18S 9552   6.697  -0.008   8.490  1.0558  0.7800  0.1160
   96SAPS  C219 9553   6.547   0.141   8.510 -0.0219  0.8476 -0.3522
   96SAPS  H19R 9554   6.496   0.228   8.464 -1.1119  0.3250 -0.1729
   96SAPS  H19S 9555   6.616   0.176   8.590  1.3136 -0.4401 -0.8923
   96SAPS  C220 9556   6.434   0.065   8.579 -0.3877 -0.1385  0.4131
   96SAPS  H20R 9557   6.377   0.014   8.498 -3.5946  1.8828  1.1903
   96SAPS  H20S 9558   6.372   0.143   8.630  1.3109  1.5110  0.0512
   96SAPS  H20T 9559   6.474  -0.013   8.647 -2.6446 -1.6427  0.1285
   96SAPS   C33 9560   6.094   0.818   7.123  0.0461 -0.3699 -0.1347
   96SAPS   H3X 9561   5.991   0.860   7.115 -0.3324 -1.1983  0.2301
   96SAPS   H3Y 9562   6.170   0.873   7.065  0.6873  0.6468  1.5893
   96SAPS   C34 9563   6.125   0.847   7.269  0.4742 -0.4493 -0.4695
   96SAPS   H4X 9564   6.154   0.955   7.275 -0.9912 -0.0488 -0.1618
   96SAPS   H4Y 9565   6.222   0.800   7.298  0.6791 -0.2932 -0.8837
   96SAPS   C35 9566   6.016   0.818   7.377  0.7761 -0.0294 -0.4596
   96SAPS   H5X 9567   6.001   0.708   7.375 -0.8504  0.1708 -0.1091
   96SAPS   H5Y 9568   5.917   0.864   7.358  0.6952 -0.9898 -2.6387
   96SAPS   C36 9569   6.057   0.849   7.527 -0.4290 -0.2043 -0.0074
   96SAPS   H6X 9570   6.143   0.786   7.558 -1.2382 -2.7818 -2.5715
   96SAPS   H6Y 9571   5.975   0.804   7.587  0.1441 -1.9899 -0.4874
   96SAPS   C37 9572   6.059   0.992   7.574  0.3640  0.4081 -0.5961
   96SAPS   H7X 9573   5.953   1.017   7.553 -1.1386 -3.4011  1.5784
   96SAPS   H7Y 9574   6.131   1.053   7.513  1.2854 -0.0418  0.0234
   96SAPS   C38 9575   6.101   1.002   7.723  0.0910  0.0163 -0.0549
   96SAPS   H8X 9576   6.112   1.110   7.744  2.4397 -0.2502  0.4286
   96SAPS   H8Y 9577   6.204   0.959   7.719  0.3177  0.6422 -1.2228
   96SAPS   C39 9578   6.022   0.943   7.838  0.7532 -0.0327  0.3579
   96SAPS   H9X 9579   6.007   0.835   7.817 -1.1436  0.3806 -0.5761
   96SAPS   H9Y 9580   5.922   0.992   7.838 -0.1446 -1.7797 -0.1212
   96SAPS  C310 9581   6.079   0.938   7.982  0.5690 -0.0702 -0.7621
   96SAPS  H10X 9582   6.096   1.040   8.024  0.6545  0.3258 -1.7233
   96SAPS  H10Y 9583   6.182   0.897   7.974  0.6577 -0.4374  1.5286
   96SAPS  C311 9584   5.993   0.855   8.086 -0.3575 -0.2355 -0.0593
   96SAPS  H11X 9585   6.009   0.750   8.055  0.8308 -0.0914  0.0116
   96SAPS  H11Y 9586   5.891   0.891   8.063 -1.3344 -1.3567  2.2067
   96SAPS  C312 9587   6.027   0.864   8.236 -0.3788  0.4141 -0.1973
   96SAPS  H12X 9588   6.029   0.973   8.259 -0.9837  0.8327 -2.0340
   96SAPS  H12Y 9589   6.131   0.829   8.254  0.7104  3.3535 -0.2147
   96SAPS  C313 9590   5.920   0.791   8.317 -0.0529  0.1374  0.2657
   96SAPS  H13X 9591   5.934   0.682   8.304 -2.7509 -0.7304  3.3337
   96SAPS  H13Y 9592   5.825   0.817   8.266 -0.3481 -0.4071  0.5215
   96SAPS  C314 9593   5.935   0.821   8.473 -0.7145 -0.6766  0.2945
   96SAPS  H14X 9594   5.929   0.931   8.485 -3.2244 -0.4924 -1.6337
   96SAPS  H14Y 9595   6.036   0.785   8.499 -0.2902  0.7866  0.7530
   96SAPS  C315 9596   5.829   0.755   8.553 -0.7905 -0.2613 -0.0870
   96SAPS  H15X 9597   5.857   0.764   8.660 -1.8869  0.2551  0.1746
   96SAPS  H15Y 9598   5.832   0.644   8.559 -1.4238 -0.1991  2.9991
   96SAPS  C316 9599   5.687   0.805   8.523  0.2174  0.6180 -0.7835
   96SAPS  H16X 9600   5.656   0.762   8.425  0.9086 -1.8458  0.0026
   96SAPS  H16Y 9601   5.670   0.914   8.515 -3.2355  0.5151  2.1480
   96SAPS  C317 9602   5.579   0.763   8.623 -0.1838 -0.7443 -0.3692
   96SAPS  H17X 9603   5.598   0.794   8.728 -1.4105 -3.2301  0.6587
   96SAPS  H17Y 9604   5.602   0.658   8.651  5.2222  0.0032 -1.0757
   96SAPS  C318 9605   5.435   0.781   8.582  1.0733 -0.9827  0.2794
   96SAPS  H18X 9606   5.357   0.741   8.650  0.7593 -1.9441 -0.6078
   96SAPS  H18Y 9607   5.421   0.725   8.487  1.7302 -1.4615  0.4555
   96SAPS  H18Z 9608   5.404   0.887   8.577  2.8646 -0.3400  1.8411
   97SAPS     N 9609   1.113   6.350   6.586 -0.2385 -0.3343  0.0086
   97SAPS   HN1 9610   1.090   6.452   6.591 -2.5255 -0.5100 -3.4120
   97SAPS   HN2 9611   1.035   6.297   6.630 -0.0582 -0.3647  0.2871
   97SAPS   HN3 9612   1.204   6.331   6.633 -0.9411 -0.4714  1.3687
   97SAPS   C12 9613   1.106   6.299   6.448 -0.2224 -0.1872  0.4817
   97SAPS  H12A 9614   1.003   6.314   6.418 -0.3181  0.2604  1.0071
   97SAPS   C13 9615   1.205   6.370   6.351  0.5462  0.3169 -0.6666
   97SAPS  O13A 9616   1.283   6.461   6.390  0.6119 -0.3337 -0.2566
   97SAPS  O13B 9617   1.199   6.326   6.231  0.1943 -0.6200 -0.2027
   97SAPS   C11 9618   1.141   6.146   6.454  0.1798  0.6390 -0.4049
   97SAPS  H11A 9619   1.251   6.132   6.462  0.1774  0.6708 -0.3159
   97SAPS  H11B 9620   1.112   6.105   6.354 -1.2368 -0.4360  0.4181
   97SAPS     P 9621   1.087   5.919   6.575  0.1562  0.2203  0.3518
   97SAPS   O13 9622   0.960   5.841   6.572  0.6944  0.2843  1.1247
   97SAPS   O14 9623   1.196   5.870   6.495  0.5428  0.0630 -0.0823
   97SAPS   O12 9624   1.059   6.074   6.539 -0.8783 -0.4600 -0.4293
   97SAPS   O11 9625   1.142   5.923   6.718  0.3447 -0.0474 -0.6913
   97SAPS    C1 9626   1.118   6.044   6.793 -0.9804  0.2406 -0.4549
   97SAPS    HA 9627   1.192   6.118   6.757  0.7610  0.3952  3.0334
   97SAPS    HB 9628   1.012   6.078   6.799 -1.2857 -0.5157 -1.3682
   97SAPS    C2 9629   1.152   6.019   6.942 -0.1325 -0.3267  0.6104
   97SAPS    HS 9630   1.088   5.937   6.981  0.3623 -1.2353 -0.4361
   97SAPS   O21 9631   1.136   6.149   7.006  0.4528 -0.4483  0.1520
   97SAPS   C21 9632   1.102   6.142   7.134 -0.2208  0.4909 -0.1500
   97SAPS   O22 9633   1.059   6.046   7.196 -0.0815 -0.2623  0.2818
   97SAPS   C22 9634   1.126   6.278   7.198  0.0899 -0.1188 -0.1393
   97SAPS   H2R 9635   1.232   6.309   7.200  0.0457  0.0884  2.3259
   97SAPS   H2S 9636   1.064   6.345   7.134 -1.9723 -1.4095  0.4083
   97SAPS    C3 9637   1.296   5.970   6.965 -0.6196 -0.6424  1.1051
   97SAPS    HX 9638   1.365   6.047   6.926 -0.3330 -0.1827  2.4713
   97SAPS    HY 9639   1.317   5.889   6.893  1.2845  1.2887 -0.6393
   97SAPS   O31 9640   1.322   5.932   7.103  0.1967  0.5217 -0.2135
   97SAPS   C31 9641   1.290   5.810   7.147 -0.5281 -0.0530  0.3677
   97SAPS   O32 9642   1.289   5.710   7.077  0.2522  0.0742 -0.1208
   97SAPS   C32 9643   1.267   5.803   7.301 -0.3506 -0.0290  0.2873
   97SAPS   H2X 9644   1.166   5.840   7.330 -1.4146 -2.1794 -0.4377
   97SAPS   H2Y 9645   1.345   5.853   7.362  1.2462 -1.0630 -0.8301
   97SAPS   C23 9646   1.057   6.289   7.342 -0.8625 -0.2694  0.6172
   97SAPS   H3R 9647   1.061   6.204   7.414 -1.1085  0.7419  1.8651
   97SAPS   H3S 9648   0.952   6.310   7.316 -0.7630  0.7506  0.9908
   97SAPS   C24 9649   1.090   6.413   7.426  0.0838  0.1030 -0.1315
   97SAPS   H4R 9650   1.011   6.426   7.503  0.2438  0.0595  0.0392
   97SAPS   H4S 9651   1.081   6.511   7.375  2.9779  0.9607  0.8397
   97SAPS   C25 9652   1.226   6.408   7.499 -0.0972  0.2997 -0.6325
   97SAPS   H5R 9653   1.316   6.446   7.450  1.7393  0.3882  2.5332
   97SAPS   C26 9654   1.255   6.374   7.624 -0.3006 -1.2833 -0.5522
   97SAPS   H6R 9655   1.362   6.357   7.641 -0.5718 -1.9515  0.5701
   97SAPS   C27 9656   1.160   6.333   7.730 -0.0948  0.2153 -0.8500
   97SAPS   H7R 9657   1.189   6.241   7.785 -0.8304 -0.2404 -1.2109
   97SAPS   H7S 9658   1.058   6.318   7.688 -1.9044  1.3191  2.7121
   97SAPS   C28 9659   1.161   6.442   7.835  0.4868 -0.0274  0.3817
   97SAPS   H8R 9660   1.120   6.539   7.804 -1.2922 -1.5682 -2.5079
   97SAPS   C29 9661   1.215   6.452   7.959 -0.4107 -0.1413 -0.4874
   97SAPS   H9R 9662   1.205   6.545   8.016 -1.2277  0.0041 -0.8552
   97SAPS  C210 9663   1.297   6.341   8.028 -0.0087 -0.1729 -0.3916
   97SAPS  H10R 9664   1.379   6.380   8.092 -1.4346  0.7925  0.9389
   97SAPS  H10S 9665   1.342   6.272   7.954  0.3813  2.4450 -2.7202
   97SAPS  C211 9666   1.206   6.261   8.119  0.4395  0.6086 -0.4749
   97SAPS  H11R 9667   1.147   6.183   8.069  0.1319  0.7309 -0.3102
   97SAPS  C212 9668   1.195   6.267   8.254  0.1185  0.5630 -0.3412
   97SAPS  H12R 9669   1.112   6.213   8.302  0.9818 -0.0444  0.5024
   97SAPS  C213 9670   1.270   6.357   8.348  0.8246  0.3788  0.3864
   97SAPS  H13R 9671   1.375   6.332   8.323 -0.1090 -3.0211 -0.7513
   97SAPS  H13S 9672   1.251   6.321   8.451 -1.9886 -0.3492 -0.2979
   97SAPS  C214 9673   1.256   6.507   8.343 -0.5156  0.0185 -0.5207
   97SAPS  H14R 9674   1.265   6.562   8.248 -0.5877  2.1014  0.6330
   97SAPS  C215 9675   1.251   6.592   8.450  1.2380 -0.3184 -0.0234
   97SAPS  H15R 9676   1.238   6.698   8.426 -0.1283 -0.4457  0.0839
   97SAPS  C216 9677   1.248   6.560   8.603 -0.0560 -0.3294  0.1195
   97SAPS  H16R 9678   1.351   6.557   8.644  0.3828  2.2658 -0.6124
   97SAPS  H16S 9679   1.211   6.456   8.616  0.6625 -0.5317  0.5730
   97SAPS  C217 9680   1.147   6.648   8.681 -0.3443 -0.8162 -0.0493
   97SAPS  H17R 9681   1.173   6.754   8.662 -1.3415 -0.6591 -0.5923
   97SAPS  H17S 9682   1.159   6.634   8.791 -2.2967  0.5902  0.3869
   97SAPS  C218 9683   0.996   6.624   8.664  0.5537 -0.2044  0.1707
   97SAPS  H18R 9684   0.967   6.650   8.560  0.0590 -0.1141  0.3289
   97SAPS  H18S 9685   0.943   6.689   8.737  1.5892  3.1275 -1.8174
   97SAPS  C219 9686   0.947   6.479   8.693 -0.0497  0.5156 -0.1477
   97SAPS  H19R 9687   0.994   6.423   8.609  0.0524  0.9998 -0.4150
   97SAPS  H19S 9688   0.836   6.473   8.686  0.0573 -1.8469 -0.7628
   97SAPS  C220 9689   0.985   6.413   8.829 -0.8065  0.3467  0.3046
   97SAPS  H20R 9690   0.934   6.461   8.915  0.1114  0.5259  0.7645
   97SAPS  H20S 9691   1.094   6.427   8.849 -0.6468  1.6016 -1.3017
   97SAPS  H20T 9692   0.957   6.305   8.833  3.2641 -0.8861  0.3012
   97SAPS   C33 9693   1.263   5.652   7.348 -0.2899 -1.0809 -0.0982
   97SAPS   H3X 9694   1.371   5.625   7.344  0.4126  0.9092  2.6803
   97SAPS   H3Y 9695   1.191   5.588   7.292 -2.1843  0.5941  0.3305
   97SAPS   C34 9696   1.230   5.652   7.499  0.0634  0.0491  0.0409
   97SAPS   H4X 9697   1.120   5.648   7.508  0.1246  1.3217  1.9389
   97SAPS   H4Y 9698   1.262   5.751   7.538 -1.9533  0.9590 -0.4969
   97SAPS   C35 9699   1.295   5.535   7.582  0.2866  0.3050 -0.1186
   97SAPS   H5X 9700   1.401   5.514   7.558  0.1382 -2.7687  1.4548
   97SAPS   H5Y 9701   1.242   5.446   7.544 -1.8268  2.0191 -1.4300
   97SAPS   C36 9702   1.281   5.568   7.734 -0.0951 -0.2048  0.4612
   97SAPS   H6X 9703   1.175   5.583   7.765  0.2020  1.7090  0.6277
   97SAPS   H6Y 9704   1.326   5.666   7.760 -0.2697 -0.2266  0.8442
   97SAPS   C37 9705   1.335   5.453   7.833  0.2641  0.2681  0.9183
   97SAPS   H7X 9706   1.442   5.427   7.819  0.0587  0.6715 -1.9678
   97SAPS   H7Y 9707   1.266   5.367   7.819 -1.9517  1.3555  4.0217
   97SAPS   C38 9708   1.298   5.496   7.980  0.0031  0.2809  0.3757
   97SAPS   H8X 9709   1.189   5.517   7.994  0.1809  2.4038 -0.9075
   97SAPS   H8Y 9710   1.336   5.597   8.006 -0.9336  0.5767  0.6610
   97SAPS   C39 9711   1.334   5.395   8.082 -0.4439 -0.3200  0.4581
   97SAPS   H9X 9712   1.284   5.299   8.057 -0.2879  0.2222 -2.3748
   97SAPS   H9Y 9713   1.298   5.438   8.177  0.0752 -1.8682  1.3914
   97SAPS  C310 9714   1.483   5.373   8.097 -0.2918  0.0733  0.2656
   97SAPS  H10X 9715   1.532   5.473   8.093 -1.6467  0.8011  0.8425
   97SAPS  H10Y 9716   1.522   5.331   8.002 -1.0305  0.5578 -0.2724
   97SAPS  C311 9717   1.543   5.277   8.199 -0.2075 -0.0431  0.3133
   97SAPS  H11X 9718   1.652   5.275   8.182  0.0317  0.4462  1.6430
   97SAPS  H11Y 9719   1.514   5.170   8.191  1.6394 -0.7430  2.0288
   97SAPS  C312 9720   1.528   5.310   8.349  0.3937 -0.1282 -0.0839
   97SAPS  H12X 9721   1.420   5.322   8.373 -0.1496 -1.5839 -1.6297
   97SAPS  H12Y 9722   1.578   5.410   8.358 -1.2863  0.8080 -0.6959
   97SAPS  C313 9723   1.605   5.218   8.442  0.7188  0.4604  0.4635
   97SAPS  H13X 9724   1.715   5.227   8.433  0.9801 -1.5198  1.1781
   97SAPS  H13Y 9725   1.574   5.117   8.409  1.1627  1.2152 -2.5197
   97SAPS  C314 9726   1.560   5.249   8.580  0.0432  0.2605 -0.8668
   97SAPS  H14X 9727   1.463   5.198   8.599 -1.4849  2.8366 -1.1944
   97SAPS  H14Y 9728   1.550   5.359   8.590  0.4215  0.1829  0.5240
   97SAPS  C315 9729   1.658   5.208   8.692  0.1308  0.4927 -0.3937
   97SAPS  H15X 9730   1.741   5.281   8.679  0.3228  0.1167 -1.4183
   97SAPS  H15Y 9731   1.708   5.108   8.698 -0.8808 -0.1405 -1.8521
   97SAPS  C316 9732   1.600   5.233   8.834 -0.3456 -0.1432 -0.1555
   97SAPS  H16X 9733   1.514   5.169   8.862 -0.9741  1.4193  1.7081
   97SAPS  H16Y 9734   1.583   5.340   8.859 -0.0915 -0.3922  1.1637
   97SAPS  C317 9735   1.707   5.195   8.931  0.5342  0.2135 -0.3035
   97SAPS  H17X 9736   1.801   5.233   8.887  1.1982  0.8328  1.5593
   97SAPS  H17Y 9737   1.713   5.084   8.929  0.7239  0.1049  2.2910
   97SAPS  C318 9738   1.688   5.241   9.073  0.1993  0.0638  0.4062
   97SAPS  H18X 9739   1.600   5.193   9.121  1.4366 -1.3347  1.3719
   97SAPS  H18Y 9740   1.663   5.349   9.067 -1.2899 -0.2988 -0.4099
   97SAPS  H18Z 9741   1.785   5.226   9.125  0.1486  1.8303  1.0572
   98SAPS     N 9742   5.339   5.701   6.027  0.1628  0.6640  0.1913
   98SAPS   HN1 9743   5.296   5.665   5.939 -0.3531 -0.3745  0.8544
   98SAPS   HN2 9744   5.395   5.633   6.082  2.1901  3.3969  1.7547
   98SAPS   HN3 9745   5.259   5.727   6.088 -0.2126 -1.9088  0.9436
   98SAPS   C12 9746   5.424   5.814   5.984  0.8253 -0.4261 -0.7319
   98SAPS  H12A 9747   5.527   5.782   5.988  0.9449  0.0249  2.3216
   98SAPS   C13 9748   5.402   5.866   5.841 -0.2591 -0.0540 -0.9769
   98SAPS  O13A 9749   5.328   5.802   5.768  0.2712 -0.8265 -0.1060
   98SAPS  O13B 9750   5.486   5.950   5.806  0.0045 -0.0915  0.2238
   98SAPS   C11 9751   5.433   5.927   6.089 -0.2085 -0.8054 -0.2871
   98SAPS  H11A 9752   5.515   5.995   6.057 -1.7764  0.3071 -2.0886
   98SAPS  H11B 9753   5.470   5.884   6.185 -0.5089  1.0047  0.6833
   98SAPS     P 9754   5.189   5.965   6.195  0.1264 -0.4759  0.3064
   98SAPS   O13 9755   5.103   6.084   6.188 -0.6259  0.9417 -0.6121
   98SAPS   O14 9756   5.131   5.842   6.143 -0.1346  0.0388 -0.8900
   98SAPS   O12 9757   5.317   6.008   6.106  0.5066  0.1254  0.7553
   98SAPS   O11 9758   5.256   5.943   6.338 -0.0116 -0.3326 -0.2824
   98SAPS    C1 9759   5.330   6.046   6.404  0.5387  0.2761 -0.5053
   98SAPS    HA 9760   5.439   6.047   6.381  1.0768  0.7042  1.8868
   98SAPS    HB 9761   5.294   6.146   6.371 -0.4955 -0.5594 -2.0516
   98SAPS    C2 9762   5.332   6.031   6.558 -0.2048 -0.2005  0.1433
   98SAPS    HS 9763   5.386   6.116   6.605  0.9759  0.0407 -1.5670
   98SAPS   O21 9764   5.393   5.900   6.589 -0.1777 -0.5267 -1.1235
   98SAPS   C21 9765   5.446   5.893   6.711  0.6380 -0.2163  0.0475
   98SAPS   O22 9766   5.456   5.986   6.788 -0.5140  0.1827  0.1178
   98SAPS   C22 9767   5.483   5.747   6.735  0.6455  0.0313 -0.2312
   98SAPS   H2R 9768   5.539   5.715   6.645  0.8966 -1.3909  0.4023
   98SAPS   H2S 9769   5.557   5.754   6.818 -0.1839  0.8409  0.4663
   98SAPS    C3 9770   5.182   6.028   6.598 -0.8204 -0.7117 -0.4207
   98SAPS    HX 9771   5.143   5.934   6.553  1.4264 -1.9843  0.1171
   98SAPS    HY 9772   5.143   6.115   6.542  0.3971  0.4506  0.4648
   98SAPS   O31 9773   5.162   6.024   6.734  0.5680  0.3595 -0.6137
   98SAPS   C31 9774   5.038   6.064   6.767 -0.6999  0.2949 -0.3736
   98SAPS   O32 9775   4.950   6.094   6.690  0.2082  0.0306  0.6479
   98SAPS   C32 9776   5.040   6.081   6.920  0.1083 -0.3386 -0.3250
   98SAPS   H2X 9777   5.009   6.184   6.947  1.2077 -0.7307  2.8307
   98SAPS   H2Y 9778   5.144   6.071   6.958  0.6524  1.0580 -1.3703
   98SAPS   C23 9779   5.351   5.661   6.764  0.2600 -0.2090  0.3016
   98SAPS   H3R 9780   5.381   5.555   6.776 -3.1156 -1.5439 -1.5135
   98SAPS   H3S 9781   5.280   5.658   6.679  0.3075 -0.2783  0.2647
   98SAPS   C24 9782   5.270   5.720   6.888 -0.4471 -0.2369  0.3087
   98SAPS   H4R 9783   5.227   5.818   6.858  1.6829  0.9178  0.8540
   98SAPS   H4S 9784   5.346   5.746   6.965  1.4647 -0.2430 -1.4889
   98SAPS   C25 9785   5.162   5.631   6.936  0.0904 -0.3332 -0.3598
   98SAPS   H5R 9786   5.083   5.604   6.864 -1.8744 -1.6129  2.1043
   98SAPS   C26 9787   5.142   5.573   7.055 -0.0941 -0.5181 -0.3004
   98SAPS   H6R 9788   5.051   5.516   7.081  0.0592  0.2299  2.0273
   98SAPS   C27 9789   5.241   5.580   7.169 -0.2056  0.0099  0.3578
   98SAPS   H7R 9790   5.340   5.545   7.132 -0.0495  1.6355 -0.8993
   98SAPS   H7S 9791   5.213   5.507   7.248 -1.3166 -0.4284 -0.4226
   98SAPS   C28 9792   5.267   5.714   7.231 -0.7228  0.3817 -1.1654
   98SAPS   H8R 9793   5.278   5.802   7.165  2.7474  2.6206  2.0192
   98SAPS   C29 9794   5.284   5.730   7.367  0.8218  0.2781 -0.6546
   98SAPS   H9R 9795   5.309   5.833   7.399 -1.4301  0.7708 -0.3129
   98SAPS  C210 9796   5.277   5.632   7.484 -0.4332  0.8791 -0.4040
   98SAPS  H10R 9797   5.383   5.633   7.517 -0.9206  2.5286  1.3158
   98SAPS  H10S 9798   5.249   5.531   7.448 -0.8360  1.6334 -2.2980
   98SAPS  C211 9799   5.193   5.688   7.601  0.7755 -0.5421 -0.4500
   98SAPS  H11R 9800   5.146   5.786   7.580  0.8355 -0.4551 -0.1798
   98SAPS  C212 9801   5.173   5.633   7.728 -0.3486  0.6195  0.3980
   98SAPS  H12R 9802   5.113   5.679   7.808  0.1091  0.3362  0.9123
   98SAPS  C213 9803   5.245   5.501   7.767  0.0944 -0.8951  0.3991
   98SAPS  H13R 9804   5.308   5.454   7.689  0.4028  0.1312  0.0164
   98SAPS  H13S 9805   5.163   5.427   7.779  0.1615 -0.9236  0.6824
   98SAPS  C214 9806   5.306   5.530   7.902 -0.2561  0.2532  0.2972
   98SAPS  H14R 9807   5.416   5.526   7.890 -0.3511 -1.6550 -0.2542
   98SAPS  C215 9808   5.249   5.531   8.024 -0.4892  0.4193  0.0780
   98SAPS  H15R 9809   5.310   5.539   8.116  1.5433 -1.4780 -0.9962
   98SAPS  C216 9810   5.108   5.512   8.053 -0.1065  0.1279  0.8732
   98SAPS  H16R 9811   5.045   5.508   7.962  1.8557 -1.0408 -0.5032
   98SAPS  H16S 9812   5.068   5.600   8.107  1.4181  1.6569 -0.3538
   98SAPS  C217 9813   5.070   5.392   8.140 -0.8370 -0.3733  0.3670
   98SAPS  H17R 9814   5.129   5.397   8.234 -1.1176  0.7257  0.4997
   98SAPS  H17S 9815   5.104   5.298   8.091 -0.4326 -0.8113  1.4520
   98SAPS  C218 9816   4.918   5.400   8.175 -0.7804  0.3853  0.7132
   98SAPS  H18R 9817   4.864   5.414   8.079 -0.5240 -0.3410  0.4578
   98SAPS  H18S 9818   4.891   5.489   8.236 -0.7042 -0.0038  1.3269
   98SAPS  C219 9819   4.861   5.275   8.243 -0.3045 -0.1384  0.6576
   98SAPS  H19R 9820   4.934   5.251   8.324 -1.8110 -2.4496  1.4389
   98SAPS  H19S 9821   4.850   5.183   8.182  0.4952  0.1329  0.0873
   98SAPS  C220 9822   4.723   5.304   8.307 -0.1454  0.3696  0.1348
   98SAPS  H20R 9823   4.661   5.324   8.217  0.1991  1.0579  0.0422
   98SAPS  H20S 9824   4.715   5.391   8.376 -3.2452  0.9316 -0.7975
   98SAPS  H20T 9825   4.684   5.215   8.360  3.3658 -0.4494  1.6875
   98SAPS   C33 9826   4.936   5.996   6.990 -0.1754  0.3656  0.5342
   98SAPS   H3X 9827   4.913   5.908   6.927 -0.2382  0.4822  0.3930
   98SAPS   H3Y 9828   4.839   6.051   6.991 -0.6166 -0.3601 -0.7277
   98SAPS   C34 9829   4.969   5.967   7.139  0.9200  0.7928  0.3596
   98SAPS   H4X 9830   5.058   5.903   7.122  0.1768  0.0107 -0.7088
   98SAPS   H4Y 9831   4.902   5.897   7.194  1.4603  2.0782  2.8054
   98SAPS   C35 9832   4.991   6.090   7.229 -0.0135  1.0122 -0.3830
   98SAPS   H5X 9833   4.909   6.163   7.209 -0.6033  0.4640 -0.0162
   98SAPS   H5Y 9834   5.087   6.130   7.189  0.1177  2.1884  1.0621
   98SAPS   C36 9835   5.000   6.047   7.383  0.3516 -0.5604 -0.5638
   98SAPS   H6X 9836   5.061   5.955   7.389 -0.8488 -1.4337 -1.1833
   98SAPS   H6Y 9837   4.906   6.025   7.438  0.2075  2.1831  0.4661
   98SAPS   C37 9838   5.082   6.162   7.464  0.1537 -0.1597  0.4651
   98SAPS   H7X 9839   5.020   6.254   7.454 -0.4283 -0.6041 -0.0143
   98SAPS   H7Y 9840   5.175   6.173   7.404 -0.3919 -1.3393 -0.6242
   98SAPS   C38 9841   5.122   6.129   7.606  0.0632  0.4858  0.1943
   98SAPS   H8X 9842   5.183   6.207   7.656 -1.1455 -0.1109  2.8117
   98SAPS   H8Y 9843   5.171   6.030   7.599  0.9968  0.9713 -0.1854
   98SAPS   C39 9844   5.014   6.096   7.712  0.6928 -1.2246  0.2729
   98SAPS   H9X 9845   4.946   6.013   7.682 -1.7749  0.1816  1.5492
   98SAPS   H9Y 9846   4.962   6.192   7.734  1.6661 -0.3068 -1.2779
   98SAPS  C310 9847   5.080   6.045   7.844 -0.2895  0.5509 -0.0316
   98SAPS  H10X 9848   5.145   6.120   7.893 -0.7112  2.0331 -1.6139
   98SAPS  H10Y 9849   5.144   5.957   7.823  0.7988  1.3333 -0.0861
   98SAPS  C311 9850   4.983   6.007   7.955  0.6277 -0.2840  0.6166
   98SAPS  H11X 9851   4.927   5.917   7.922 -0.9186  0.3129  1.5000
   98SAPS  H11Y 9852   4.909   6.087   7.973 -0.0023 -0.8730  0.6647
   98SAPS  C312 9853   5.050   5.974   8.088  1.1882  0.0597  0.0828
   98SAPS  H12X 9854   5.082   6.071   8.132 -0.1607  0.0060  1.2518
   98SAPS  H12Y 9855   5.147   5.923   8.072  1.1456  0.4142 -1.5514
   98SAPS  C313 9856   4.957   5.900   8.182  0.2631  0.1081 -0.1800
   98SAPS  H13X 9857   4.920   5.809   8.130  0.0293 -0.2761  0.6346
   98SAPS  H13Y 9858   4.871   5.965   8.208 -1.8513 -1.5946 -2.4990
   98SAPS  C314 9859   5.038   5.864   8.310  0.2694 -0.4240 -0.1421
   98SAPS  H14X 9860   5.084   5.953   8.359 -0.5895 -1.0307  1.9110
   98SAPS  H14Y 9861   5.121   5.794   8.284  0.2691 -0.3020 -0.4731
   98SAPS  C315 9862   4.946   5.820   8.424  0.0003  0.5460 -0.1696
   98SAPS  H15X 9863   4.886   5.729   8.401 -2.8277  2.2547  0.0034
   98SAPS  H15Y 9864   4.873   5.900   8.447 -0.2949 -0.3722  2.3577
   98SAPS  C316 9865   5.026   5.806   8.552 -0.7766  0.1815 -1.0073
   98SAPS  H16X 9866   4.978   5.847   8.643  1.0818  0.3597 -0.0525
   98SAPS  H16Y 9867   5.123   5.860   8.548 -0.2582 -0.7794 -2.3368
   98SAPS  C317 9868   5.048   5.655   8.598 -0.4512 -0.1558 -0.5396
   98SAPS  H17X 9869   4.948   5.618   8.629 -0.3387 -2.0778 -2.2096
   98SAPS  H17Y 9870   5.114   5.659   8.687  0.8825  0.9122 -1.5215
   98SAPS  C318 9871   5.103   5.554   8.490  0.2422  0.2557  0.3691
   98SAPS  H18X 9872   5.024   5.535   8.415  0.1158 -1.8545  0.9932
   98SAPS  H18Y 9873   5.138   5.462   8.541  3.0917  0.5444 -0.8992
   98SAPS  H18Z 9874   5.187   5.602   8.435 -1.9772  3.6484 -0.3646
   99SAPS     N 9875   4.773   4.242   6.036 -0.7195 -0.1211 -0.5022
   99SAPS   HN1 9876   4.825   4.218   5.949  0.0405  0.7043 -0.3017
   99SAPS   HN2 9877   4.673   4.264   6.019 -0.8495  0.0742  0.4268
   99SAPS   HN3 9878   4.813   4.333   6.066  0.1945 -0.8724  0.6795
   99SAPS   C12 9879   4.773   4.147   6.154 -0.0070 -0.2214  0.0574
   99SAPS  H12A 9880   4.721   4.193   6.236 -2.7831 -1.1124 -1.0778
   99SAPS   C13 9881   4.701   4.009   6.127 -0.7011 -0.5786  0.3922
   99SAPS  O13A 9882   4.649   3.979   6.017  0.5514 -0.2319  0.0274
   99SAPS  O13B 9883   4.744   3.916   6.199  0.2091  0.1898 -0.3965
   99SAPS   C11 9884   4.915   4.127   6.201 -0.8674 -0.1656  0.1415
   99SAPS  H11A 9885   4.973   4.081   6.117  0.1498  0.8492  0.2538
   99SAPS  H11B 9886   4.919   4.062   6.290  1.0834 -0.6693 -0.2510
   99SAPS     P 9887   5.054   4.292   6.357 -0.3639  0.1397  0.0831
   99SAPS   O13 9888   5.179   4.210   6.362 -0.2772  0.9740  0.4824
   99SAPS   O14 9889   5.074   4.440   6.376 -0.0971 -0.0402  0.3353
   99SAPS   O12 9890   4.973   4.261   6.225  0.9038 -0.2696 -0.0525
   99SAPS   O11 9891   4.955   4.246   6.467 -0.2681  0.3568 -1.1272
   99SAPS    C1 9892   4.826   4.309   6.484  0.4157 -0.2892  0.1500
   99SAPS    HA 9893   4.771   4.341   6.393  2.4167 -0.9586 -1.3861
   99SAPS    HB 9894   4.757   4.227   6.511  1.8817 -2.4862 -2.2620
   99SAPS    C2 9895   4.826   4.433   6.581 -0.4007 -0.1174  0.3557
   99SAPS    HS 9896   4.888   4.512   6.534  1.2688 -0.9525  1.0935
   99SAPS   O21 9897   4.882   4.399   6.715  0.3488 -0.0124  0.1816
   99SAPS   C21 9898   4.930   4.512   6.769  0.1405 -0.6166  0.4622
   99SAPS   O22 9899   4.908   4.627   6.730  0.4956  0.3322 -0.4640
   99SAPS   C22 9900   5.020   4.493   6.893  0.3645  0.4439 -0.0242
   99SAPS   H2R 9901   4.980   4.397   6.935 -1.8020  1.4195  0.2865
   99SAPS   H2S 9902   5.122   4.474   6.854  0.0270 -0.1474 -0.6455
   99SAPS    C3 9903   4.674   4.486   6.592 -0.2329 -0.1993  0.1674
   99SAPS    HX 9904   4.636   4.507   6.489  0.2075 -2.6371 -0.5568
   99SAPS    HY 9905   4.681   4.585   6.642 -0.1402 -0.2322  0.2211
   99SAPS   O31 9906   4.590   4.380   6.650  0.4519 -0.8402 -0.0726
   99SAPS   C31 9907   4.576   4.399   6.786 -0.3596 -0.2181  0.0810
   99SAPS   O32 9908   4.633   4.485   6.849 -0.1447 -0.1395  0.6622
   99SAPS   C32 9909   4.472   4.298   6.843 -0.9105 -0.3064  0.0337
   99SAPS   H2X 9910   4.513   4.195   6.839  0.8983  0.2370  2.2888
   99SAPS   H2Y 9911   4.390   4.298   6.767 -0.9748 -0.7000  0.1012
   99SAPS   C23 9912   5.018   4.598   6.999  0.4624 -0.0970 -0.0351
   99SAPS   H3R 9913   5.035   4.697   6.951 -0.2908 -1.6068 -3.6846
   99SAPS   H3S 9914   5.106   4.588   7.066  0.7201  0.2530 -0.3159
   99SAPS   C24 9915   4.887   4.597   7.085  0.1427  0.0129 -0.3266
   99SAPS   H4R 9916   4.797   4.579   7.023  0.1210  1.5581 -0.7780
   99SAPS   H4S 9917   4.870   4.697   7.130 -0.5745  0.1077 -0.7953
   99SAPS   C25 9918   4.891   4.498   7.196 -0.0566 -0.0298  1.1995
   99SAPS   H5R 9919   4.894   4.394   7.159 -0.1563  0.0089  1.0821
   99SAPS   C26 9920   4.901   4.517   7.328 -0.2155 -0.5140  0.0591
   99SAPS   H6R 9921   4.901   4.437   7.404 -0.0005 -1.2597 -0.7016
   99SAPS   C27 9922   4.912   4.658   7.385 -0.3360  0.3861 -0.2249
   99SAPS   H7R 9923   4.812   4.701   7.360 -1.0179 -1.4413 -0.8101
   99SAPS   H7S 9924   4.997   4.707   7.334 -0.1979 -1.2568 -1.6640
   99SAPS   C28 9925   4.951   4.653   7.534 -0.1644 -0.1466 -0.3553
   99SAPS   H8R 9926   5.059   4.642   7.554 -0.1319 -0.5001 -0.7131
   99SAPS   C29 9927   4.865   4.667   7.637  0.3920 -0.4809 -0.6793
   99SAPS   H9R 9928   4.905   4.667   7.739  3.3018  2.9817 -1.5825
   99SAPS  C210 9929   4.715   4.678   7.637 -0.3128  0.4541 -0.5552
   99SAPS  H10R 9930   4.670   4.587   7.683  3.5396 -0.0149  2.8819
   99SAPS  H10S 9931   4.671   4.681   7.535  1.4116  0.7974 -1.3256
   99SAPS  C211 9932   4.677   4.804   7.711  0.1949  0.6026  0.6046
   99SAPS  H11R 9933   4.751   4.885   7.701 -0.4397  1.0351 -0.9371
   99SAPS  C212 9934   4.573   4.811   7.793  0.3624  0.6010 -0.5489
   99SAPS  H12R 9935   4.553   4.906   7.845  0.8315 -0.6884  2.1390
   99SAPS  C213 9936   4.478   4.701   7.843 -0.1520  0.3383 -0.1345
   99SAPS  H13R 9937   4.455   4.628   7.763  0.5654 -0.3655  0.2979
   99SAPS  H13S 9938   4.387   4.750   7.884 -0.6410 -1.1860  0.6907
   99SAPS  C214 9939   4.547   4.629   7.959 -0.0464 -0.5872 -0.0389
   99SAPS  H14R 9940   4.656   4.613   7.949  0.6865  2.2873  1.8460
   99SAPS  C215 9941   4.485   4.586   8.065  0.2322 -0.9857 -0.8531
   99SAPS  H15R 9942   4.548   4.549   8.147  1.8178  0.2886 -1.4503
   99SAPS  C216 9943   4.340   4.614   8.104 -0.0168 -0.0622 -0.3676
   99SAPS  H16R 9944   4.277   4.564   8.029 -0.1475 -1.1399  0.4296
   99SAPS  H16S 9945   4.328   4.724   8.095 -1.0636 -0.2235 -1.0309
   99SAPS  C217 9946   4.309   4.560   8.241 -0.0638 -0.0897 -0.8304
   99SAPS  H17R 9947   4.216   4.606   8.279 -0.4796 -2.6927  1.5988
   99SAPS  H17S 9948   4.382   4.593   8.318 -0.9039 -0.8521  0.3171
   99SAPS  C218 9949   4.310   4.407   8.256  0.3081  0.0957 -0.0316
   99SAPS  H18R 9950   4.409   4.358   8.273 -0.3071 -1.9360 -1.9106
   99SAPS  H18S 9951   4.267   4.353   8.169 -2.0823  0.7318  0.7066
   99SAPS  C219 9952   4.231   4.358   8.379  0.3985 -0.7357  0.0224
   99SAPS  H19R 9953   4.222   4.249   8.361 -1.4153 -0.3574 -1.7521
   99SAPS  H19S 9954   4.135   4.415   8.381  1.2513  0.7309  0.6061
   99SAPS  C220 9955   4.291   4.377   8.515  0.4741 -0.3917 -0.3838
   99SAPS  H20R 9956   4.356   4.287   8.523 -0.7660 -1.3510 -0.7906
   99SAPS  H20S 9957   4.222   4.373   8.602 -0.9319 -1.1445 -1.4873
   99SAPS  H20T 9958   4.357   4.466   8.527  0.9273 -0.4450 -2.2389
   99SAPS   C33 9959   4.429   4.343   6.984  0.0264  0.4953 -0.4533
   99SAPS   H3X 9960   4.345   4.274   7.009  2.1091 -2.6070 -1.3532
   99SAPS   H3Y 9961   4.397   4.449   6.989  1.0749  0.8159 -0.4222
   99SAPS   C34 9962   4.527   4.314   7.097 -0.9220 -0.0939 -0.2759
   99SAPS   H4X 9963   4.590   4.405   7.100 -1.6179  0.3968 -0.2947
   99SAPS   H4Y 9964   4.601   4.238   7.065 -3.6230 -3.7158  1.3091
   99SAPS   C35 9965   4.474   4.278   7.238  0.0716  0.3304  0.6212
   99SAPS   H5X 9966   4.401   4.196   7.222  0.2492  0.1534  0.7115
   99SAPS   H5Y 9967   4.414   4.368   7.262 -0.1229  0.0287  1.3126
   99SAPS   C36 9968   4.584   4.240   7.343  0.2236  0.3454  0.3358
   99SAPS   H6X 9969   4.673   4.307   7.336  1.8262 -1.7221  0.0978
   99SAPS   H6Y 9970   4.623   4.141   7.311 -0.7547 -0.0565  0.3401
   99SAPS   C37 9971   4.545   4.244   7.489 -0.4531 -0.0229  0.8056
   99SAPS   H7X 9972   4.504   4.150   7.532 -0.1799 -0.5871 -0.1467
   99SAPS   H7Y 9973   4.470   4.324   7.504  0.2651  0.6099  1.1252
   99SAPS   C38 9974   4.672   4.270   7.575 -0.2100  0.0552  0.1881
   99SAPS   H8X 9975   4.711   4.367   7.535 -0.7818 -1.0514 -3.4896
   99SAPS   H8Y 9976   4.755   4.198   7.560  0.1145  0.9439 -3.1052
   99SAPS   C39 9977   4.640   4.264   7.728 -0.1085 -0.0024  0.0030
   99SAPS   H9X 9978   4.542   4.214   7.741 -0.4989  0.6688 -0.3015
   99SAPS   H9Y 9979   4.617   4.356   7.786  1.2291 -0.7913  1.8733
   99SAPS  C310 9980   4.747   4.189   7.819 -0.8631 -0.0956 -0.6698
   99SAPS  H10X 9981   4.833   4.260   7.832 -2.7021  1.7711  2.8008
   99SAPS  H10Y 9982   4.772   4.095   7.766 -2.6303 -1.3286  0.5770
   99SAPS  C311 9983   4.698   4.156   7.961  1.0927 -0.9196  0.5754
   99SAPS  H11X 9984   4.595   4.117   7.953  1.2950 -1.7346  1.7226
   99SAPS  H11Y 9985   4.674   4.238   8.032  2.1582  0.0345 -0.1372
   99SAPS  C312 9986   4.784   4.054   8.040 -0.1639  0.4687 -0.1752
   99SAPS  H12X 9987   4.885   4.099   8.053 -1.0510  2.8846 -0.9838
   99SAPS  H12Y 9988   4.805   3.962   7.982  0.5985  0.3982  0.2094
   99SAPS  C313 9989   4.721   4.029   8.175 -0.0426 -0.7281 -0.4321
   99SAPS  H13X 9990   4.613   4.005   8.173 -0.0999 -0.4342 -0.9931
   99SAPS  H13Y 9991   4.711   4.120   8.238  0.1546 -0.8648 -0.1993
   99SAPS  C314 9992   4.786   3.924   8.267 -0.2285  0.4462  0.0457
   99SAPS  H14X 9993   4.889   3.961   8.287  0.2213  0.5800 -2.2689
   99SAPS  H14Y 9994   4.799   3.825   8.219  0.5657  0.7744 -0.4381
   99SAPS  C315 9995   4.711   3.912   8.400 -0.2331  0.2929  0.5324
   99SAPS  H15X 9996   4.604   3.895   8.374 -0.3922  1.7689  0.1538
   99SAPS  H15Y 9997   4.713   4.008   8.456 -0.8485 -0.0937  1.2529
   99SAPS  C316 9998   4.747   3.799   8.499  0.1706  0.0626  0.4670
   99SAPS  H16X 9999   4.737   3.703   8.445  0.0840  1.1520 -1.5801
   99SAPS  H16Y10000   4.667   3.805   8.575 -0.7779 -0.4766 -0.4602
   99SAPS  C31710001   4.892   3.816   8.558 -0.4773 -0.1825 -0.7018
   99SAPS  H17X10002   4.886   3.925   8.578 -1.5819 -0.5904  1.4437
   99SAPS  H17Y10003   4.961   3.786   8.476 -0.2957 -0.0159 -0.6096
   99SAPS  C31810004   4.904   3.750   8.696 -0.6166  1.0551 -0.0739
   99SAPS  H18X10005   4.813   3.785   8.751  1.1152  2.3530  2.1409
   99SAPS  H18Y10006   4.995   3.782   8.751 -1.4162 -1.0518  2.6597
   99SAPS  H18Z10007   4.896   3.640   8.685 -2.5834  1.0456  1.0068
  100SAPS     N10008   1.287   3.788   6.111 -0.3005  0.0074  0.1343
  100SAPS   HN110009   1.319   3.832   6.199 -2.3975  2.4291 -0.2087
  100SAPS   HN210010   1.234   3.702   6.137 -3.3199  1.7897  0.3215
  100SAPS   HN310011   1.375   3.766   6.059  2.0198  0.7758  3.4289
  100SAPS   C1210012   1.181   3.859   6.036 -0.4640 -0.4835  0.1071
  100SAPS  H12A10013   1.230   3.945   5.995  1.1617 -1.6024 -0.3825
  100SAPS   C1310014   1.125   3.783   5.914  0.3844  0.0562 -0.0256
  100SAPS  O13A10015   1.146   3.663   5.901  0.1475  0.0059 -0.1256
  100SAPS  O13B10016   1.044   3.843   5.836  1.0275  0.3625  0.2758
  100SAPS   C1110017   1.067   3.907   6.136  0.8981  0.0159  0.3389
  100SAPS  H11A10018   0.999   3.825   6.167  0.5932 -1.1944 -3.0203
  100SAPS  H11B10019   1.001   3.973   6.075  1.2073 -0.9293 -1.0574
  100SAPS     P10020   1.086   3.956   6.391  0.0561 -0.2202 -0.0439
  100SAPS   O1310021   0.995   3.842   6.410 -0.8064 -0.2821 -0.0350
  100SAPS   O1410022   1.208   3.966   6.471 -0.0571  0.0414 -0.2045
  100SAPS   O1210023   1.126   3.977   6.240 -0.3042 -0.0849  0.0662
  100SAPS   O1110024   0.996   4.087   6.411 -0.2432  0.4535  1.0934
  100SAPS    C110025   1.009   4.217   6.344  0.2614  0.8018  0.4634
  100SAPS    HA10026   0.978   4.208   6.238 -1.5904 -1.8110  1.1272
  100SAPS    HB10027   0.935   4.290   6.383  0.8981  2.1487 -0.7409
  100SAPS    C210028   1.152   4.278   6.353  0.1182 -0.2393  0.0214
  100SAPS    HS10029   1.220   4.204   6.306 -0.2414  1.1514 -2.9522
  100SAPS   O2110030   1.164   4.295   6.494 -0.3286  0.2399 -0.0904
  100SAPS   C2110031   1.285   4.279   6.548  0.7811  0.0631  0.4807
  100SAPS   O2210032   1.383   4.247   6.485 -0.0995  0.3070  0.4394
  100SAPS   C2210033   1.279   4.270   6.705  0.5311 -0.4055 -0.5737
  100SAPS   H2R10034   1.187   4.214   6.732  2.2393 -3.1342 -0.0469
  100SAPS   H2S10035   1.359   4.205   6.747  0.8695 -0.6349 -1.5633
  100SAPS    C310036   1.168   4.411   6.275 -0.3267  0.3207 -0.4554
  100SAPS    HX10037   1.131   4.396   6.172  2.7825  0.8580 -1.7412
  100SAPS    HY10038   1.274   4.441   6.262 -0.3827  0.9361  0.4054
  100SAPS   O3110039   1.087   4.513   6.339 -0.1720 -0.4428 -0.1625
  100SAPS   C3110040   1.134   4.588   6.441 -1.3925 -0.3908  0.3042
  100SAPS   O3210041   1.251   4.580   6.483 -0.6650  0.6337 -0.0137
  100SAPS   C3210042   1.023   4.690   6.478  0.3282 -0.1751 -0.2565
  100SAPS   H2X10043   0.991   4.648   6.575 -0.8722  1.5934  0.1721
  100SAPS   H2Y10044   0.933   4.678   6.414 -0.7423  0.5979  1.0508
  100SAPS   C2310045   1.297   4.406   6.774  0.3917 -0.0544  0.3117
  100SAPS   H3R10046   1.232   4.489   6.739  1.8344  0.7373 -0.5983
  100SAPS   H3S10047   1.402   4.442   6.770  0.9834 -1.4335  2.1067
  100SAPS   C2410048   1.270   4.394   6.929 -0.2318  0.3197 -0.2373
  100SAPS   H4R10049   1.328   4.474   6.978 -3.3024  2.2446  0.4781
  100SAPS   H4S10050   1.310   4.293   6.954 -1.2387 -0.1035 -0.3032
  100SAPS   C2510051   1.128   4.398   6.969  0.4763  0.2603 -0.7522
  100SAPS   H5R10052   1.048   4.416   6.896 -0.0322 -0.0219 -0.2737
  100SAPS   C2610053   1.095   4.378   7.105 -0.5236 -0.4263  0.5970
  100SAPS   H6R10054   0.988   4.385   7.129 -1.3054 -0.8448 -2.4644
  100SAPS   C2710055   1.195   4.337   7.209  0.2916 -0.1774  0.0012
  100SAPS   H7R10056   1.181   4.391   7.305 -2.1188 -1.0337  0.2194
  100SAPS   H7S10057   1.301   4.362   7.189  0.7646 -2.4937 -0.6397
  100SAPS   C2810058   1.185   4.188   7.236 -0.1608 -0.4237 -0.2321
  100SAPS   H8R10059   1.105   4.136   7.182 -0.7465 -0.5980  0.7850
  100SAPS   C2910060   1.273   4.114   7.295 -0.0344  0.9893 -0.6533
  100SAPS   H9R10061   1.264   4.005   7.290 -1.7025  1.1007 -0.6143
  100SAPS  C21010062   1.404   4.168   7.350 -0.1934  0.1639 -1.2042
  100SAPS  H10R10063   1.409   4.278   7.336 -0.2452  0.0962 -1.8139
  100SAPS  H10S10064   1.477   4.137   7.272  0.5946 -2.2564  0.3799
  100SAPS  C21110065   1.444   4.113   7.481 -0.2794  0.6169 -0.0348
  100SAPS  H11R10066   1.539   4.057   7.487  1.7790  3.7665 -0.4662
  100SAPS  C21210067   1.374   4.132   7.598  0.3304  0.0909  0.2906
  100SAPS  H12R10068   1.420   4.096   7.691 -0.2135  0.4245  0.6973
  100SAPS  C21310069   1.244   4.217   7.612 -0.7154 -0.7947  0.3458
  100SAPS  H13R10070   1.152   4.179   7.562  0.1288  1.5303 -3.4741
  100SAPS  H13S10071   1.271   4.316   7.570  1.4295 -1.0605  1.0044
  100SAPS  C21410072   1.218   4.228   7.756  0.1413  0.1018  0.4281
  100SAPS  H14R10073   1.202   4.132   7.807  0.0873 -0.3885 -0.4949
  100SAPS  C21510074   1.215   4.343   7.824  1.0029  0.2155 -0.2329
  100SAPS  H15R10075   1.209   4.332   7.933  2.1391 -0.4159 -0.2181
  100SAPS  C21610076   1.216   4.487   7.782  0.5226 -0.0350  0.9552
  100SAPS  H16R10077   1.137   4.543   7.836 -0.6383  0.3859 -1.0709
  100SAPS  H16S10078   1.174   4.502   7.680 -0.4855  3.2305  1.7197
  100SAPS  C21710079   1.338   4.576   7.800 -0.1922  0.2294 -0.5674
  100SAPS  H17R10080   1.368   4.579   7.907 -0.1302  2.6491 -0.6102
  100SAPS  H17S10081   1.305   4.678   7.775 -0.1210 -0.1253 -2.2075
  100SAPS  C21810082   1.455   4.551   7.706 -0.3894  0.3250  0.0495
  100SAPS  H18R10083   1.493   4.448   7.723  0.6489  0.6001 -0.4937
  100SAPS  H18S10084   1.545   4.603   7.746  1.3241 -1.9386 -0.6544
  100SAPS  C21910085   1.437   4.583   7.559  0.9510 -0.1991  0.1625
  100SAPS  H19R10086   1.410   4.690   7.550 -2.9660 -0.9656  0.9873
  100SAPS  H19S10087   1.359   4.518   7.515 -0.0663 -0.3479  2.0729
  100SAPS  C22010088   1.568   4.562   7.479 -0.4079 -0.0523 -0.6782
  100SAPS  H20R10089   1.651   4.617   7.530 -1.3478  1.4872 -0.7656
  100SAPS  H20S10090   1.555   4.608   7.379 -1.4723  2.2527  0.4602
  100SAPS  H20T10091   1.600   4.457   7.462 -0.3456  0.0233 -1.0266
  100SAPS   C3310092   1.068   4.829   6.483 -0.0614  0.3202  0.6219
  100SAPS   H3X10093   0.985   4.893   6.447 -1.3458 -1.5930  0.0450
  100SAPS   H3Y10094   1.159   4.849   6.422  0.5990 -0.9138  1.1587
  100SAPS   C3410095   1.092   4.874   6.629  0.0288 -0.6500  0.2827
  100SAPS   H4X10096   1.015   4.841   6.702  0.2535  0.8027  1.2250
  100SAPS   H4Y10097   1.067   4.981   6.613 -2.0915 -1.0581  0.5949
  100SAPS   C3510098   1.235   4.857   6.680 -0.9143  0.0489  0.1841
  100SAPS   H5X10099   1.318   4.905   6.624 -0.5287  0.9622  1.4929
  100SAPS   H5Y10100   1.252   4.748   6.666 -0.2068  0.4835 -3.4910
  100SAPS   C3610101   1.250   4.894   6.823 -0.2238 -0.9766 -0.4322
  100SAPS   H6X10102   1.173   4.844   6.886 -0.7965  0.3027 -0.0913
  100SAPS   H6Y10103   1.231   5.003   6.821  1.5309 -0.5780  1.4059
  100SAPS   C3710104   1.397   4.876   6.880  0.2236  0.6880 -0.1839
  100SAPS   H7X10105   1.423   4.958   6.951  1.1052  2.0370 -1.9735
  100SAPS   H7Y10106   1.467   4.856   6.796 -0.7537 -2.6255 -0.3229
  100SAPS   C3810107   1.412   4.741   6.959 -0.2483  0.1453 -0.8065
  100SAPS   H8X10108   1.380   4.663   6.886  0.9437  0.3027 -1.5211
  100SAPS   H8Y10109   1.350   4.745   7.051  1.9648 -0.8012  0.8216
  100SAPS   C3910110   1.558   4.734   7.011  0.3408 -0.6321 -0.5491
  100SAPS   H9X10111   1.621   4.797   6.944 -1.4689  1.4585 -0.3912
  100SAPS   H9Y10112   1.595   4.630   7.011 -1.9639 -1.4902  0.2283
  100SAPS  C31010113   1.576   4.791   7.152  0.0625  0.1385 -0.2790
  100SAPS  H10X10114   1.505   4.750   7.227 -1.4325  1.7840 -0.7268
  100SAPS  H10Y10115   1.556   4.899   7.140 -0.2438  0.2655  1.2265
  100SAPS  C31110116   1.724   4.767   7.212  0.3269  0.3109  0.6653
  100SAPS  H11X10117   1.786   4.800   7.126  0.7074 -0.8044  0.4966
  100SAPS  H11Y10118   1.754   4.660   7.217 -0.1554  0.1868  0.9089
  100SAPS  C31210119   1.753   4.836   7.343  0.3049  0.6384  0.0671
  100SAPS  H12X10120   1.676   4.824   7.423  2.8463 -0.5775  2.5035
  100SAPS  H12Y10121   1.764   4.945   7.331 -0.4239  0.5677 -1.5164
  100SAPS  C31310122   1.890   4.796   7.394  0.0396 -0.5464 -0.5142
  100SAPS  H13X10123   1.964   4.822   7.315  1.1430 -0.4638  0.5156
  100SAPS  H13Y10124   1.901   4.685   7.399 -3.2062 -1.1155 -2.8531
  100SAPS  C31410125   1.922   4.853   7.527 -0.1875 -0.0892  0.1759
  100SAPS  H14X10126   1.855   4.805   7.603  0.1839 -0.4134  0.3032
  100SAPS  H14Y10127   1.915   4.964   7.536 -2.0947 -0.1274 -0.3919
  100SAPS  C31510128   2.071   4.816   7.571  0.0761  0.3144 -0.6184
  100SAPS  H15X10129   2.139   4.810   7.484 -1.8874 -2.0929 -2.1224
  100SAPS  H15Y10130   2.058   4.707   7.589  0.3756  0.2736 -0.6287
  100SAPS  C31610131   2.130   4.889   7.689  0.3824  0.6176  0.0281
  100SAPS  H16X10132   2.142   4.997   7.669 -0.8037  0.6179 -0.7475
  100SAPS  H16Y10133   2.228   4.837   7.699  0.5449  1.0433  0.6710
  100SAPS  C31710134   2.049   4.863   7.818 -0.7644  0.8722  0.3536
  100SAPS  H17X10135   2.015   4.757   7.816 -1.4822  1.0914  0.6026
  100SAPS  H17Y10136   1.961   4.930   7.813 -1.4529 -0.0592 -0.6060
  100SAPS  C31810137   2.124   4.888   7.949  0.0708  0.3242 -0.1331
  100SAPS  H18X10138   2.061   4.870   8.039 -0.3172  0.6995 -0.3220
  100SAPS  H18Y10139   2.157   4.991   7.973 -1.2509  1.2435 -2.0708
  100SAPS  H18Z10140   2.214   4.824   7.958 -1.2403 -1.3220  2.6471
  101OSM      N10141   6.005   1.180  10.918 -0.2108  0.2493  0.0972
  101OSM    C1510142   5.945   1.128  10.789  0.0451  0.2094 -0.3613
  101OSM   H15A10143   5.853   1.076  10.814  0.2686  0.1771  0.4279
  101OSM   H15B10144   6.013   1.067  10.732 -1.4459 -0.5342 -1.4169
  101OSM   H15C10145   5.911   1.212  10.731 -1.8556 -0.6744 -0.6273
  101OSM    C1410146   5.901   1.237  11.007 -0.3114 -0.0616 -0.1164
  101OSM   H14A10147   5.816   1.170  11.009 -0.8963  0.6335 -1.0672
  101OSM   H14B10148   5.872   1.338  10.980  0.1500  0.4520  1.2183
  101OSM   H14C10149   5.934   1.244  11.110 -1.8984 -0.4158  0.4473
  101OSM    C1310150   6.065   1.068  10.991 -0.6406 -0.3956 -0.5813
  101OSM   H13A10151   6.144   1.029  10.929 -0.6856  0.1250 -0.9730
  101OSM   H13B10152   5.993   0.988  11.004  0.8441 -1.6194  0.5129
  101OSM   H13C10153   6.105   1.086  11.089  0.1947 -1.6690 -0.6539
  101OSM    C1210154   6.111   1.288  10.881  0.4432 -0.1531 -0.3264
  101OSM   H12A10155   6.149   1.333  10.972  2.2660 -0.7313 -0.7656
  101OSM   H12B10156   6.061   1.370  10.832 -2.1516  0.7905  3.4347
  101OSM    C1110157   6.231   1.267  10.796 -0.1270  0.6061 -0.2248
  101OSM   H11A10158   6.263   1.370  10.771 -0.6602  1.1941  1.4173
  101OSM   H11B10159   6.205   1.222  10.697 -1.1258 -1.1700  0.8024
  101OSM      P10160   6.469   1.239  10.887  0.0448 -0.2677  0.4134
  101OSM    O1310161   6.488   1.279  11.029  0.0240  0.0792 -0.4848
  101OSM    O1410162   6.569   1.141  10.838  0.1160  1.0162 -0.4678
  101OSM    O1110163   6.482   1.370  10.801  0.1735 -0.0733  0.1812
  101OSM    O1210164   6.331   1.187  10.856  0.6716  0.2045  0.2591
  101OSM    C1S10165   6.606   1.427  10.753  0.0148  0.5422  0.2217
  101OSM    H1S10166   6.694   1.362  10.773 -1.7313 -1.7869  0.9666
  101OSM    H1T10167   6.612   1.528  10.798  0.0437  1.2418 -1.2848
  101OSM     NF10168   6.727   1.504  10.565  0.2711 -0.1570 -0.6897
  101OSM    HNF10169   6.752   1.600  10.574 -0.6449 -0.0165  0.6407
  101OSM    C2S10170   6.592   1.464  10.608  0.3206 -0.9117  0.0579
  101OSM    H2S10171   6.561   1.375  10.549 -1.2986 -0.6015  0.3982
  101OSM    C3S10172   6.485   1.577  10.585 -0.2969 -0.4806 -0.4102
  101OSM    H3S10173   6.506   1.668  10.646  2.5474 -1.6540  0.5253
  101OSM     O310174   6.355   1.539  10.629 -0.1628  0.2474 -0.2964
  101OSM    HO310175   6.376   1.463  10.684 -1.6165 -0.0469 -0.1201
  101OSM    C4S10176   6.467   1.608  10.438 -0.2608  0.3310 -0.0512
  101OSM    H4S10177   6.426   1.529  10.373 -1.6767  0.6675  0.4045
  101OSM    C5S10178   6.510   1.725  10.377 -0.0533  1.1196 -0.8255
  101OSM    H5S10179   6.564   1.793  10.444 -1.2283 -1.7521  3.4626
  101OSM    C6S10180   6.504   1.765  10.232 -0.0634  0.0933 -0.1587
  101OSM    H6S10181   6.449   1.686  10.177  0.3126 -1.3271  1.4229
  101OSM    H6T10182   6.611   1.766  10.201  0.7909 -2.5683  2.2387
  101OSM    C7S10183   6.424   1.893  10.203 -0.0254  0.2527  0.1810
  101OSM    H7S10184   6.452   1.988  10.253 -1.0862  0.1900  0.9470
  101OSM    H7T10185   6.317   1.887  10.233  0.3129  0.7381  1.5966
  101OSM    C8S10186   6.419   1.922  10.054 -0.5485  0.1966  1.4555
  101OSM    H8S10187   6.403   1.822  10.011 -0.5346  0.0354  1.8168
  101OSM    H8T10188   6.513   1.956  10.006 -1.6041 -1.0329 -1.7083
  101OSM    C9S10189   6.311   2.028  10.011 -0.0471 -0.4706 -0.3084
  101OSM    H9S10190   6.349   2.130  10.032  0.7953 -0.7053 -0.6381
  101OSM    H9T10191   6.222   2.012  10.075  0.2513  0.1866  0.2729
  101OSM   C10S10192   6.256   2.026   9.869 -0.1525 -0.2558  0.4306
  101OSM   H10S10193   6.209   2.122   9.839  0.5499 -0.5089 -1.6309
  101OSM   H10T10194   6.174   1.951   9.861 -1.3833  1.1140 -0.0975
  101OSM   C11S10195   6.356   2.013   9.755  0.5067  1.1736  0.9421
  101OSM   H11S10196   6.427   1.931   9.779  1.3917  1.5072 -0.4451
  101OSM   H11T10197   6.419   2.104   9.762  1.3047  0.6733  0.3982
  101OSM   C12S10198   6.278   2.002   9.621  0.2916  0.5367 -0.2499
  101OSM   H12S10199   6.202   2.082   9.612 -0.8876 -0.4917  0.1830
  101OSM   H12T10200   6.217   1.909   9.611 -1.6897  1.8852 -1.2104
  101OSM   C13S10201   6.390   1.993   9.508  0.2745  0.1051 -0.2020
  101OSM   H13S10202   6.462   1.916   9.542  0.4425  0.2651 -0.1983
  101OSM   H13T10203   6.436   2.094   9.503 -2.6620  1.5309 -0.6773
  101OSM   C14S10204   6.340   1.961   9.367 -0.2875  0.4505  0.4860
  101OSM   H14S10205   6.293   1.861   9.354  1.2226 -0.1802 -0.4853
  101OSM   H14T10206   6.438   1.962   9.314 -1.4723  1.9484 -1.8060
  101OSM   C15S10207   6.249   2.061   9.294 -0.2281 -0.3706 -0.2487
  101OSM   H15S10208   6.293   2.164   9.294 -0.1879 -0.3482 -2.2560
  101OSM   H15T10209   6.163   2.074   9.363 -0.5384 -0.6032 -0.5931
  101OSM   C16S10210   6.205   2.020   9.152  0.7888 -0.0356  0.9690
  101OSM   H16S10211   6.119   2.086   9.127  0.4536 -0.9756 -0.4783
  101OSM   H16T10212   6.154   1.921   9.148 -1.2134  0.9696 -1.7639
  101OSM   C17S10213   6.311   2.013   9.041 -0.1815 -0.0250  0.3970
  101OSM   H17S10214   6.376   1.925   9.058  2.9737  1.6935 -1.8278
  101OSM   H17T10215   6.368   2.105   9.067  0.1649  0.2985 -1.4191
  101OSM   C18S10216   6.248   2.006   8.898 -0.4385  0.0824 -0.7005
  101OSM   H18S10217   6.334   1.985   8.831  0.8860 -1.3350  1.3510
  101OSM   H18T10218   6.207   2.105   8.870  0.7454  0.1989 -2.1452
  101OSM   H18U10219   6.172   1.928   8.878 -1.9125  1.0859  0.7176
  101OSM    C1F10220   6.822   1.425  10.534 -0.2346  0.5488 -0.0005
  101OSM     OF10221   6.800   1.304  10.525 -0.7795 -0.5789 -0.0769
  101OSM    C2F10222   6.962   1.475  10.501 -0.1477  0.2089  0.0435
  101OSM    H2F10223   7.034   1.431  10.574 -0.3065 -0.6145 -0.2855
  101OSM    H2G10224   6.979   1.583  10.519  1.4512 -0.1240  0.7619
  101OSM    C3F10225   7.001   1.424  10.360  0.3360 -0.2310 -0.1996
  101OSM    H3F10226   6.989   1.314  10.356  0.4972 -0.3557  1.8000
  101OSM    H3G10227   7.107   1.446  10.333  0.9300  0.1086  2.1987
  101OSM    C4F10228   6.903   1.480  10.256  0.1944 -0.3815 -0.0572
  101OSM    H4F10229   6.900   1.591  10.258  0.6505 -0.2323 -2.9688
  101OSM    H4G10230   6.806   1.430  10.278  0.3290 -0.7277 -0.2486
  101OSM    C5F10231   6.948   1.434  10.120  0.5728 -0.4358  0.4153
  101OSM    H5F10232   6.967   1.325  10.122  1.1581 -0.3211  1.8674
  101OSM    H5G10233   7.051   1.472  10.103  1.2785 -1.6890  1.7344
  101OSM    C6F10234   6.860   1.480   9.997 -0.5549  0.6734 -0.0679
  101OSM    H6F10235   6.776   1.410   9.981 -1.8688  2.2233 -0.2364
  101OSM    H6G10236   6.936   1.461   9.917 -0.8714  0.2002 -0.2565
  101OSM    C7F10237   6.814   1.624  10.005  0.1922 -0.4974  0.3989
  101OSM    H7F10238   6.909   1.680  10.016  0.4312 -0.6029 -0.9460
  101OSM    H7G10239   6.747   1.636  10.093  1.8855  1.9690  1.4422
  101OSM    C8F10240   6.731   1.684   9.893  0.5504 -0.0040 -0.0860
  101OSM    H8F10241   6.799   1.698   9.806 -1.1377 -0.4200 -1.5260
  101OSM    H8G10242   6.687   1.779   9.929 -0.5307  0.1246 -1.6635
  101OSM    C9F10243   6.615   1.598   9.862 -0.8012  0.1014  0.3820
  101OSM    H9F10244   6.534   1.595   9.936 -1.9785 -0.8941 -0.8860
  101OSM   C10F10245   6.594   1.537   9.744 -0.0481 -0.2198  0.4002
  101OSM   H10F10246   6.497   1.487   9.730 -0.3454  0.9293 -2.2173
  101OSM   C11F10247   6.693   1.538   9.625 -0.6143 -0.3433 -0.9505
  101OSM   H11F10248   6.702   1.433   9.590  4.7262 -0.4611 -0.0971
  101OSM   H11G10249   6.796   1.551   9.665 -1.6906 -0.3917  2.1248
  101OSM   C12F10250   6.682   1.641   9.513  0.2720 -0.2249  0.5012
  101OSM   H12F10251   6.776   1.642   9.453  0.7167 -0.6422  1.1771
  101OSM   H12G10252   6.685   1.744   9.555  2.0678  0.1105 -0.3599
  101OSM   C13F10253   6.563   1.640   9.414 -0.2098 -0.0961 -0.6654
  101OSM   H13F10254   6.590   1.706   9.329  1.6714 -0.8502 -0.7147
  101OSM   H13G10255   6.463   1.666   9.454 -0.5010  0.5344 -1.7619
  101OSM   C14F10256   6.547   1.504   9.350 -0.0053 -0.3170  0.2126
  101OSM   H14F10257   6.521   1.422   9.420  2.3100 -1.5986 -0.3163
  101OSM   H14G10258   6.647   1.476   9.308  0.8541  0.9377  1.3322
  101OSM   C15F10259   6.444   1.513   9.234 -0.6814 -0.2358 -0.2164
  101OSM   H15F10260   6.476   1.593   9.164  2.7358 -1.6631 -0.4394
  101OSM   H15G10261   6.343   1.541   9.273 -0.3560  0.2235  0.3126
  101OSM   C16F10262   6.419   1.381   9.154 -0.6878 -0.4279  0.0143
  101OSM   H16F10263   6.410   1.291   9.218 -1.8894 -1.4162 -1.4982
  101OSM   H16G10264   6.505   1.371   9.084 -2.1227 -1.4455 -1.6709
  101OSM   C17F10265   6.304   1.391   9.059  0.6094  0.1387 -0.0976
  101OSM   H17F10266   6.303   1.479   8.992 -0.3378 -0.6825 -1.2056
  101OSM   H17G10267   6.206   1.407   9.108  0.5931  1.1620 -0.4454
  101OSM   C18F10268   6.300   1.266   8.972 -0.6885  0.0451 -0.8773
  101OSM   H18F10269   6.207   1.251   8.913  0.1442  1.2017 -2.5563
  101OSM   H18G10270   6.331   1.183   9.038  1.6028  0.4120 -1.4115
  101OSM   H18H10271   6.374   1.268   8.890  0.7099 -1.2735  0.3048
  102OSM      N10272   3.689   6.296  10.965  0.3119  0.2660  0.8493
  102OSM    C1510273   3.632   6.164  11.005  0.4930 -0.4031 -0.2605
  102OSM   H15A10274   3.536   6.148  10.958  0.1598 -1.8507  0.8444
  102OSM   H15B10275   3.596   6.171  11.106 -4.0231 -0.5300 -1.6572
  102OSM   H15C10276   3.697   6.078  10.997 -0.4605 -1.1450 -0.1771
  102OSM    C1410277   3.586   6.410  10.971 -0.1568  0.1411  0.1092
  102OSM   H14A10278   3.630   6.504  10.942  0.1578 -0.1308 -0.3166
  102OSM   H14B10279   3.551   6.420  11.072 -1.6423  1.7161 -0.5023
  102OSM   H14C10280   3.507   6.383  10.901  0.4363 -2.0991  0.2141
  102OSM    C1310281   3.796   6.328  11.067 -0.6559  0.2138  0.4383
  102OSM   H13A10282   3.846   6.415  11.028 -2.6293  0.5262 -1.6207
  102OSM   H13B10283   3.874   6.253  11.061 -0.7886 -0.0314  1.6184
  102OSM   H13C10284   3.763   6.353  11.166 -1.2327  1.6510 -0.0963
  102OSM    C1210285   3.745   6.279  10.829 -0.1489 -0.0293  0.3762
  102OSM   H12A10286   3.769   6.372  10.780 -1.4288  0.8928  1.4075
  102OSM   H12B10287   3.669   6.233  10.769 -0.0824 -1.6417  1.4803
  102OSM    C1110288   3.881   6.195  10.818 -0.3460 -0.5099 -0.1917
  102OSM   H11A10289   3.952   6.254  10.879 -1.2795 -1.3829  1.8488
  102OSM   H11B10290   3.927   6.197  10.717 -0.8523 -1.6371 -0.4628
  102OSM      P10291   3.982   5.985  10.929 -0.2081 -0.1090 -0.1440
  102OSM    O1310292   3.975   6.028  11.070  0.0803 -0.6707  0.4206
  102OSM    O1410293   3.983   5.841  10.888 -0.5922  0.2353 -0.2000
  102OSM    O1110294   4.109   6.057  10.869 -0.1388 -0.4479 -0.1118
  102OSM    O1210295   3.867   6.060  10.858  0.1704  0.1091 -0.4156
  102OSM    C1S10296   4.157   6.021  10.736  0.3798  0.0336 -0.0165
  102OSM    H1S10297   4.081   5.975  10.670 -2.1035 -0.5229  2.9877
  102OSM    H1T10298   4.226   5.935  10.749 -0.6509 -1.0478 -1.4795
  102OSM     NF10299   4.232   6.129  10.516  0.0774  0.5940  0.0924
  102OSM    HNF10300   4.318   6.119  10.467  0.4368  0.9611  0.6275
  102OSM    C2S10301   4.233   6.140  10.662 -0.2852 -0.1119  0.6361
  102OSM    H2S10302   4.173   6.234  10.671  2.4646  2.1878 -2.4545
  102OSM    C3S10303   4.368   6.181  10.722 -0.4240  0.0597 -0.9196
  102OSM    H3S10304   4.444   6.102  10.700  1.2289  1.5523 -0.8275
  102OSM     O310305   4.359   6.199  10.870  0.2861  0.5787  0.4831
  102OSM    HO310306   4.269   6.171  10.890  0.2534  2.3069  3.2130
  102OSM    C4S10307   4.425   6.301  10.660 -0.6035 -0.1777 -0.1374
  102OSM    H4S10308   4.488   6.270  10.575  0.0410 -2.2473  1.0148
  102OSM    C5S10309   4.387   6.428  10.680  0.0196  0.1019  0.6372
  102OSM    H5S10310   4.308   6.447  10.755 -0.4666  1.0124 -0.0850
  102OSM    C6S10311   4.422   6.550  10.604  0.5435 -0.0676 -0.4166
  102OSM    H6S10312   4.428   6.632  10.680 -0.0291 -0.5290  0.1411
  102OSM    H6T10313   4.341   6.580  10.535  1.1977  0.4725 -0.9529
  102OSM    C7S10314   4.539   6.550  10.502  0.1519 -0.2324 -0.3023
  102OSM    H7S10315   4.509   6.471  10.429  0.0408 -1.5680  1.1288
  102OSM    H7T10316   4.629   6.507  10.551 -1.4003 -1.6587  1.4420
  102OSM    C8S10317   4.567   6.694  10.454 -0.0477 -0.2781 -0.0320
  102OSM    H8S10318   4.564   6.776  10.529  2.2174  0.3002 -0.4911
  102OSM    H8T10319   4.477   6.721  10.395 -0.8811  0.1056  1.3731
  102OSM    C9S10320   4.690   6.697  10.361  0.0570  0.4795 -0.1645
  102OSM    H9S10321   4.667   6.629  10.276 -0.7205  0.0293  0.3887
  102OSM    H9T10322   4.771   6.644  10.416 -0.0412 -0.4252 -0.8564
  102OSM   C10S10323   4.729   6.824  10.297  0.4586  0.1827 -0.3616
  102OSM   H10S10324   4.726   6.894  10.382 -0.9573 -0.5177  0.1956
  102OSM   H10T10325   4.664   6.857  10.213 -0.4637 -2.1272 -0.6426
  102OSM   C11S10326   4.876   6.824  10.252  0.0871  0.3047 -0.1062
  102OSM   H11S10327   4.897   6.727  10.202  3.2601  0.3830  0.8733
  102OSM   H11T10328   4.952   6.827  10.333  2.0546 -0.0741 -1.8396
  102OSM   C12S10329   4.924   6.935  10.145  0.3209  0.6104  0.2145
  102OSM   H12S10330   4.902   7.037  10.182  0.4024  0.7765 -0.1949
  102OSM   H12T10331   4.863   6.914  10.054 -0.6588  2.1780  0.4684
  102OSM   C13S10332   5.066   6.925  10.115  0.0274 -0.0405  0.1226
  102OSM   H13S10333   5.083   6.819  10.086 -0.3398  0.4382 -2.0364
  102OSM   H13T10334   5.136   6.945  10.199  1.1711  0.0874 -0.8260
  102OSM   C14S10335   5.098   7.027  10.004 -0.5852 -0.0636  0.5454
  102OSM   H14S10336   5.087   7.135  10.028  3.1763  0.9741 -1.5785
  102OSM   H14T10337   5.037   7.014   9.912 -1.6113  0.5274  1.1215
  102OSM   C15S10338   5.255   7.019   9.970 -0.8681  0.3816 -0.5858
  102OSM   H15S10339   5.266   6.928   9.907  0.4471  0.0074  0.1392
  102OSM   H15T10340   5.314   7.019  10.064 -2.2921 -1.2911  0.3714
  102OSM   C16S10341   5.293   7.145   9.891 -0.9339  0.0895  0.2507
  102OSM   H16S10342   5.270   7.239   9.947 -2.2857 -0.4170  0.5805
  102OSM   H16T10343   5.237   7.148   9.796 -0.5815  0.6707  0.0595
  102OSM   C17S10344   5.439   7.146   9.853  0.7049  0.0803 -0.6401
  102OSM   H17S10345   5.463   7.065   9.781  2.0092  0.0880 -0.2265
  102OSM   H17T10346   5.501   7.136   9.944  0.9077  2.9195 -0.3985
  102OSM   C18S10347   5.482   7.277   9.788 -0.1358  0.0267 -0.9608
  102OSM   H18S10348   5.435   7.276   9.687  1.8033 -0.3493 -1.9123
  102OSM   H18T10349   5.592   7.289   9.778  0.0622  1.1814  1.7390
  102OSM   H18U10350   5.427   7.357   9.842 -3.4428 -1.1164 -2.3496
  102OSM    C1F10351   4.119   6.111  10.450  0.4134 -1.0952  0.0359
  102OSM     OF10352   4.016   6.144  10.508 -0.5612  0.0359  0.6402
  102OSM    C2F10353   4.128   6.039  10.319  0.1104 -0.5672 -0.0420
  102OSM    H2F10354   4.077   5.940  10.327  1.5443 -1.2116  1.9815
  102OSM    H2G10355   4.231   5.999  10.307 -0.0399 -1.0879  0.3377
  102OSM    C3F10356   4.091   6.130  10.199 -0.2835 -0.3281 -0.4092
  102OSM    H3F10357   4.143   6.227  10.212  0.3753 -0.5126 -1.5599
  102OSM    H3G10358   3.981   6.141  10.192  0.0161  2.1505 -2.8373
  102OSM    C4F10359   4.117   6.059  10.068 -0.4025  0.8410  0.1500
  102OSM    H4F10360   4.050   5.970  10.062  1.8741 -0.9462 -0.3769
  102OSM    H4G10361   4.225   6.034  10.056 -0.7198 -0.6272  0.2062
  102OSM    C5F10362   4.090   6.149   9.950  0.1520  0.0738 -0.7850
  102OSM    H5F10363   4.136   6.249   9.969 -0.2737 -0.0956  1.3104
  102OSM    H5G10364   3.982   6.148   9.925  0.6375 -0.2691 -3.1633
  102OSM    C6F10365   4.152   6.093   9.819  0.3083  0.3480  0.5928
  102OSM    H6F10366   4.116   5.988   9.822  1.2620  0.0357  2.1975
  102OSM    H6G10367   4.263   6.094   9.825  0.2683  1.2525  1.3887
  102OSM    C7F10368   4.118   6.155   9.683  0.5209 -0.0182  0.0224
  102OSM    H7F10369   4.162   6.255   9.662  0.5376 -0.3481 -1.7111
  102OSM    H7G10370   4.007   6.155   9.673  0.5118 -1.9062 -0.1321
  102OSM    C8F10371   4.174   6.067   9.568  0.8450 -0.3803  0.5981
  102OSM    H8F10372   4.128   5.966   9.572 -0.0777 -0.0515 -0.8381
  102OSM    H8G10373   4.280   6.044   9.588  0.7075 -1.2319  0.3916
  102OSM    C9F10374   4.136   6.112   9.426 -0.2810 -0.4321 -0.5858
  102OSM    H9F10375   4.028   6.105   9.407 -0.7186  1.5079  0.8113
  102OSM   C10F10376   4.214   6.175   9.339 -0.1284  0.7593 -0.3378
  102OSM   H10F10377   4.177   6.193   9.237 -1.5775 -1.4537 -0.2703
  102OSM   C11F10378   4.360   6.204   9.351  0.8294  0.5359 -0.5099
  102OSM   H11F10379   4.391   6.218   9.457 -2.1386  0.1505  0.5228
  102OSM   H11G10380   4.370   6.307   9.311  2.8492  1.0049  1.0311
  102OSM   C12F10381   4.454   6.117   9.273 -0.1399 -0.0510  0.3668
  102OSM   H12F10382   4.418   6.013   9.258  2.1247 -0.5517 -2.5150
  102OSM   H12G10383   4.552   6.111   9.326  0.0753  1.2796  0.1358
  102OSM   C13F10384   4.494   6.179   9.144  0.2750  0.0510  0.3173
  102OSM   H13F10385   4.569   6.260   9.155  0.5641  0.2728 -2.6355
  102OSM   H13G10386   4.403   6.217   9.094 -0.1492  0.0739  1.0940
  102OSM   C14F10387   4.553   6.081   9.046  0.5008 -0.3458  0.1884
  102OSM   H14F10388   4.468   6.014   9.019  1.8420 -0.7488 -3.6623
  102OSM   H14G10389   4.636   6.037   9.105  0.2446 -0.3342  0.5620
  102OSM   C15F10390   4.593   6.135   8.909  0.0898 -0.2611 -0.1521
  102OSM   H15F10391   4.693   6.183   8.915  0.2823 -0.7497  0.6935
  102OSM   H15G10392   4.516   6.209   8.878 -0.1397 -1.0523 -1.5154
  102OSM   C16F10393   4.618   6.028   8.798 -0.8433 -0.5293 -0.1119
  102OSM   H16F10394   4.526   5.966   8.788  1.1962 -3.6848 -0.6305
  102OSM   H16G10395   4.695   5.961   8.840 -0.2014 -0.3241 -0.9447
  102OSM   C17F10396   4.679   6.065   8.660  0.3786 -0.3409  0.2959
  102OSM   H17F10397   4.596   6.107   8.600  0.5460  2.1208  1.6396
  102OSM   H17G10398   4.700   5.968   8.610 -1.0344 -1.0000  0.9347
  102OSM   C18F10399   4.806   6.153   8.663  0.5262  0.6138 -0.1875
  102OSM   H18F10400   4.896   6.091   8.684 -0.6570 -1.8331 -1.8164
  102OSM   H18G10401   4.789   6.243   8.726 -1.2013 -1.9357  3.3220
  102OSM   H18H10402   4.820   6.201   8.563  0.2420 -0.5926 -0.8238
  103OSM      N10403   5.453   1.878  11.202  0.1634  0.2414  0.4596
  103OSM    C1510404   5.476   1.971  11.083  0.4134 -0.3203  0.1406
  103OSM   H15A10405   5.473   2.072  11.121  1.7794 -0.2749  0.1812
  103OSM   H15B10406   5.400   1.972  11.007  0.2466  2.8991  0.2132
  103OSM   H15C10407   5.572   1.963  11.034  0.5985 -0.7435  0.5684
  103OSM    C1410408   5.567   1.891  11.290 -0.1848 -0.7325  0.0753
  103OSM   H14A10409   5.600   1.993  11.301 -0.4169 -0.5890 -0.5096
  103OSM   H14B10410   5.653   1.850  11.238  1.1755  0.6932  1.1156
  103OSM   H14C10411   5.556   1.838  11.383 -0.3469 -0.3378  0.2802
  103OSM    C1310412   5.333   1.923  11.288 -0.1240 -0.5767 -0.0100
  103OSM   H13A10413   5.326   1.872  11.383  0.6819  0.4640  0.6268
  103OSM   H13B10414   5.238   1.907  11.238  0.6588 -0.2936 -1.6561
  103OSM   H13C10415   5.353   2.025  11.318  0.9372 -1.4511  2.5370
  103OSM    C1210416   5.425   1.736  11.161 -0.6171 -0.2742 -0.4305
  103OSM   H12A10417   5.323   1.728  11.126 -0.6867  2.5335 -1.1187
  103OSM   H12B10418   5.436   1.671  11.247 -1.0207 -1.0922 -0.9896
  103OSM    C1110419   5.516   1.681  11.051  0.0245  0.2904  0.2642
  103OSM   H11A10420   5.619   1.686  11.091 -0.4058 -4.7898  2.6972
  103OSM   H11B10421   5.504   1.738  10.956 -1.5231 -0.8770 -0.2891
  103OSM      P10422   5.583   1.445  10.969 -0.2224 -0.3091 -0.3362
  103OSM    O1310423   5.705   1.448  11.056  0.1186 -0.0442 -0.3502
  103OSM    O1410424   5.530   1.316  10.943  0.3688  0.4521 -0.7444
  103OSM    O1110425   5.629   1.518  10.836  0.0531 -0.3895  0.2644
  103OSM    O1210426   5.480   1.544  11.038  0.2031 -0.4932  0.5363
  103OSM    C1S10427   5.743   1.474  10.761 -0.5569  0.4792 -0.4378
  103OSM    H1S10428   5.736   1.365  10.741 -0.3430  0.4977 -0.6182
  103OSM    H1T10429   5.830   1.503  10.824 -0.3049 -1.8899  0.3811
  103OSM     NF10430   5.894   1.510  10.562  0.6843 -0.2607  0.2326
  103OSM    HNF10431   5.973   1.571  10.554 -0.0170  0.5761 -0.5264
  103OSM    C2S10432   5.764   1.552  10.624 -0.6495 -0.1409  0.0089
  103OSM    H2S10433   5.686   1.526  10.549 -0.8943  1.7504 -0.4341
  103OSM    C3S10434   5.745   1.703  10.641  0.0932 -0.7128 -0.5828
  103OSM    H3S10435   5.824   1.741  10.708 -0.0408  2.9163 -2.2528
  103OSM     O310436   5.629   1.739  10.721 -0.0799 -0.8136 -0.4232
  103OSM    HO310437   5.609   1.664  10.778 -0.7472 -0.0070  0.4418
  103OSM    C4S10438   5.758   1.776  10.509  0.1261 -0.0711 -0.1126
  103OSM    H4S10439   5.681   1.749  10.435 -1.0749 -0.9864  1.4184
  103OSM    C5S10440   5.849   1.865  10.462  0.1651 -0.3467 -0.2039
  103OSM    H5S10441   5.929   1.909  10.523 -0.8656 -0.2159  1.0934
  103OSM    C6S10442   5.837   1.907  10.313 -0.0894 -0.7306 -0.0768
  103OSM    H6S10443   5.905   1.994  10.301  2.2320 -2.5215 -0.7832
  103OSM    H6T10444   5.737   1.943  10.281 -0.3497 -1.0335  0.3900
  103OSM    C7S10445   5.875   1.788  10.208 -0.4083  0.2031 -0.5645
  103OSM    H7S10446   5.824   1.696  10.244  0.0843 -0.1637 -0.7856
  103OSM    H7T10447   5.985   1.777  10.222 -0.0723  2.3120 -1.1594
  103OSM    C8S10448   5.843   1.819  10.058 -0.7691  0.2262  0.1466
  103OSM    H8S10449   5.736   1.847  10.071 -0.2878  1.9729  0.7224
  103OSM    H8T10450   5.869   1.739   9.985  2.1686  0.6025  0.6834
  103OSM    C9S10451   5.912   1.946  10.008 -0.3066  0.3087  0.2242
  103OSM    H9S10452   6.019   1.918  10.007 -0.3598  0.0576  1.2107
  103OSM    H9T10453   5.904   2.021  10.089 -2.0770  1.3400 -0.8247
  103OSM   C10S10454   5.850   1.984   9.877 -0.2082 -0.3871  0.2285
  103OSM   H10S10455   5.904   2.080   9.862  1.2986 -1.4712 -1.6881
  103OSM   H10T10456   5.740   1.995   9.877 -0.1505  0.2039 -0.1050
  103OSM   C11S10457   5.890   1.897   9.757 -0.2878 -0.4996  0.2796
  103OSM   H11S10458   5.853   1.793   9.773 -0.4308 -0.2581  1.6434
  103OSM   H11T10459   6.001   1.892   9.748 -0.0982  3.0808 -0.7188
  103OSM   C12S10460   5.820   1.948   9.628 -0.0144  0.1268 -0.3737
  103OSM   H12S10461   5.848   2.055   9.628 -3.7584  1.3131  2.8532
  103OSM   H12T10462   5.711   1.936   9.639 -0.1271  2.3632  1.5194
  103OSM   C13S10463   5.856   1.863   9.505 -0.5212  1.1450  0.3976
  103OSM   H13S10464   5.862   1.757   9.539 -0.7822 -0.1414 -3.1291
  103OSM   H13T10465   5.956   1.892   9.469 -1.0436  2.2768 -0.1817
  103OSM   C14S10466   5.772   1.878   9.383 -0.4551 -0.2355 -0.5638
  103OSM   H14S10467   5.665   1.853   9.397 -0.4792 -0.7214 -1.5763
  103OSM   H14T10468   5.812   1.819   9.299  0.4823  1.2046 -1.1719
  103OSM   C15S10469   5.769   2.030   9.341  0.7151  0.5964 -0.0640
  103OSM   H15S10470   5.869   2.061   9.305  0.1152  1.7166 -0.8421
  103OSM   H15T10471   5.755   2.092   9.432  0.6865  0.3454  0.1040
  103OSM   C16S10472   5.659   2.060   9.238 -0.9489 -0.0707 -0.2793
  103OSM   H16S10473   5.633   2.168   9.249  0.6135  0.5604 -2.2641
  103OSM   H16T10474   5.570   1.995   9.250 -0.9640  0.0143  0.1043
  103OSM   C17S10475   5.709   2.044   9.096  0.8367 -0.0056 -0.0851
  103OSM   H17S10476   5.767   1.949   9.091 -1.0863 -1.1972 -0.6130
  103OSM   H17T10477   5.781   2.122   9.064  0.2507  1.1085  1.2253
  103OSM   C18S10478   5.603   2.041   8.980 -0.0781  0.0448  0.1795
  103OSM   H18S10479   5.632   2.000   8.882 -3.4597 -0.7324 -0.6373
  103OSM   H18T10480   5.557   2.137   8.950  1.4745  0.7852  0.0743
  103OSM   H18U10481   5.517   1.977   9.010 -0.0291 -1.2922 -2.3132
  103OSM    C1F10482   5.911   1.388  10.516 -0.0934  1.0710 -0.3323
  103OSM     OF10483   5.835   1.293  10.540 -0.1082  0.5842 -0.1403
  103OSM    C2F10484   6.040   1.370  10.444 -0.1058  0.0355  0.3936
  103OSM    H2F10485   6.063   1.262  10.457 -2.9976 -0.7011  0.0283
  103OSM    H2G10486   6.110   1.431  10.505  0.0986 -0.1631  0.3585
  103OSM    C3F10487   6.048   1.410  10.296 -0.4698  0.5175  0.4266
  103OSM    H3F10488   6.021   1.518  10.295  1.7984  1.1306 -1.3256
  103OSM    H3G10489   5.980   1.343  10.238  0.0216  0.1792  0.2329
  103OSM    C4F10490   6.197   1.414  10.243  0.0460  0.5084 -0.2919
  103OSM    H4F10491   6.246   1.325  10.288 -0.4165 -0.3634 -1.4935
  103OSM    H4G10492   6.235   1.508  10.289  0.7040 -0.1664  0.6046
  103OSM    C5F10493   6.214   1.429  10.093  0.2027 -0.0260  0.2886
  103OSM    H5F10494   6.173   1.343  10.037 -2.1673  1.3368 -0.1917
  103OSM    H5G10495   6.324   1.418  10.079  0.4245 -0.0427  1.8581
  103OSM    C6F10496   6.170   1.572  10.044 -0.3472  0.3146 -0.4025
  103OSM    H6F10497   6.213   1.646  10.115 -0.0034  0.1578 -0.4434
  103OSM    H6G10498   6.061   1.574  10.065 -0.0162  0.7944  1.4565
  103OSM    C7F10499   6.198   1.616   9.901  0.0030 -0.6835 -0.0133
  103OSM    H7F10500   6.308   1.626   9.885 -0.2330  0.5447 -1.0369
  103OSM    H7G10501   6.153   1.718   9.894 -2.0506 -1.5728 -0.5355
  103OSM    C8F10502   6.129   1.534   9.791  0.1212 -0.4272 -0.8793
  103OSM    H8F10503   6.023   1.535   9.825  0.2016 -2.9773 -0.3193
  103OSM    H8G10504   6.154   1.427   9.811  0.4158 -0.0974  0.6149
  103OSM    C9F10505   6.137   1.580   9.653  0.9745 -0.4528 -0.7044
  103OSM    H9F10506   6.109   1.686   9.637  0.0029 -0.8589 -1.8520
  103OSM   C10F10507   6.173   1.511   9.548  0.0910  0.1813  0.0808
  103OSM   H10F10508   6.177   1.556   9.447 -0.4303 -1.3792 -0.6724
  103OSM   C11F10509   6.213   1.364   9.543  0.5787  0.1002  0.2332
  103OSM   H11F10510   6.237   1.328   9.645  0.6499 -0.1555  0.1269
  103OSM   H11G10511   6.310   1.353   9.491  1.3052  1.7610  1.1586
  103OSM   C12F10512   6.102   1.272   9.490 -0.3755  0.3102  0.6185
  103OSM   H12F10513   6.006   1.294   9.542 -1.3038 -2.1360  0.0743
  103OSM   H12G10514   6.121   1.169   9.527 -0.1070  0.8192  1.9447
  103OSM   C13F10515   6.101   1.271   9.334 -0.2756 -0.1366 -0.7802
  103OSM   H13F10516   6.096   1.377   9.301  4.2961  0.9738  1.2177
  103OSM   H13G10517   6.204   1.236   9.311  1.2143  0.3699  3.8769
  103OSM   C14F10518   5.998   1.179   9.279  0.3965  0.0699 -0.0802
  103OSM   H14F10519   5.908   1.201   9.340  1.0898 -1.5849  1.6382
  103OSM   H14G10520   6.026   1.074   9.302  0.2579 -0.2422 -1.2433
  103OSM   C15F10521   5.960   1.202   9.132  0.2015  0.2699 -0.1097
  103OSM   H15F10522   6.050   1.204   9.066 -0.0880 -0.6650 -0.5493
  103OSM   H15G10523   5.922   1.304   9.115  1.5339  0.4154 -2.6775
  103OSM   C16F10524   5.886   1.089   9.065  0.1889  1.0654 -0.0932
  103OSM   H16F10525   5.811   1.042   9.132  1.1478  0.8873  0.8837
  103OSM   H16G10526   5.958   1.008   9.041  0.1686  1.4276 -1.5067
  103OSM   C17F10527   5.829   1.126   8.926  0.0248  0.1711 -0.1111
  103OSM   H17F10528   5.911   1.141   8.853  2.4809 -2.3470  1.9273
  103OSM   H17G10529   5.762   1.213   8.943  3.0452  2.8262 -0.9326
  103OSM   C18F10530   5.753   1.009   8.870  0.3388 -0.4891 -0.2514
  103OSM   H18F10531   5.821   0.921   8.876  2.1840  0.9708  3.0030
  103OSM   H18G10532   5.705   1.013   8.770  2.3039  1.1025 -1.1937
  103OSM   H18H10533   5.669   0.996   8.943  1.1305  0.2124  0.8154
  104OSM      N10534   4.099   1.266  10.896 -0.3667  0.2762 -0.0426
  104OSM    C1510535   3.987   1.352  10.847 -0.1817  0.1517 -0.3060
  104OSM   H15A10536   4.022   1.454  10.838  0.1741  0.2148  1.4188
  104OSM   H15B10537   3.912   1.354  10.925 -0.8232  2.4585 -0.8949
  104OSM   H15C10538   3.944   1.315  10.756  1.7685 -1.8480 -0.4911
  104OSM    C1410539   4.211   1.289  10.797 -0.3881  0.2205  0.2544
  104OSM   H14A10540   4.237   1.393  10.785  2.4617 -0.4827 -0.4177
  104OSM   H14B10541   4.181   1.248  10.701  1.3776 -1.4412  0.3287
  104OSM   H14C10542   4.296   1.229  10.828 -1.8089 -2.2513 -0.3175
  104OSM    C1310543   4.140   1.298  11.031 -0.1492  0.4050 -0.3650
  104OSM   H13A10544   4.231   1.243  11.054 -0.6388 -1.2834 -2.1311
  104OSM   H13B10545   4.070   1.283  11.112 -0.0588  0.1272 -0.3354
  104OSM   H13C10546   4.179   1.398  11.030  2.8543 -0.6619 -0.4806
  104OSM    C1210547   4.058   1.126  10.893  1.1756  0.4512 -0.0625
  104OSM   H12A10548   4.010   1.123  10.797  2.0629 -0.4046 -0.4856
  104OSM   H12B10549   3.983   1.112  10.971 -0.5296  3.8700 -0.8968
  104OSM    C1110550   4.170   1.023  10.909  0.1510  0.2975 -0.0100
  104OSM   H11A10551   4.118   0.938  10.957  0.1151  0.5742  0.4524
  104OSM   H11B10552   4.253   1.059  10.975  1.1915 -0.0265 -1.1042
  104OSM      P10553   4.206   0.854  10.710 -0.0714  0.6850 -0.2401
  104OSM    O1310554   4.326   0.780  10.748  0.0137 -0.5883 -0.4310
  104OSM    O1410555   4.078   0.805  10.758  0.4822  0.2273  0.1765
  104OSM    O1110556   4.204   0.866  10.552 -0.3563  0.5746 -0.7773
  104OSM    O1210557   4.223   1.000  10.776  0.6512  0.2758 -0.3548
  104OSM    C1S10558   4.279   0.975  10.507  0.0095  0.0538  0.7754
  104OSM    H1S10559   4.385   0.963  10.539  1.0050 -1.3276 -2.6654
  104OSM    H1T10560   4.236   1.072  10.541 -1.0656  0.0014 -0.3890
  104OSM     NF10561   4.401   1.049  10.311  0.1108 -0.2854  0.3355
  104OSM    HNF10562   4.383   1.147  10.301  0.8629 -0.2414 -0.7904
  104OSM    C2S10563   4.290   0.969  10.346 -1.0413 -0.0980 -0.2090
  104OSM    H2S10564   4.310   0.861  10.324 -0.7209 -1.0513  4.0457
  104OSM    C3S10565   4.150   0.997  10.281 -0.1341 -0.1607 -0.0662
  104OSM    H3S10566   4.122   1.104  10.291  1.1237  0.1404  0.4622
  104OSM     O310567   4.046   0.914  10.335  0.0935  0.0379  0.1186
  104OSM    HO310568   4.088   0.878  10.413  2.2407  0.4187 -0.7733
  104OSM    C4S10569   4.158   0.964  10.137 -0.2301  0.4063 -0.3957
  104OSM    H4S10570   4.212   0.873  10.108 -1.3099  0.4445 -2.7155
  104OSM    C5S10571   4.127   1.044  10.037  0.7693 -0.0919  0.1238
  104OSM    H5S10572   4.084   1.143  10.058  0.5921  0.5292 -2.8542
  104OSM    C6S10573   4.145   1.018   9.889  0.4551 -0.6867 -0.3472
  104OSM    H6S10574   4.073   0.938   9.860  0.6030 -1.0056  0.1465
  104OSM    H6T10575   4.246   0.977   9.866  0.1699 -1.8045  0.2695
  104OSM    C7S10576   4.124   1.145   9.806 -0.6510  0.2685  0.0410
  104OSM    H7S10577   4.199   1.216   9.846  1.6170 -1.8747 -0.1959
  104OSM    H7T10578   4.020   1.180   9.823 -0.4705  1.1766 -0.6703
  104OSM    C8S10579   4.139   1.118   9.653  0.6724  0.1876 -0.1534
  104OSM    H8S10580   4.231   1.057   9.638  0.2325 -0.4438 -0.3169
  104OSM    H8T10581   4.137   1.221   9.613 -1.2052  0.5947  0.8682
  104OSM    C9S10582   4.007   1.050   9.608 -0.9506  0.6345 -0.4268
  104OSM    H9S10583   3.927   1.124   9.632  0.6027  2.7084 -1.2846
  104OSM    H9T10584   3.977   0.956   9.658 -0.0794 -0.1509 -1.3413
  104OSM   C10S10585   3.992   1.021   9.463  0.0747  0.5983  0.9455
  104OSM   H10S10586   3.905   0.953   9.450  1.7627 -1.2522 -2.0352
  104OSM   H10T10587   4.082   0.967   9.425  0.2606  1.4095  0.2225
  104OSM   C11S10588   3.964   1.142   9.373 -0.5445  0.0005 -0.3058
  104OSM   H11S10589   4.045   1.217   9.386  0.5290 -1.4658  2.3058
  104OSM   H11T10590   3.871   1.191   9.410  0.1111  3.0937 -2.3421
  104OSM   C12S10591   3.947   1.098   9.236 -0.4667  0.0145  0.3176
  104OSM   H12S10592   3.881   1.009   9.243 -0.6904  0.2943  3.7668
  104OSM   H12T10593   4.041   1.056   9.194 -0.5033 -0.4295  0.6680
  104OSM   C13S10594   3.885   1.208   9.163 -0.1063 -0.2179 -0.0102
  104OSM   H13S10595   3.958   1.291   9.172 -1.5271  0.9418  1.4730
  104OSM   H13T10596   3.797   1.248   9.218  1.8175  0.9055  2.4850
  104OSM   C14S10597   3.852   1.176   9.020 -0.6217 -1.1040  0.1548
  104OSM   H14S10598   3.801   1.078   9.009 -1.9920 -0.4522  0.4819
  104OSM   H14T10599   3.947   1.171   8.963  0.0568 -0.1242  1.1456
  104OSM   C15S10600   3.756   1.275   8.948  0.0228 -0.5408 -0.0099
  104OSM   H15S10601   3.806   1.374   8.937 -0.4976 -0.3129 -0.3739
  104OSM   H15T10602   3.666   1.301   9.006  0.6582  0.1625  0.6778
  104OSM   C16S10603   3.714   1.215   8.811  0.0865 -0.4945  0.1804
  104OSM   H16S10604   3.652   1.124   8.824 -1.3975  0.3332 -0.8360
  104OSM   H16T10605   3.812   1.197   8.762 -0.5018 -1.2911 -0.7400
  104OSM   C17S10606   3.630   1.300   8.718  0.6109 -0.7873 -0.7852
  104OSM   H17S10607   3.616   1.255   8.617  1.1992 -1.7892 -0.4239
  104OSM   H17T10608   3.686   1.396   8.707 -0.0964 -0.3727 -0.8302
  104OSM   C18S10609   3.491   1.331   8.777  0.0524 -0.3225  0.9115
  104OSM   H18S10610   3.432   1.241   8.754  1.2446 -1.4283  1.9909
  104OSM   H18T10611   3.440   1.408   8.716 -0.0291 -1.2724 -0.2535
  104OSM   H18U10612   3.487   1.360   8.885  2.1622 -1.2755  1.3061
  104OSM    C1F10613   4.526   1.012  10.342 -0.1961  0.3495 -0.1710
  104OSM     OF10614   4.556   0.900  10.388 -0.0880 -0.6286 -0.0969
  104OSM    C2F10615   4.628   1.114  10.311  0.1298 -0.1385 -0.3098
  104OSM    H2F10616   4.697   1.117  10.398 -1.9945 -1.8039  1.5089
  104OSM    H2G10617   4.581   1.215  10.306  0.7281  0.4038  2.8862
  104OSM    C3F10618   4.717   1.080  10.183  0.0446  0.1015 -0.8393
  104OSM    H3F10619   4.763   0.980  10.199  0.2144  0.5582  2.2277
  104OSM    H3G10620   4.799   1.156  10.183 -1.2650  1.6860  1.9303
  104OSM    C4F10621   4.651   1.081  10.048  0.1843 -0.4089 -0.1235
  104OSM    H4F10622   4.574   1.001  10.044  0.0531 -0.2428 -1.0568
  104OSM    H4G10623   4.720   1.071   9.962  1.5855  0.8682  0.7989
  104OSM    C5F10624   4.573   1.203  10.015 -0.5922 -0.2530 -0.0220
  104OSM    H5F10625   4.639   1.290  10.035 -0.5051 -0.1377 -0.7857
  104OSM    H5G10626   4.498   1.209  10.097  0.0074  0.3283  0.4942
  104OSM    C6F10627   4.505   1.204   9.879 -0.0645  0.1163 -0.3178
  104OSM    H6F10628   4.435   1.288   9.895  0.0134 -0.1155  1.3556
  104OSM    H6G10629   4.440   1.114   9.881 -2.5077  1.7667 -0.9391
  104OSM    C7F10630   4.594   1.220   9.767 -0.0429 -0.1735  1.1540
  104OSM    H7F10631   4.661   1.132   9.760  0.6729  0.2869  2.0149
  104OSM    H7G10632   4.663   1.305   9.788 -0.1166  0.6343 -1.5452
  104OSM    C8F10633   4.507   1.245   9.637 -0.6936 -0.7679  0.3233
  104OSM    H8F10634   4.425   1.318   9.653  0.6907  0.4905  1.9273
  104OSM    H8G10635   4.447   1.157   9.605 -0.6885  0.2505 -2.8676
  104OSM    C9F10636   4.592   1.287   9.515 -0.2028  0.0180  0.3633
  104OSM    H9F10637   4.670   1.362   9.535  0.3556 -0.2681 -0.7220
  104OSM   C10F10638   4.589   1.236   9.385 -0.2607  0.3459 -0.2297
  104OSM   H10F10639   4.668   1.274   9.319 -0.1690 -0.4199 -0.5723
  104OSM   C11F10640   4.483   1.141   9.331  0.1545  0.3467 -0.0348
  104OSM   H11F10641   4.454   1.063   9.405  1.9210  1.4587  1.9254
  104OSM   H11G10642   4.507   1.088   9.236 -1.7580 -1.2312  0.2798
  104OSM   C12F10643   4.351   1.207   9.277  0.0822 -0.0270  0.2376
  104OSM   H12F10644   4.315   1.279   9.353 -0.9084 -0.9217  0.6546
  104OSM   H12G10645   4.271   1.129   9.279 -0.3352  0.4022  1.7595
  104OSM   C13F10646   4.365   1.276   9.141 -0.2976 -0.4731 -0.1237
  104OSM   H13F10647   4.432   1.211   9.080 -0.6536 -0.1776 -0.8317
  104OSM   H13G10648   4.412   1.375   9.158 -2.3416  0.5955 -0.3858
  104OSM   C14F10649   4.228   1.315   9.077 -0.8178  0.4229 -0.2084
  104OSM   H14F10650   4.176   1.369   9.160 -1.9822 -1.6426  0.4944
  104OSM   H14G10651   4.174   1.221   9.053  0.1120  0.0368 -0.8053
  104OSM   C15F10652   4.257   1.395   8.953 -0.2417  0.7166 -0.0054
  104OSM   H15F10653   4.337   1.353   8.888 -1.0777 -0.0948 -0.5431
  104OSM   H15G10654   4.295   1.495   8.982  0.2326  0.9441 -1.3329
  104OSM   C16F10655   4.127   1.424   8.870  0.0643  0.0662 -0.9270
  104OSM   H16F10656   4.057   1.478   8.937 -0.1827  0.1362 -1.2398
  104OSM   H16G10657   4.079   1.331   8.833  1.8614 -2.1185  1.8348
  104OSM   C17F10658   4.149   1.506   8.743  0.6128  0.1668  0.5010
  104OSM   H17F10659   4.057   1.519   8.682  0.6404 -2.1838 -0.1663
  104OSM   H17G10660   4.214   1.450   8.672 -1.0287 -2.4216  0.8871
  104OSM   C18F10661   4.174   1.652   8.778  0.4187  1.1430  0.4847
  104OSM   H18F10662   4.266   1.665   8.839  1.2517  0.9378 -0.6901
  104OSM   H18G10663   4.089   1.697   8.833 -1.2311 -0.2668 -0.7757
  104OSM   H18H10664   4.203   1.717   8.693 -0.0343  0.8870  0.1249
  105OSM      N10665   3.258   1.261  10.848  0.0421  0.2877 -0.4264
  105OSM    C1510666   3.183   1.256  10.717  0.8404 -0.0535  0.4907
  105OSM   H15A10667   3.193   1.356  10.677 -1.1420 -1.0451 -2.8850
  105OSM   H15B10668   3.077   1.252  10.738  0.6292  1.0103 -0.2750
  105OSM   H15C10669   3.220   1.183  10.647  0.8739  0.6951 -0.2795
  105OSM    C1410670   3.193   1.361  10.945  0.5556  0.2563  0.7075
  105OSM   H14A10671   3.256   1.372  11.032  1.3128  0.0822  0.1969
  105OSM   H14B10672   3.097   1.333  10.983 -0.1692  1.4449 -0.1500
  105OSM   H14C10673   3.167   1.455  10.899 -1.3455 -0.3670  0.4461
  105OSM    C1310674   3.255   1.132  10.919 -0.1100 -0.6515 -0.2528
  105OSM   H13A10675   3.159   1.088  10.941  0.4270 -0.7221  2.2592
  105OSM   H13B10676   3.316   1.137  11.008  0.2717 -1.8461 -0.4295
  105OSM   H13C10677   3.308   1.067  10.851  0.3496  0.3552 -0.8870
  105OSM    C1210678   3.404   1.308  10.826 -0.2443 -0.2357 -0.7001
  105OSM   H12A10679   3.451   1.309  10.923 -0.2599  0.7520 -0.6875
  105OSM   H12B10680   3.397   1.408  10.786 -2.5019  0.2509  0.7115
  105OSM    C1110681   3.493   1.226  10.734 -0.9443  0.2650  0.3645
  105OSM   H11A10682   3.589   1.282  10.735 -0.7295 -0.0879  1.9658
  105OSM   H11B10683   3.437   1.224  10.638 -0.8993 -1.2082  0.3411
  105OSM      P10684   3.632   1.047  10.877  0.3019 -0.3829 -0.4089
  105OSM    O1310685   3.658   1.127  11.002 -0.1707  0.2414 -0.1191
  105OSM    O1410686   3.604   0.905  10.902 -0.0380 -0.3235  0.2197
  105OSM    O1110687   3.755   1.069  10.774 -0.7525 -0.0577 -0.0685
  105OSM    O1210688   3.505   1.095  10.793 -0.1033 -0.2660 -0.1300
  105OSM    C1S10689   3.802   0.964  10.688  0.9867 -0.7229  0.0411
  105OSM    H1S10690   3.770   0.864  10.724 -2.0346  0.1225 -0.0202
  105OSM    H1T10691   3.913   0.961  10.686  1.1736  1.6005  2.3578
  105OSM     NF10692   3.787   0.854  10.466 -0.8403 -0.2936 -0.3558
  105OSM    HNF10693   3.865   0.860  10.404  0.2257 -0.8666  0.8861
  105OSM    C2S10694   3.748   0.975  10.538 -0.0305  0.4425 -0.8446
  105OSM    H2S10695   3.639   0.992  10.535  0.1321  1.7860 -0.1183
  105OSM    C3S10696   3.803   1.105  10.477  0.4413  0.3835 -0.0365
  105OSM    H3S10697   3.914   1.095  10.475  0.5433  1.3783  0.3276
  105OSM     O310698   3.780   1.216  10.562  0.1262 -0.0447  0.3145
  105OSM    HO310699   3.743   1.179  10.643 -1.9239  0.8506 -0.1535
  105OSM    C4S10700   3.750   1.127  10.334  0.3613 -0.2708 -0.0800
  105OSM    H4S10701   3.802   1.062  10.262  0.6405 -0.4542  0.2820
  105OSM    C5S10702   3.657   1.214  10.307 -0.7563 -0.5016  0.1490
  105OSM    H5S10703   3.607   1.273  10.384 -0.1266  0.7617 -0.3718
  105OSM    C6S10704   3.608   1.245  10.169 -0.5581  0.0709 -0.4342
  105OSM    H6S10705   3.628   1.351  10.144  0.1823  0.3036  1.0367
  105OSM    H6T10706   3.499   1.226  10.173 -0.3357 -1.1382  1.4590
  105OSM    C7S10707   3.680   1.169  10.050 -0.4315  0.2840  0.4293
  105OSM    H7S10708   3.676   1.058  10.050 -1.2890  0.2686 -1.7045
  105OSM    H7T10709   3.789   1.191  10.050  0.0297 -1.6145  2.5626
  105OSM    C8S10710   3.601   1.211   9.922  0.2874 -0.1827  0.3551
  105OSM    H8S10711   3.642   1.314   9.908  0.5051 -0.3008  0.1102
  105OSM    H8T10712   3.492   1.200   9.936  0.3835 -1.4076  0.2281
  105OSM    C9S10713   3.640   1.129   9.803  0.0638  0.0973 -0.5666
  105OSM    H9S10714   3.615   1.021   9.812  2.0487 -0.2557  1.6534
  105OSM    H9T10715   3.751   1.134   9.793 -0.1349  1.1640 -2.9536
  105OSM   C10S10716   3.590   1.175   9.668  0.3131 -0.8146 -0.2471
  105OSM   H10S10717   3.656   1.256   9.629 -0.1911 -0.6441 -0.7600
  105OSM   H10T10718   3.485   1.211   9.672 -0.3737 -2.7888  0.9427
  105OSM   C11S10719   3.600   1.076   9.554 -0.4615 -0.1931  0.6380
  105OSM   H11S10720   3.524   0.996   9.573  1.2013 -2.2300 -0.8376
  105OSM   H11T10721   3.702   1.032   9.552 -0.7702 -1.2536 -4.0140
  105OSM   C12S10722   3.581   1.136   9.418 -0.0011 -0.2136 -0.0926
  105OSM   H12S10723   3.610   1.066   9.336  1.5345 -0.6469  0.7842
  105OSM   H12T10724   3.649   1.223   9.404 -1.4829  1.1825  0.9985
  105OSM   C13S10725   3.435   1.178   9.394  0.3259  1.0159  0.2893
  105OSM   H13S10726   3.390   1.232   9.480 -0.5197 -1.3022  1.3989
  105OSM   H13T10727   3.367   1.089   9.388  0.7207  0.7456 -0.2679
  105OSM   C14S10728   3.425   1.263   9.263  0.3562 -0.5043 -0.6977
  105OSM   H14S10729   3.490   1.222   9.183  0.5763 -1.2344 -0.1607
  105OSM   H14T10730   3.470   1.363   9.285 -0.1889 -0.3161 -0.4244
  105OSM   C15S10731   3.280   1.289   9.215 -0.2580 -0.1897 -0.1410
  105OSM   H15S10732   3.280   1.381   9.153 -0.5756 -0.1099 -0.0226
  105OSM   H15T10733   3.217   1.303   9.305  1.3462  2.1608  0.6897
  105OSM   C16S10734   3.234   1.167   9.124 -0.1492 -0.7386 -0.3946
  105OSM   H16S10735   3.290   1.088   9.179  2.5748  2.3023  1.6216
  105OSM   H16T10736   3.278   1.175   9.023 -0.7029  1.2867 -0.5240
  105OSM   C17S10737   3.087   1.142   9.115 -0.2291  0.1686 -0.9511
  105OSM   H17S10738   3.040   1.237   9.083  1.3346  1.1006 -0.5510
  105OSM   H17T10739   3.036   1.109   9.208  0.5477 -1.4016 -1.0508
  105OSM   C18S10740   3.050   1.024   9.019 -0.4944  0.3277 -0.2412
  105OSM   H18S10741   3.088   1.041   8.916 -1.1200 -2.1748 -0.9612
  105OSM   H18T10742   2.939   1.023   9.016 -0.4931  1.2903 -1.0780
  105OSM   H18U10743   3.079   0.920   9.046 -1.5598  0.2509  0.7244
  105OSM    C1F10744   3.729   0.737  10.506 -0.0522 -0.1573  0.1308
  105OSM     OF10745   3.634   0.742  10.582  0.4708  0.1022 -0.1563
  105OSM    C2F10746   3.791   0.614  10.457 -0.4963 -0.0575 -0.6643
  105OSM    H2F10747   3.771   0.528  10.524 -1.5548 -1.1233 -2.2875
  105OSM    H2G10748   3.899   0.639  10.457 -0.3083 -0.7658  0.7159
  105OSM    C3F10749   3.733   0.553  10.331 -0.7104 -0.0764 -0.6340
  105OSM    H3F10750   3.642   0.497  10.363 -0.9271  0.8058  0.3532
  105OSM    H3G10751   3.807   0.490  10.278 -1.0191 -0.5191 -0.5471
  105OSM    C4F10752   3.688   0.656  10.223  0.5440 -0.0207  0.1435
  105OSM    H4F10753   3.774   0.714  10.183  0.1317  0.6127  0.1630
  105OSM    H4G10754   3.616   0.726  10.270 -0.5326 -0.4811 -0.7722
  105OSM    C5F10755   3.619   0.588  10.100  0.0935  0.0059 -0.2568
  105OSM    H5F10756   3.521   0.543  10.125 -0.5982  0.6543 -1.6711
  105OSM    H5G10757   3.683   0.505  10.062 -2.2365 -1.0415 -2.1317
  105OSM    C6F10758   3.606   0.681   9.988 -0.4372  0.0248  0.5819
  105OSM    H6F10759   3.701   0.738   9.981  0.2239 -0.5131  3.6981
  105OSM    H6G10760   3.524   0.756   9.997  1.0414  1.9880 -1.1708
  105OSM    C7F10761   3.577   0.617   9.847  0.1242 -0.5738 -0.4837
  105OSM    H7F10762   3.487   0.553   9.862  1.4525 -2.2024  1.0494
  105OSM    H7G10763   3.658   0.544   9.827  3.3224  1.1302  4.4525
  105OSM    C8F10764   3.572   0.732   9.744  0.1932  0.0136 -0.4395
  105OSM    H8F10765   3.671   0.783   9.743  1.1953 -1.8000 -1.8620
  105OSM    H8G10766   3.497   0.809   9.770 -0.8264 -0.7547 -1.0299
  105OSM    C9F10767   3.539   0.679   9.607  0.0310  0.2226 -0.3332
  105OSM    H9F10768   3.437   0.644   9.581  1.1053 -3.0267 -0.6823
  105OSM   C10F10769   3.620   0.671   9.501 -0.3419 -0.7337  0.5389
  105OSM   H10F10770   3.575   0.630   9.409  1.0035  0.4985 -0.7248
  105OSM   C11F10771   3.766   0.705   9.501  0.3514 -0.3164 -0.6533
  105OSM   H11F10772   3.815   0.639   9.576  1.3181  1.2154  0.1139
  105OSM   H11G10773   3.796   0.806   9.536  2.5867 -1.4019  0.8061
  105OSM   C12F10774   3.827   0.679   9.360 -0.7023  0.0502  0.0426
  105OSM   H12F10775   3.788   0.759   9.294 -1.3197  1.0559  1.5668
  105OSM   H12G10776   3.795   0.585   9.309 -0.2411  0.1049 -0.3551
  105OSM   C13F10777   3.981   0.678   9.361  0.4016  0.4434 -0.1278
  105OSM   H13F10778   4.006   0.612   9.446  1.7324  1.3207  0.1876
  105OSM   H13G10779   4.024   0.778   9.383  1.7901 -0.0310 -0.5704
  105OSM   C14F10780   4.048   0.635   9.230  0.2470  0.5237 -0.2161
  105OSM   H14F10781   4.036   0.529   9.200 -2.9620  1.0834 -1.2669
  105OSM   H14G10782   4.157   0.656   9.235  0.1573  1.5782 -2.0420
  105OSM   C15F10783   3.989   0.708   9.109 -0.5755  0.1388  0.4064
  105OSM   H15F10784   4.006   0.815   9.135  0.5545 -0.2157  1.2085
  105OSM   H15G10785   3.879   0.692   9.112 -0.4934 -0.5252  0.0282
  105OSM   C16F10786   4.045   0.654   8.972 -0.0378 -0.2734 -0.3767
  105OSM   H16F10787   4.025   0.545   8.972  2.1078 -0.7024 -1.1270
  105OSM   H16G10788   4.153   0.678   8.974 -0.4106  1.7670 -1.8922
  105OSM   C17F10789   3.975   0.704   8.839  0.0464  0.0658 -0.3501
  105OSM   H17F10790   4.011   0.650   8.749  0.5692  1.2785 -0.8731
  105OSM   H17G10791   4.002   0.811   8.831 -1.4014  0.5559  0.8906
  105OSM   C18F10792   3.822   0.702   8.828  0.3119  0.5919  0.7314
  105OSM   H18F10793   3.784   0.597   8.828  0.8645  0.3748 -0.7913
  105OSM   H18G10794   3.801   0.742   8.727 -0.6101 -1.7097 -0.0636
  105OSM   H18H10795   3.771   0.755   8.912 -0.5683  0.7021  0.1417
  106OSM      N10796   2.763   6.055  10.914 -0.8067 -0.4543 -0.1028
  106OSM    C1510797   2.638   6.090  10.996  0.8760 -0.4142 -0.0153
  106OSM   H15A10798   2.575   6.004  11.010  0.9336 -0.4729 -0.1075
  106OSM   H15B10799   2.580   6.156  10.932 -0.2331 -1.5055 -0.1676
  106OSM   H15C10800   2.657   6.140  11.090  1.8886 -0.5785 -0.1157
  106OSM    C1410801   2.854   5.957  10.975  0.2198  0.3272 -0.4605
  106OSM   H14A10802   2.942   5.943  10.914  0.2561 -1.0863 -0.1314
  106OSM   H14B10803   2.819   5.857  10.996  1.1796  0.0197 -0.2838
  106OSM   H14C10804   2.883   5.991  11.074  1.6349 -1.8971 -0.0474
  106OSM    C1310805   2.715   6.010  10.779 -0.0853 -0.7114 -0.2840
  106OSM   H13A10806   2.796   6.007  10.708  0.5495  1.2481  0.2979
  106OSM   H13B10807   2.641   6.070  10.729 -0.0529 -1.3619 -1.1460
  106OSM   H13C10808   2.670   5.912  10.770 -1.1644 -0.2376 -0.1232
  106OSM    C1210809   2.829   6.189  10.902  0.6168 -0.1896 -0.0900
  106OSM   H12A10810   2.867   6.213  11.000 -2.6800  2.0991  0.8262
  106OSM   H12B10811   2.745   6.255  10.884  1.4589  1.0269  0.3410
  106OSM    C1110812   2.937   6.213  10.794 -0.3564 -0.1667 -0.4453
  106OSM   H11A10813   2.972   6.317  10.808  0.6127 -0.1736 -2.4104
  106OSM   H11B10814   2.899   6.195  10.691 -1.5485 -1.9705  0.2567
  106OSM      P10815   3.197   6.178  10.846 -0.2117 -0.1789  0.1539
  106OSM    O1310816   3.189   6.302  10.932  0.3650 -0.8215  0.0991
  106OSM    O1410817   3.287   6.070  10.891  0.0534 -0.5715  0.2938
  106OSM    O1110818   3.248   6.232  10.707  0.0071  0.2696 -0.2313
  106OSM    O1210819   3.052   6.125  10.816  0.2167 -0.4008  0.0690
  106OSM    C1S10820   3.222   6.168  10.582 -0.3064 -0.3465  0.4731
  106OSM    H1S10821   3.130   6.218  10.544 -1.0441  0.6346  3.2679
  106OSM    H1T10822   3.194   6.061  10.597  1.0990 -0.8703 -0.4963
  106OSM     NF10823   3.298   6.115  10.350  0.0902  0.1098 -0.5211
  106OSM    HNF10824   3.358   6.039  10.323  0.2682  0.3660 -0.8477
  106OSM    C2S10825   3.329   6.191  10.467 -0.8735  0.4474 -0.0723
  106OSM    H2S10826   3.332   6.299  10.443  1.8188  0.3676 -0.4701
  106OSM    C3S10827   3.470   6.171  10.530  0.1307  0.2122 -0.5089
  106OSM    H3S10828   3.469   6.065  10.563 -2.0094  0.1598 -0.5956
  106OSM     O310829   3.493   6.260  10.643 -0.6848  0.3886 -0.9395
  106OSM    HO310830   3.413   6.311  10.655  0.2296  1.9874 -1.2988
  106OSM    C4S10831   3.582   6.184  10.430  0.1178  0.1743 -0.8878
  106OSM    H4S10832   3.597   6.088  10.379  0.7808  1.2869 -2.9191
  106OSM    C5S10833   3.649   6.295  10.398 -0.6187  0.3653  0.0123
  106OSM    H5S10834   3.627   6.393  10.442 -1.9709  0.5480 -1.0068
  106OSM    C6S10835   3.743   6.291  10.281  0.4522 -0.2494 -0.3270
  106OSM    H6S10836   3.736   6.190  10.235  1.7042 -0.5203  0.0559
  106OSM    H6T10837   3.845   6.303  10.322  0.2705 -2.8986  1.1346
  106OSM    C7S10838   3.720   6.394  10.168  0.0938  0.0832  0.1136
  106OSM    H7S10839   3.729   6.494  10.216 -0.5851 -1.1464  3.0778
  106OSM    H7T10840   3.616   6.378  10.132  0.0357  0.5753  0.0558
  106OSM    C8S10841   3.824   6.381  10.049  0.4413 -0.2661 -0.9145
  106OSM    H8S10842   3.789   6.296   9.987  0.9737 -1.5331  0.4417
  106OSM    H8T10843   3.926   6.355  10.084  0.7443  1.7087 -0.2063
  106OSM    C9S10844   3.861   6.506   9.973 -0.8362  0.3282  0.6934
  106OSM    H9S10845   3.879   6.591  10.042  0.5774  1.6739 -1.2201
  106OSM    H9T10846   3.779   6.534   9.903 -1.6317  1.6518  2.0805
  106OSM   C10S10847   3.983   6.499   9.878  0.2117 -0.8544  0.1514
  106OSM   H10S10848   3.976   6.420   9.800 -0.2884  0.5417 -1.2715
  106OSM   H10T10849   4.073   6.472   9.938 -0.1782 -1.6438  0.3891
  106OSM   C11S10850   4.020   6.625   9.803 -0.1852 -0.2490 -0.0573
  106OSM   H11S10851   3.981   6.714   9.857 -0.2959  0.1484 -0.7796
  106OSM   H11T10852   3.965   6.632   9.707 -3.3755  0.7791  1.6980
  106OSM   C12S10853   4.167   6.653   9.793 -0.3256  0.0552 -0.7993
  106OSM   H12S10854   4.222   6.620   9.884 -1.7281 -0.6806 -0.1962
  106OSM   H12T10855   4.187   6.762   9.790 -0.4702  0.1166  0.2014
  106OSM   C13S10856   4.222   6.576   9.671  0.0077 -0.2222  0.0798
  106OSM   H13S10857   4.141   6.566   9.595 -0.1690  0.3479  0.1833
  106OSM   H13T10858   4.253   6.474   9.700  3.2397  0.8242  0.6398
  106OSM   C14S10859   4.344   6.635   9.596 -0.5573  0.2319 -0.2689
  106OSM   H14S10860   4.432   6.624   9.664 -0.6520 -2.5457 -0.5031
  106OSM   H14T10861   4.329   6.744   9.578 -0.6502  0.4152  0.8535
  106OSM   C15S10862   4.374   6.573   9.452  0.1162  0.0789  1.0285
  106OSM   H15S10863   4.309   6.613   9.372 -0.4633 -3.9957 -0.7945
  106OSM   H15T10864   4.357   6.463   9.452 -0.6652  0.1901  0.0691
  106OSM   C16S10865   4.514   6.606   9.401  0.3094  0.0687 -0.3434
  106OSM   H16S10866   4.588   6.586   9.481  0.4193 -0.4620 -0.5734
  106OSM   H16T10867   4.511   6.717   9.390 -1.2069  0.5233  3.2355
  106OSM   C17S10868   4.546   6.541   9.270 -0.1834 -0.3217 -0.2790
  106OSM   H17S10869   4.462   6.555   9.199 -0.7298  2.6976  0.8391
  106OSM   H17T10870   4.558   6.431   9.281  0.5954 -0.2443 -0.2744
  106OSM   C18S10871   4.660   6.613   9.193 -0.2944  0.4869 -0.0045
  106OSM   H18S10872   4.672   6.562   9.096  0.5309  1.0193 -0.1937
  106OSM   H18T10873   4.754   6.615   9.253 -0.6225 -0.0107  0.5428
  106OSM   H18U10874   4.619   6.715   9.174 -0.9901  0.5825  1.7722
  106OSM    C1F10875   3.184   6.126  10.281  0.8098 -0.0979 -0.1503
  106OSM     OF10876   3.109   6.223  10.301  0.1567 -0.6297  0.6088
  106OSM    C2F10877   3.151   6.016  10.183  0.5155  0.0008 -0.0617
  106OSM    H2F10878   3.043   5.998  10.200  0.6322  0.6160  1.5173
  106OSM    H2G10879   3.213   5.925  10.196 -0.9484 -0.8674  1.1030
  106OSM    C3F10880   3.177   6.059  10.037  0.1047 -0.3033 -0.4229
  106OSM    H3F10881   3.280   6.093  10.017  1.2169 -1.8373  2.1588
  106OSM    H3G10882   3.112   6.146  10.015  0.2322  0.2670  1.2942
  106OSM    C4F10883   3.138   5.948   9.938 -0.2620 -0.0649  0.0405
  106OSM    H4F10884   3.044   5.898   9.970 -0.6200  1.6394  1.8348
  106OSM    H4G10885   3.218   5.872   9.948 -1.0511 -0.9302 -0.1251
  106OSM    C5F10886   3.128   5.995   9.788 -0.0960 -0.0086  0.0556
  106OSM    H5F10887   3.213   6.065   9.777  0.8766 -0.7946  2.1450
  106OSM    H5G10888   3.029   6.038   9.763  0.3510  0.6012 -0.7025
  106OSM    C6F10889   3.138   5.877   9.686  0.0711  0.5313  0.3882
  106OSM    H6F10890   3.055   5.806   9.706 -0.5767  0.8635 -1.0057
  106OSM    H6G10891   3.232   5.822   9.704  0.5741  1.1188 -0.4007
  106OSM    C7F10892   3.132   5.936   9.543 -0.1823 -0.3731 -0.2090
  106OSM    H7F10893   3.185   6.033   9.540 -2.2187  0.7857 -1.3207
  106OSM    H7G10894   3.028   5.960   9.510 -0.1080  0.1241 -0.0800
  106OSM    C8F10895   3.186   5.827   9.441 -0.3526  0.3136  0.6505
  106OSM    H8F10896   3.110   5.747   9.428 -0.8814  1.0540 -1.2866
  106OSM    H8G10897   3.277   5.786   9.489  0.8962  0.1531 -1.6767
  106OSM    C9F10898   3.219   5.888   9.299 -0.1633  0.2795 -0.4874
  106OSM    H9F10899   3.248   5.993   9.293  1.2477  0.1008  1.7993
  106OSM   C10F10900   3.182   5.830   9.187 -0.2923 -0.5762  0.2046
  106OSM   H10F10901   3.197   5.894   9.098 -1.0236 -0.7902 -0.0742
  106OSM   C11F10902   3.107   5.706   9.166  0.3119  0.5477 -0.2701
  106OSM   H11F10903   3.036   5.730   9.084 -0.3427 -0.1805  0.0771
  106OSM   H11G10904   3.056   5.671   9.258 -1.7886  0.4963 -1.3848
  106OSM   C12F10905   3.199   5.601   9.110  0.1228 -0.4932  0.0141
  106OSM   H12F10906   3.127   5.516   9.111 -0.3969 -0.0632  0.5702
  106OSM   H12G10907   3.283   5.582   9.181 -0.3612  1.6713  1.2451
  106OSM   C13F10908   3.249   5.616   8.967 -0.2320 -0.0397  0.2638
  106OSM   H13F10909   3.312   5.706   8.949 -0.7338  0.0592 -1.1012
  106OSM   H13G10910   3.168   5.647   8.898  1.3507  1.7468 -0.9052
  106OSM   C14F10911   3.320   5.498   8.900 -0.2174 -0.3082 -0.8021
  106OSM   H14F10912   3.346   5.531   8.797 -0.3503 -0.4214 -0.8723
  106OSM   H14G10913   3.264   5.402   8.895 -0.3508 -0.2068 -1.2581
  106OSM   C15F10914   3.464   5.463   8.958  0.2055  0.5561  0.1835
  106OSM   H15F10915   3.452   5.443   9.067  1.9627 -1.7989  0.0156
  106OSM   H15G10916   3.535   5.548   8.961  1.9597 -0.8552  0.1716
  106OSM   C16F10917   3.530   5.335   8.899  0.2175 -0.2277 -0.1952
  106OSM   H16F10918   3.522   5.334   8.788 -0.2303 -0.7491 -0.1588
  106OSM   H16G10919   3.487   5.247   8.950  2.0251 -0.8353  0.3860
  106OSM   C17F10920   3.677   5.326   8.939  0.1292  0.1160  0.5380
  106OSM   H17F10921   3.699   5.219   8.920  1.0869  0.4196 -0.1283
  106OSM   H17G10922   3.677   5.346   9.049 -2.4580 -1.9167  1.0207
  106OSM   C18F10923   3.777   5.402   8.855 -0.6781  0.0994  0.1254
  106OSM   H18F10924   3.772   5.509   8.882  0.7656  0.1477  0.2612
  106OSM   H18G10925   3.753   5.381   8.749  2.5047 -3.0413 -0.1785
  106OSM   H18H10926   3.875   5.349   8.861 -1.5217 -1.9333 -2.1919
  107OSM      N10927   5.810   4.117  11.198  0.1847 -0.5484 -0.0514
  107OSM    C1510928   5.958   4.125  11.227  0.4093 -0.3803  0.1258
  107OSM   H15A10929   5.985   4.059  11.308  1.8813 -0.2292 -0.2093
  107OSM   H15B10930   6.001   4.223  11.241  0.2274 -0.3774  0.7145
  107OSM   H15C10931   6.017   4.083  11.147 -1.5584 -3.1549 -0.0074
  107OSM    C1410932   5.767   3.980  11.212 -0.2459  0.2188 -0.5819
  107OSM   H14A10933   5.661   3.964  11.198 -0.4625 -0.9054  1.7692
  107OSM   H14B10934   5.794   3.931  11.305 -0.6056  0.3073 -0.4273
  107OSM   H14C10935   5.810   3.919  11.135  0.0650  1.0121 -1.0394
  107OSM    C1310936   5.730   4.197  11.294  0.2839 -0.1475 -0.4903
  107OSM   H13A10937   5.740   4.169  11.398 -0.7793  0.7778 -0.1217
  107OSM   H13B10938   5.628   4.192  11.258  0.4868 -1.7502 -0.9417
  107OSM   H13C10939   5.764   4.299  11.287 -0.0579  0.0694  0.7325
  107OSM    C1210940   5.792   4.170  11.057  0.5722 -0.5559  0.1531
  107OSM   H12A10941   5.831   4.271  11.058  1.6283 -0.9503  1.0945
  107OSM   H12B10942   5.687   4.188  11.042  0.4683 -0.8169  0.5684
  107OSM    C1110943   5.852   4.090  10.940 -0.5670 -0.0571 -1.0039
  107OSM   H11A10944   5.816   4.125  10.841 -0.2894  0.4476 -0.9294
  107OSM   H11B10945   5.815   3.986  10.953  3.5463 -1.5361  0.5312
  107OSM      P10946   6.104   4.176  10.917  0.1839  0.5553  0.7580
  107OSM    O1310947   6.104   4.267  11.031  0.8636 -0.0370 -0.3713
  107OSM    O1410948   6.230   4.100  10.905  0.4993 -0.1023  0.1857
  107OSM    O1110949   6.064   4.250  10.785 -0.0386  0.4470  0.2230
  107OSM    O1210950   5.989   4.069  10.940  0.4023  0.0289 -0.2509
  107OSM    C1S10951   6.064   4.170  10.665 -0.4125  0.7173  0.0515
  107OSM    H1S10952   6.022   4.067  10.673  0.7348  0.2932  0.8905
  107OSM    H1T10953   6.166   4.153  10.624 -1.9150 -0.0748 -3.7614
  107OSM     NF10954   6.001   4.173  10.418 -0.1343  0.3764  0.2654
  107OSM    HNF10955   6.056   4.221  10.350  2.4117 -0.8594  1.3171
  107OSM    C2S10956   5.997   4.247  10.543  0.2468  0.7057 -0.4792
  107OSM    H2S10957   5.892   4.259  10.578  0.4525 -2.9906  1.9897
  107OSM    C3S10958   6.054   4.390  10.538 -0.7599 -0.0364  0.2223
  107OSM    H3S10959   6.162   4.379  10.517 -1.1790 -1.1329 -1.5160
  107OSM     O310960   6.039   4.472  10.655  0.5559  0.8244 -0.2139
  107OSM    HO310961   6.015   4.407  10.722 -1.2304  2.0287  0.3701
  107OSM    C4S10962   5.989   4.461  10.422 -0.1953 -0.5741  0.4886
  107OSM    H4S10963   5.879   4.467  10.425 -0.1383  0.4689  3.0500
  107OSM    C5S10964   6.061   4.512  10.313 -0.1282  0.0845 -0.2827
  107OSM    H5S10965   6.167   4.486  10.305  0.3926  0.9972  2.4627
  107OSM    C6S10966   5.999   4.573  10.189 -0.1624  0.1765  0.0175
  107OSM    H6S10967   5.983   4.683  10.192  0.4067  0.3303 -1.6275
  107OSM    H6T10968   5.898   4.528  10.174 -1.0056  2.4307 -1.6377
  107OSM    C7S10969   6.073   4.542  10.055  0.1770  0.1502  1.2385
  107OSM    H7S10970   6.049   4.438  10.026 -1.0134  0.3219  1.5254
  107OSM    H7T10971   6.181   4.567  10.053  0.3625 -0.5289  2.1744
  107OSM    C8S10972   6.024   4.628   9.933  0.5719 -0.3827 -0.1786
  107OSM    H8S10973   6.036   4.733   9.967  4.8410 -0.0334 -2.0770
  107OSM    H8T10974   5.919   4.610   9.903  1.1632 -1.5046 -1.6854
  107OSM    C9S10975   6.105   4.602   9.805  0.2031  0.0862 -0.7071
  107OSM    H9S10976   6.084   4.499   9.769  0.5001 -0.5905  0.9777
  107OSM    H9T10977   6.212   4.620   9.824  1.3569 -3.2388 -3.1170
  107OSM   C10S10978   6.048   4.692   9.690 -0.0988 -0.7643  0.4859
  107OSM   H10S10979   6.060   4.796   9.728 -0.4454 -0.0831 -1.1910
  107OSM   H10T10980   5.940   4.668   9.693  0.0417 -1.4832 -0.1659
  107OSM   C11S10981   6.103   4.689   9.543  0.8785 -0.3292 -0.5946
  107OSM   H11S10982   6.134   4.589   9.505  0.3493 -0.5562 -0.4451
  107OSM   H11T10983   6.188   4.760   9.541  0.9981 -0.4283  0.3927
  107OSM   C12S10984   5.999   4.736   9.437  0.2817  0.1078  0.6099
  107OSM   H12S10985   5.948   4.833   9.458 -1.6200 -0.3448 -1.5616
  107OSM   H12T10986   5.921   4.658   9.441  2.0338 -2.1420 -3.2920
  107OSM   C13S10987   6.066   4.759   9.300 -0.1160  0.7435 -0.7194
  107OSM   H13S10988   6.121   4.667   9.268 -0.2862  0.4518 -0.1885
  107OSM   H13T10989   6.149   4.830   9.320  0.7531 -0.7004  1.1334
  107OSM   C14S10990   5.967   4.814   9.199  0.0020  0.0701 -0.7830
  107OSM   H14S10991   5.941   4.901   9.262  1.1903 -0.3375  0.3025
  107OSM   H14T10992   5.882   4.742   9.194 -0.1844 -0.0924  2.6976
  107OSM   C15S10993   6.028   4.864   9.073 -0.0918  0.6413  0.5636
  107OSM   H15S10994   6.071   4.787   9.006  0.0986  0.0307  1.3711
  107OSM   H15T10995   6.112   4.930   9.103  0.1264  0.6860 -0.1300
  107OSM   C16S10996   5.945   4.963   8.986  0.0555 -1.0563 -0.5089
  107OSM   H16S10997   6.015   4.987   8.903 -0.9740 -1.8161 -1.6213
  107OSM   H16T10998   5.925   5.050   9.053 -1.6216 -2.0900  0.4010
  107OSM   C17S10999   5.815   4.916   8.930  0.0720 -0.4194 -0.0572
  107OSM   H17S11000   5.770   4.998   8.869 -0.2439 -0.8509 -0.4105
  107OSM   H17T11001   5.731   4.901   9.001 -2.1911 -0.5774 -2.6114
  107OSM   C18S11002   5.821   4.784   8.861  0.0337 -0.1569 -1.0033
  107OSM   H18S11003   5.860   4.710   8.933 -1.6014  0.1400  0.2441
  107OSM   H18T11004   5.876   4.807   8.767  0.0603 -1.4089 -1.3069
  107OSM   H18U11005   5.724   4.733   8.841 -1.4412  1.7415  0.8400
  107OSM    C1F11006   5.930   4.069  10.398 -0.4767 -0.0621  0.0301
  107OSM     OF11007   5.862   4.028  10.492 -0.6299 -0.7189  0.1942
  107OSM    C2F11008   5.937   4.001  10.261  0.2628  0.6382  0.6609
  107OSM    H2F11009   5.968   3.895  10.276  0.4348  0.4163 -1.0556
  107OSM    H2G11010   6.020   4.038  10.199  0.1923 -2.2476 -1.3844
  107OSM    C3F11011   5.802   4.020  10.187 -1.0279 -0.4414 -0.2434
  107OSM    H3F11012   5.722   3.964  10.240 -1.3410 -2.2395 -2.4605
  107OSM    H3G11013   5.812   3.969  10.089 -1.9479  0.9037 -1.0807
  107OSM    C4F11014   5.761   4.161  10.168  0.0331 -0.2726  0.7289
  107OSM    H4F11015   5.846   4.211  10.116  0.0409 -0.1791  0.8306
  107OSM    H4G11016   5.733   4.206  10.266 -0.2086  1.2248  0.0135
  107OSM    C5F11017   5.639   4.166  10.074  0.2660  0.4514  0.2184
  107OSM    H5F11018   5.585   4.258  10.103 -1.1887 -0.3616  0.1995
  107OSM    H5G11019   5.573   4.080  10.099  0.7394 -0.2612 -0.8854
  107OSM    C6F11020   5.657   4.170   9.920 -0.2771 -0.6684  0.2040
  107OSM    H6F11021   5.567   4.206   9.866  0.2252  0.2665 -0.0215
  107OSM    H6G11022   5.667   4.063   9.892  1.3690 -0.5834  0.3964
  107OSM    C7F11023   5.779   4.252   9.854  0.0058  0.3961 -0.5096
  107OSM    H7F11024   5.867   4.186   9.848 -0.8728 -0.9343  0.5496
  107OSM    H7G11025   5.816   4.335   9.918  2.5649  2.6150 -4.4958
  107OSM    C8F11026   5.752   4.329   9.726  0.4287 -0.4645  0.2396
  107OSM    H8F11027   5.842   4.392   9.709  0.2100 -0.3114 -0.3549
  107OSM    H8G11028   5.668   4.400   9.735 -0.4878 -1.6600  1.5311
  107OSM    C9F11029   5.721   4.245   9.604 -0.9663 -0.5855 -0.0878
  107OSM    H9F11030   5.638   4.173   9.607 -0.3323 -1.3168  0.0320
  107OSM   C10F11031   5.791   4.263   9.491 -0.2579  0.9909  0.5404
  107OSM   H10F11032   5.755   4.201   9.408 -1.1094 -0.7075  2.0979
  107OSM   C11F11033   5.912   4.352   9.469 -0.0608 -0.2083  0.2204
  107OSM   H11F11034   5.978   4.347   9.559  1.2207  0.3061 -0.6691
  107OSM   H11G11035   5.868   4.454   9.467 -1.7721 -0.9187 -2.1908
  107OSM   C12F11036   5.979   4.339   9.336  0.5863  0.4257 -0.4007
  107OSM   H12F11037   5.986   4.229   9.323 -0.1395  0.1762  1.0746
  107OSM   H12G11038   6.076   4.393   9.335 -0.3132  2.2266  1.6309
  107OSM   C13F11039   5.892   4.402   9.218  0.0033  0.6162 -0.2451
  107OSM   H13F11040   5.916   4.510   9.225  1.6762  0.1913  1.2073
  107OSM   H13G11041   5.788   4.370   9.240  0.2962 -0.3737 -0.2582
  107OSM   C14F11042   5.935   4.368   9.072 -0.0110 -0.2803  0.8406
  107OSM   H14F11043   5.866   4.421   9.003 -1.5795 -0.4557  2.2248
  107OSM   H14G11044   5.926   4.259   9.053  0.5011 -0.0014 -1.3723
  107OSM   C15F11045   6.070   4.420   9.024  0.3974 -0.0794  0.0698
  107OSM   H15F11046   6.140   4.363   9.089  0.4893  0.4877  0.4742
  107OSM   H15G11047   6.088   4.523   9.061  1.0255  0.3897 -1.4614
  107OSM   C16F11048   6.087   4.403   8.874 -0.3390  0.0098 -0.7381
  107OSM   H16F11049   6.019   4.475   8.822 -0.8997 -0.7894 -1.1404
  107OSM   H16G11050   6.068   4.296   8.848 -1.0711 -0.0972  0.1863
  107OSM   C17F11051   6.233   4.441   8.843 -0.2763 -0.0506  0.1972
  107OSM   H17F11052   6.295   4.382   8.914  0.8489 -0.1552 -0.8425
  107OSM   H17G11053   6.232   4.549   8.866 -0.1791  0.3601 -1.5819
  107OSM   C18F11054   6.270   4.406   8.698  0.2880 -0.8552  0.2943
  107OSM   H18F11055   6.214   4.317   8.662  0.8302 -0.8438 -0.5992
  107OSM   H18G11056   6.381   4.400   8.696  0.2991 -0.6858  0.3782
  107OSM   H18H11057   6.242   4.485   8.624 -1.1739 -0.5333  1.1541
  108OSM      N11058   2.291   1.334  11.048 -0.4138 -0.3657 -0.0167
  108OSM    C1511059   2.189   1.301  11.150 -0.3385  1.1787 -0.1241
  108OSM   H15A11060   2.084   1.306  11.128 -0.5931 -0.2071  0.6718
  108OSM   H15B11061   2.202   1.359  11.241 -1.0233  0.9358  0.1316
  108OSM   H15C11062   2.198   1.194  11.164 -2.5751  0.7989 -1.1580
  108OSM    C1411063   2.302   1.482  11.042 -0.1367 -0.7372 -0.4706
  108OSM   H14A11064   2.208   1.534  11.053  0.9976  1.2924  0.2209
  108OSM   H14B11065   2.362   1.512  10.957  0.0209 -0.9908 -0.4500
  108OSM   H14C11066   2.347   1.518  11.134  0.5736 -0.2214 -1.0024
  108OSM    C1311067   2.420   1.280  11.096  0.3365  0.4050  0.0509
  108OSM   H13A11068   2.406   1.177  11.125 -0.2631  0.0648 -1.3382
  108OSM   H13B11069   2.460   1.340  11.177  0.7504 -0.5939  0.6055
  108OSM   H13C11070   2.495   1.294  11.020  0.0749  1.6621 -0.0013
  108OSM    C1211071   2.248   1.277  10.913 -0.7628 -0.4431 -0.5580
  108OSM   H12A11072   2.233   1.170  10.918 -0.1945 -0.5153 -0.3278
  108OSM   H12B11073   2.337   1.278  10.852 -0.0742 -1.1150  0.3913
  108OSM    C1111074   2.115   1.339  10.849 -0.0373  0.2050 -0.7705
  108OSM   H11A11075   2.104   1.278  10.757 -1.1215 -1.0673  0.1761
  108OSM   H11B11076   2.132   1.445  10.819 -1.7445  1.5412  2.5053
  108OSM      P11077   1.907   1.201  10.931  0.2481  0.0247 -0.1092
  108OSM    O1311078   1.978   1.090  10.862 -0.9216  0.6492  0.4344
  108OSM    O1411079   1.869   1.168  11.073 -0.0574  0.1716 -0.0915
  108OSM    O1111080   1.788   1.240  10.839  0.7277 -0.0055  0.3243
  108OSM    O1211081   1.996   1.328  10.927  0.5612  0.1218  0.4977
  108OSM    C1S11082   1.803   1.334  10.737 -0.1982 -0.6229  0.5304
  108OSM    H1S11083   1.896   1.305  10.684  0.2154 -0.8223  1.3552
  108OSM    H1T11084   1.817   1.435  10.780 -2.2173  0.7220 -1.6923
  108OSM     NF11085   1.712   1.416  10.524  0.0167 -0.1587  0.3241
  108OSM    HNF11086   1.651   1.490  10.499 -0.3937 -0.7992 -0.6270
  108OSM    C2S11087   1.682   1.325  10.634 -0.4888  0.2915 -1.0716
  108OSM    H2S11088   1.663   1.225  10.591  2.6650  0.1314 -2.3726
  108OSM    C3S11089   1.545   1.352  10.705  0.4578  0.0827 -0.0397
  108OSM    H3S11090   1.543   1.460  10.731 -1.0006  0.2385 -0.6903
  108OSM     O311091   1.522   1.291  10.833  0.0912  0.2108  0.3071
  108OSM    HO311092   1.612   1.261  10.847 -0.4368 -1.4116  0.3394
  108OSM    C4S11093   1.432   1.311  10.618 -0.2532 -0.3467  0.1727
  108OSM    H4S11094   1.446   1.205  10.594 -0.5050 -0.6158  1.1622
  108OSM    C5S11095   1.318   1.371  10.591  0.3440  0.3262 -0.7578
  108OSM    H5S11096   1.302   1.472  10.630 -0.0261 -0.9105  2.5837
  108OSM    C6S11097   1.212   1.319  10.495  0.1534  0.3215  1.0640
  108OSM    H6S11098   1.110   1.354  10.522 -0.3723 -2.1542  2.6336
  108OSM    H6T11099   1.198   1.210  10.512 -2.6195  0.1530 -1.4764
  108OSM    C7S11100   1.235   1.337  10.345 -0.1690 -0.4131  0.0511
  108OSM    H7S11101   1.307   1.260  10.309 -0.2262  0.5673 -2.3949
  108OSM    H7T11102   1.277   1.440  10.331  0.0717 -0.5363 -0.1488
  108OSM    C8S11103   1.111   1.331  10.257  0.6137  0.4068 -0.1837
  108OSM    H8S11104   1.046   1.418  10.278  0.4678  0.0518  0.9683
  108OSM    H8T11105   1.059   1.237  10.287 -0.2904  1.0373  0.2634
  108OSM    C9S11106   1.147   1.321  10.113  0.2478  0.2006 -0.0339
  108OSM    H9S11107   1.224   1.242  10.100 -0.1268 -0.3202  0.8113
  108OSM    H9T11108   1.202   1.414  10.089  1.3716 -0.9975 -2.5049
  108OSM   C10S11109   1.021   1.306  10.030 -0.1352  0.1307  0.7139
  108OSM   H10S11110   0.946   1.385  10.052 -1.1479 -1.2576  2.5430
  108OSM   H10T11111   0.974   1.208  10.054  2.5669 -1.9028 -1.6727
  108OSM   C11S11112   1.068   1.309   9.877  0.2069 -0.0286 -0.1028
  108OSM   H11S11113   1.138   1.222   9.878 -1.6663 -1.6713  2.4268
  108OSM   H11T11114   1.116   1.404   9.849 -0.7169  0.0147 -1.6587
  108OSM   C12S11115   0.952   1.278   9.782  0.4304 -0.5326 -0.1853
  108OSM   H12S11116   0.865   1.341   9.811  0.3330 -0.7808  0.0632
  108OSM   H12T11117   0.928   1.171   9.768 -1.6250 -0.0009 -0.9693
  108OSM   C13S11118   0.977   1.316   9.633 -0.1619 -0.1540 -0.4643
  108OSM   H13S11119   1.056   1.247   9.597 -1.4887 -0.8298 -2.2550
  108OSM   H13T11120   1.029   1.414   9.630  2.4074 -1.3246  1.8001
  108OSM   C14S11121   0.853   1.318   9.543  0.0814  0.6974  0.7722
  108OSM   H14S11122   0.786   1.395   9.587  0.2072  1.9563 -1.1441
  108OSM   H14T11123   0.812   1.215   9.552  0.6495  0.5379  1.7162
  108OSM   C15S11124   0.878   1.358   9.393 -0.0959  0.1540 -0.1144
  108OSM   H15S11125   0.975   1.314   9.364 -0.1456  0.6921 -1.1401
  108OSM   H15T11126   0.891   1.468   9.390 -0.3055  0.2875  2.2629
  108OSM   C16S11127   0.767   1.301   9.297  0.5080 -0.3637 -0.2283
  108OSM   H16S11128   0.669   1.347   9.322  1.5175  0.5223  2.4292
  108OSM   H16T11129   0.771   1.194   9.327 -0.8881 -0.5576 -0.6856
  108OSM   C17S11130   0.802   1.322   9.148 -0.0558  0.0389  0.5813
  108OSM   H17S11131   0.898   1.271   9.126  1.6666  2.0706  2.8367
  108OSM   H17T11132   0.812   1.429   9.123 -2.3799 -0.2943 -2.2764
  108OSM   C18S11133   0.707   1.263   9.045  0.4763  0.1484  0.5727
  108OSM   H18S11134   0.602   1.297   9.055  0.0792 -0.8523 -0.0508
  108OSM   H18T11135   0.712   1.152   9.046  2.6710  0.2156  1.4830
  108OSM   H18U11136   0.748   1.289   8.945  2.5952 -1.9280  0.8193
  108OSM    C1F11137   1.808   1.386  10.436  0.2092  0.6242  0.5275
  108OSM     OF11138   1.872   1.276  10.446  0.0164  0.5532  0.0231
  108OSM    C2F11139   1.834   1.486  10.329  0.0754  0.8557 -0.3156
  108OSM    H2F11140   1.915   1.549  10.372 -0.0983  1.9028 -1.4911
  108OSM    H2G11141   1.742   1.544  10.310  0.3307  1.2135 -0.4584
  108OSM    C3F11142   1.880   1.427  10.193  0.0686 -0.2960  0.1500
  108OSM    H3F11143   1.788   1.389  10.143 -0.5541  1.0350  0.2491
  108OSM    H3G11144   1.953   1.344  10.206 -0.7885 -1.2310 -0.7533
  108OSM    C4F11145   1.931   1.540  10.099 -0.4571 -0.5332  0.1309
  108OSM    H4F11146   2.033   1.558  10.139  0.3985 -1.1768 -1.7055
  108OSM    H4G11147   1.855   1.621  10.109 -0.1867 -0.2546 -0.0863
  108OSM    C5F11148   1.945   1.524   9.946 -0.0545 -0.1876  0.0958
  108OSM    H5F11149   2.026   1.451   9.925 -0.5881 -0.2673 -1.8985
  108OSM    H5G11150   1.986   1.622   9.914  0.8368 -0.2816  0.9142
  108OSM    C6F11151   1.818   1.488   9.876 -0.7234 -0.3473  0.3614
  108OSM    H6F11152   1.761   1.581   9.859 -0.1716 -0.0599  0.0503
  108OSM    H6G11153   1.755   1.430   9.947 -1.9270  1.0291  0.4551
  108OSM    C7F11154   1.844   1.421   9.743 -0.4337  0.1148  0.4447
  108OSM    H7F11155   1.745   1.379   9.715 -1.4214  2.7848 -0.3577
  108OSM    H7G11156   1.919   1.340   9.749 -1.5312 -0.9065  0.8064
  108OSM    C8F11157   1.861   1.514   9.620 -0.1081 -0.7702 -0.2640
  108OSM    H8F11158   1.963   1.552   9.644 -1.2476  1.6573  1.0707
  108OSM    H8G11159   1.798   1.605   9.615 -0.2756 -0.9350 -2.7276
  108OSM    C9F11160   1.869   1.434   9.491 -0.0357  0.3381 -0.9805
  108OSM    H9F11161   1.908   1.331   9.502  1.8437  1.2367  1.7912
  108OSM   C10F11162   1.820   1.477   9.371 -0.3667  0.3131  0.4940
  108OSM   H10F11163   1.821   1.414   9.281  1.2079 -2.3172  2.2342
  108OSM   C11F11164   1.765   1.613   9.363  0.0500  0.5423  0.0087
  108OSM   H11F11165   1.728   1.654   9.459  0.8224 -0.8830  0.9490
  108OSM   H11G11166   1.672   1.604   9.302  1.1630  0.4171 -1.7523
  108OSM   C12F11167   1.846   1.724   9.289  0.5257 -0.0149 -0.2798
  108OSM   H12F11168   1.936   1.747   9.349 -0.6312 -1.1338  1.9815
  108OSM   H12G11169   1.782   1.815   9.279  0.9564  0.3679  0.4010
  108OSM   C13F11170   1.881   1.680   9.149 -0.0294 -0.2700  0.1257
  108OSM   H13F11171   1.792   1.649   9.090 -0.1860 -0.0156  0.2295
  108OSM   H13G11172   1.944   1.588   9.147 -1.0854 -1.0106  0.2405
  108OSM   C14F11173   1.964   1.791   9.080  0.1839  0.1307  0.5508
  108OSM   H14F11174   1.996   1.754   8.980 -2.6169 -1.7490  0.2534
  108OSM   H14G11175   2.054   1.822   9.137  0.4777 -0.1067  0.2187
  108OSM   C15F11176   1.900   1.927   9.054 -0.5681  0.1076 -0.4016
  108OSM   H15F11177   1.970   1.994   8.999 -2.8278  1.5946 -1.6367
  108OSM   H15G11178   1.881   1.973   9.154 -2.2969 -0.8755 -0.2463
  108OSM   C16F11179   1.774   1.933   8.962 -0.3581  0.5716  0.2331
  108OSM   H16F11180   1.750   2.041   8.949 -4.2036 -0.0929  0.7597
  108OSM   H16G11181   1.689   1.890   9.019  0.1343 -1.2599 -0.3488
  108OSM   C17F11182   1.795   1.855   8.830 -0.3370  0.2007 -0.1317
  108OSM   H17F11183   1.697   1.870   8.780 -0.2141  0.2940 -0.3448
  108OSM   H17G11184   1.809   1.747   8.850 -0.7240 -0.1773 -1.7227
  108OSM   C18F11185   1.902   1.920   8.737  0.3604 -0.2987  0.2080
  108OSM   H18F11186   1.880   2.029   8.732  0.8772 -0.2468 -2.2036
  108OSM   H18G11187   1.891   1.888   8.631 -0.1784 -0.7485  0.3929
  108OSM   H18H11188   2.005   1.905   8.775  0.8619 -1.5371 -1.5111
  109OSM      N11189   3.165   1.783  11.274  0.4692 -0.1018 -0.3503
  109OSM    C1511190   3.228   1.689  11.366  0.2505 -0.1388  0.4198
  109OSM   H15A11191   3.211   1.591  11.323 -1.6198  0.3047  0.0926
  109OSM   H15B11192   3.193   1.685  11.468 -1.7838 -0.6322 -0.2550
  109OSM   H15C11193   3.334   1.704  11.349  0.1201  1.6347  1.0400
  109OSM    C1411194   3.195   1.924  11.313  0.1002  0.3463  0.1299
  109OSM   H14A11195   3.155   2.000  11.248  2.4867  0.0208 -1.8802
  109OSM   H14B11196   3.300   1.948  11.315 -0.0293  0.8754  1.5561
  109OSM   H14C11197   3.158   1.950  11.411 -2.7319 -0.8713 -0.5221
  109OSM    C1311198   3.206   1.771  11.127 -0.0417 -0.6488 -0.4781
  109OSM   H13A11199   3.281   1.844  11.097  0.3082 -0.3481  1.0177
  109OSM   H13B11200   3.115   1.798  11.075 -0.2558  2.7736  1.3423
  109OSM   H13C11201   3.237   1.673  11.094  0.3674 -0.6503 -0.1016
  109OSM    C1211202   3.019   1.752  11.295 -0.5522  0.4235  0.2145
  109OSM   H12A11203   2.988   1.756  11.398 -0.1699 -1.2357  0.4313
  109OSM   H12B11204   2.996   1.650  11.266 -1.9207  1.0923 -1.1597
  109OSM    C1111205   2.917   1.830  11.200 -0.0867  0.1351 -0.4131
  109OSM   H11A11206   2.942   1.939  11.196  1.2180 -0.1077  0.4190
  109OSM   H11B11207   2.816   1.824  11.245 -0.8282 -0.0694 -2.0419
  109OSM      P11208   2.852   1.632  11.034  0.0799  0.0606  0.2628
  109OSM    O1311209   2.917   1.531  11.128 -0.0626 -0.5563  0.1718
  109OSM    O1411210   2.704   1.651  11.050 -0.5174 -0.1448 -0.2618
  109OSM    O1111211   2.886   1.597  10.884 -0.1792  0.0622 -0.1391
  109OSM    O1211212   2.912   1.780  11.065 -0.1198 -0.5037  0.2228
  109OSM    C1S11213   2.833   1.686  10.778 -0.4718  0.4953 -0.1561
  109OSM    H1S11214   2.841   1.796  10.793 -1.0533  0.3044  1.7896
  109OSM    H1T11215   2.724   1.666  10.775 -0.6124  0.2958  2.9618
  109OSM     NF11216   2.867   1.728  10.532 -0.6990  0.0281  0.1762
  109OSM    HNF11217   2.789   1.713  10.472  0.7988  0.6797 -2.0582
  109OSM    C2S11218   2.889   1.632  10.640 -0.3581  0.8639  0.2847
  109OSM    H2S11219   2.999   1.616  10.649 -0.2408  1.7511  0.5319
  109OSM    C3S11220   2.831   1.493  10.614  0.4500  0.6398  0.1932
  109OSM    H3S11221   2.720   1.487  10.616  0.5411 -1.7808  0.3570
  109OSM     O311222   2.865   1.397  10.712  0.2096 -0.6572 -0.2093
  109OSM    HO311223   2.907   1.444  10.784 -0.5404  0.8939 -0.7539
  109OSM    C4S11224   2.886   1.450  10.479 -0.2040 -0.4691  0.1096
  109OSM    H4S11225   2.987   1.491  10.463 -0.5101  0.5427  0.6659
  109OSM    C5S11226   2.827   1.384  10.380 -0.2201 -1.1042  0.7375
  109OSM    H5S11227   2.722   1.352  10.390 -0.7729  0.7225  1.1463
  109OSM    C6S11228   2.899   1.367  10.245 -1.0323 -0.1333  0.0370
  109OSM    H6S11229   2.906   1.260  10.219  1.0538 -0.2354  0.8124
  109OSM    H6T11230   2.999   1.415  10.254 -1.7445  1.3980  0.1047
  109OSM    C7S11231   2.840   1.449  10.134  0.6178  0.0759  0.2882
  109OSM    H7S11232   2.841   1.558  10.154  0.6841  0.1841 -0.2872
  109OSM    H7T11233   2.733   1.419  10.120  0.9669 -0.6243 -0.9682
  109OSM    C8S11234   2.909   1.440   9.999 -0.5919 -0.2492 -0.0826
  109OSM    H8S11235   2.908   1.335   9.963 -1.5868  0.0463 -0.9433
  109OSM    H8T11236   3.012   1.474  10.024 -0.6577  0.8431 -1.2263
  109OSM    C9S11237   2.840   1.537   9.902 -0.3789  0.7027  0.1282
  109OSM    H9S11238   2.836   1.640   9.944 -1.0933  0.4805  0.6229
  109OSM    H9T11239   2.743   1.486   9.885 -0.1615  0.4186 -0.2674
  109OSM   C10S11240   2.929   1.539   9.768  0.4812 -0.6122  0.3795
  109OSM   H10S11241   2.969   1.437   9.745  0.0624 -0.4034 -1.3889
  109OSM   H10T11242   3.004   1.620   9.779 -2.3967  2.1172  1.0196
  109OSM   C11S11243   2.847   1.575   9.641  0.6032  0.6801 -0.3574
  109OSM   H11S11244   2.777   1.659   9.659 -0.2456 -0.3026  1.1523
  109OSM   H11T11245   2.783   1.486   9.622 -1.1081  1.5858  0.9287
  109OSM   C12S11246   2.931   1.611   9.511  0.5035  0.1175  0.0669
  109OSM   H12S11247   2.998   1.525   9.491  0.7942  0.0171  1.4012
  109OSM   H12T11248   2.988   1.703   9.535  1.4305 -0.3027 -0.4839
  109OSM   C13S11249   2.837   1.626   9.392  0.2842  0.5444 -0.2240
  109OSM   H13S11250   2.778   1.719   9.409  1.1576  1.0236  0.2824
  109OSM   H13T11251   2.751   1.556   9.394  0.4336  0.3705  0.5289
  109OSM   C14S11252   2.892   1.611   9.251  0.2641 -0.0191 -0.3045
  109OSM   H14S11253   2.923   1.507   9.230 -1.0739 -0.3002 -0.9826
  109OSM   H14T11254   2.980   1.677   9.233 -0.5186  1.2907  0.4784
  109OSM   C15S11255   2.775   1.618   9.145  0.1697 -0.6562  0.8494
  109OSM   H15S11256   2.716   1.711   9.154  1.9727  0.7927 -1.3094
  109OSM   H15T11257   2.714   1.525   9.156  1.1397 -1.2623  1.2472
  109OSM   C16S11258   2.827   1.634   9.000 -0.1601 -0.2076 -0.7356
  109OSM   H16S11259   2.874   1.734   8.993 -0.0656 -0.1445  0.6038
  109OSM   H16T11260   2.749   1.642   8.922 -0.3816  3.0679 -0.3113
  109OSM   C17S11261   2.927   1.526   8.942  0.2374 -0.6978 -0.3427
  109OSM   H17S11262   3.008   1.515   9.017 -0.3764 -1.1629  0.2750
  109OSM   H17T11263   2.969   1.560   8.845  2.2900 -1.1327  0.3507
  109OSM   C18S11264   2.872   1.380   8.919 -0.2013 -0.0719 -0.3971
  109OSM   H18S11265   2.948   1.309   8.880  0.8747  1.3741 -1.0317
  109OSM   H18T11266   2.782   1.378   8.854  0.2321  0.4908 -1.0268
  109OSM   H18U11267   2.830   1.353   9.018  0.6191 -0.8642 -0.2504
  109OSM    C1F11268   2.948   1.830  10.511  0.1652 -0.7255 -0.4269
  109OSM     OF11269   3.050   1.836  10.583  0.1882 -0.4003  0.2480
  109OSM    C2F11270   2.900   1.939  10.408 -0.0790  0.2023 -0.3293
  109OSM    H2F11271   2.896   2.039  10.456  0.1980  0.4243 -0.7639
  109OSM    H2G11272   2.802   1.905  10.370  0.3446 -2.7944  0.9281
  109OSM    C3F11273   2.982   1.926  10.280  0.3370 -0.2365 -0.0163
  109OSM    H3F11274   2.963   1.839  10.214  1.1502  1.3172 -2.4572
  109OSM    H3G11275   3.089   1.917  10.309  0.2692 -0.0630  0.2970
  109OSM    C4F11276   2.969   2.038  10.174  1.0204 -0.0455 -0.3441
  109OSM    H4F11277   3.009   2.131  10.218  0.1123 -0.5577  1.6727
  109OSM    H4G11278   2.860   2.048  10.155  0.4547  2.3984  3.1902
  109OSM    C5F11279   3.047   1.997  10.056 -0.4127 -0.7652 -0.1865
  109OSM    H5F11280   3.026   1.896  10.014  1.1358 -1.8396  1.4783
  109OSM    H5G11281   3.157   1.994  10.074 -0.4215  0.7168  0.2005
  109OSM    C6F11282   3.013   2.098   9.953 -0.6937  0.2343  0.5196
  109OSM    H6F11283   3.011   2.201   9.995 -1.7139 -0.2550  1.7587
  109OSM    H6G11284   2.910   2.077   9.915 -1.4740  1.8375  1.5995
  109OSM    C7F11285   3.100   2.085   9.831  0.1927  0.3332  0.3260
  109OSM    H7F11286   3.071   1.986   9.788  0.2898 -0.0155  1.0579
  109OSM    H7G11287   3.207   2.069   9.856  0.1057 -1.7967 -0.4015
  109OSM    C8F11288   3.075   2.196   9.728  0.1205 -0.2320 -0.6085
  109OSM    H8F11289   3.153   2.174   9.652  2.4124  1.5418  1.0848
  109OSM    H8G11290   3.098   2.302   9.755 -0.4483  0.3392 -2.2552
  109OSM    C9F11291   2.940   2.202   9.666  0.7328  0.3979  0.0026
  109OSM    H9F11292   2.872   2.287   9.680 -1.4996 -0.8586 -2.1434
  109OSM   C10F11293   2.904   2.110   9.575 -0.5185  0.0112 -0.5446
  109OSM   H10F11294   2.807   2.125   9.526 -2.2140 -1.3631  2.1379
  109OSM   C11F11295   2.989   1.990   9.520  0.5799 -0.2322 -0.7232
  109OSM   H11F11296   2.915   1.910   9.539  0.0366  0.7154  1.3913
  109OSM   H11G11297   3.082   1.973   9.577 -0.6302  1.6618  2.0179
  109OSM   C12F11298   3.018   2.006   9.371  0.0522  0.1992 -0.2450
  109OSM   H12F11299   3.072   1.916   9.335 -0.0473  0.3885 -0.8783
  109OSM   H12G11300   3.077   2.094   9.338 -1.3599  1.1581 -0.3111
  109OSM   C13F11301   2.887   2.003   9.287  0.2646  0.5043  0.2911
  109OSM   H13F11302   2.798   2.056   9.327 -1.1184  0.2631 -2.2224
  109OSM   H13G11303   2.845   1.900   9.287 -0.4740  0.7958  0.8471
  109OSM   C14F11304   2.890   2.062   9.140 -0.2454 -0.2222 -0.1019
  109OSM   H14F11305   2.981   2.023   9.090 -0.0679 -1.0974  0.8715
  109OSM   H14G11306   2.893   2.173   9.136 -4.3068  0.1566  1.7191
  109OSM   C15F11307   2.765   2.033   9.059 -0.0527 -0.5936 -0.5403
  109OSM   H15F11308   2.676   2.070   9.114  1.5891  0.0366  1.8676
  109OSM   H15G11309   2.751   1.923   9.055  1.9946 -0.9364  0.3928
  109OSM   C16F11310   2.777   2.118   8.929  0.1884 -0.3788  0.0403
  109OSM   H16F11311   2.873   2.109   8.874  1.1547 -0.3123  1.6720
  109OSM   H16G11312   2.767   2.227   8.950  0.8630 -0.1969 -0.5341
  109OSM   C17F11313   2.674   2.069   8.825  0.4172 -0.1951 -0.2636
  109OSM   H17F11314   2.580   2.033   8.872 -0.8791  0.5024 -2.1814
  109OSM   H17G11315   2.728   1.977   8.793  1.1360  0.0692  0.1756
  109OSM   C18F11316   2.654   2.171   8.717  0.5391 -0.6277  0.2419
  109OSM   H18F11317   2.597   2.130   8.631 -0.9993  0.2216  0.8244
  109OSM   H18G11318   2.741   2.226   8.676  1.0842 -0.1030  2.0175
  109OSM   H18H11319   2.578   2.243   8.754 -0.2013 -1.3210  0.1015
  110OSM      N11320   4.737   0.155  10.880 -0.1328 -0.1239 -0.1636
  110OSM    C1511321   4.809   0.026  10.905 -0.1677 -0.4499 -0.2582
  110OSM   H15A11322   4.864   0.009  10.813  1.2263  2.9631 -0.1977
  110OSM   H15B11323   4.741  -0.057  10.922  1.5808 -1.7580  0.6330
  110OSM   H15C11324   4.879   0.035  10.987  0.7645  1.6204 -1.2022
  110OSM    C1411325   4.635   0.129  10.767 -0.4047 -0.1541  0.2793
  110OSM   H14A11326   4.570   0.051  10.806  0.2273 -0.0302  1.6631
  110OSM   H14B11327   4.684   0.094  10.677  0.2784  2.7307 -0.5547
  110OSM   H14C11328   4.582   0.221  10.749 -0.7415 -0.5574 -0.8600
  110OSM    C1311329   4.670   0.191  11.008  0.2993  0.1950  0.4725
  110OSM   H13A11330   4.611   0.280  10.996 -0.6408 -0.0477  2.7669
  110OSM   H13B11331   4.741   0.208  11.089 -0.3714  3.4526  0.5054
  110OSM   H13C11332   4.604   0.110  11.036 -0.5824 -0.1231 -2.2583
  110OSM    C1211333   4.826   0.269  10.841 -0.0918  1.2476  0.3472
  110OSM   H12A11334   4.900   0.286  10.917  1.2542 -2.1886 -0.0076
  110OSM   H12B11335   4.773   0.362  10.831 -0.1319  1.0863 -1.2736
  110OSM    C1111336   4.917   0.240  10.716 -0.4097 -0.2886 -0.6280
  110OSM   H11A11337   4.953   0.340  10.681  0.7511 -0.4031  0.2070
  110OSM   H11B11338   4.861   0.198  10.629 -2.3193  0.5165  0.1439
  110OSM      P11339   5.142   0.190  10.841 -0.0658  0.1435 -0.0472
  110OSM    O1311340   5.127   0.323  10.904  0.2735 -0.0514  0.2288
  110OSM    O1411341   5.164   0.076  10.936 -0.8151 -0.3442  0.0934
  110OSM    O1111342   5.274   0.198  10.742 -0.1140  0.1120  0.1238
  110OSM    O1211343   5.025   0.152  10.741 -0.3304 -0.2811  0.4893
  110OSM    C1S11344   5.286   0.075  10.665 -0.7912 -0.1907  0.8193
  110OSM    H1S11345   5.190   0.034  10.628 -0.7736  0.2801  0.2347
  110OSM    H1T11346   5.343   0.001  10.726 -1.2405 -1.5545 -0.3779
  110OSM     NF11347   5.396  -0.005  10.434  0.8457  0.7241 -0.3829
  110OSM    HNF11348   5.486  -0.046  10.427  0.7213  0.4314 -0.2994
  110OSM    C2S11349   5.384   0.100  10.538  0.6045 -0.6339 -0.5097
  110OSM    H2S11350   5.350   0.189  10.481  0.6328 -0.1375  0.2304
  110OSM    C3S11351   5.532   0.139  10.591  0.6192 -0.3787 -0.5049
  110OSM    H3S11352   5.563   0.057  10.659  1.7860  0.7300  0.3397
  110OSM     O311353   5.534   0.244  10.682 -0.3940  0.0518 -0.7192
  110OSM    HO311354   5.442   0.259  10.707  0.5642  0.7525  2.9139
  110OSM    C4S11355   5.630   0.167  10.477  0.1303 -0.7273  0.1652
  110OSM    H4S11356   5.707   0.092  10.454  0.5506 -0.6681  1.3023
  110OSM    C5S11357   5.635   0.274  10.396 -0.7193 -0.0334  0.1916
  110OSM    H5S11358   5.564   0.358  10.395  1.2087  1.7408  2.2174
  110OSM    C6S11359   5.741   0.283  10.289 -0.3461  0.3424  0.3540
  110OSM    H6S11360   5.827   0.217  10.313  0.1765 -0.6829 -3.5790
  110OSM    H6T11361   5.787   0.384  10.290  0.6700 -0.1083  1.6279
  110OSM    C7S11362   5.700   0.238  10.143  0.0716 -0.5037 -0.0074
  110OSM    H7S11363   5.642   0.325  10.105 -0.4619 -1.7047 -2.1297
  110OSM    H7T11364   5.646   0.141  10.139 -0.2699 -0.2938 -1.0128
  110OSM    C8S11365   5.822   0.234  10.051 -0.2131  0.2472 -0.2285
  110OSM    H8S11366   5.914   0.206  10.107  1.6283 -2.5357 -4.1030
  110OSM    H8T11367   5.849   0.334  10.010 -0.2962  0.2978 -0.1607
  110OSM    C9S11368   5.805   0.127   9.940 -0.2147 -0.7968 -0.2401
  110OSM    H9S11369   5.699   0.123   9.911 -0.4794 -0.0320  0.5565
  110OSM    H9T11370   5.833   0.027   9.979 -1.0408  0.6451  4.8183
  110OSM   C10S11371   5.884   0.170   9.809  0.3802  0.0103  0.2204
  110OSM   H10S11372   5.896   0.083   9.740  2.4656  1.0845 -0.8925
  110OSM   H10T11373   5.978   0.218   9.844 -0.5430  1.0249  1.4110
  110OSM   C11S11374   5.808   0.278   9.726 -0.7705 -0.1081 -0.2852
  110OSM   H11S11375   5.797   0.370   9.788  0.3164  0.2428 -0.5878
  110OSM   H11T11376   5.705   0.240   9.707 -0.1389 -1.8296 -0.3919
  110OSM   C12S11377   5.886   0.333   9.606  0.1535  0.4724 -0.5863
  110OSM   H12S11378   5.906   0.242   9.546  0.0025  0.4493 -0.6004
  110OSM   H12T11379   5.973   0.398   9.631 -1.0009  1.7047  0.3919
  110OSM   C13S11380   5.785   0.408   9.519 -0.4603 -0.0802  0.1690
  110OSM   H13S11381   5.838   0.480   9.453  0.3674 -0.0812  0.8098
  110OSM   H13T11382   5.726   0.474   9.586  0.0383  1.5613 -0.9330
  110OSM   C14S11383   5.685   0.321   9.451  0.2512  0.7301  0.5375
  110OSM   H14S11384   5.604   0.383   9.408 -0.3730  0.1099  0.8028
  110OSM   H14T11385   5.623   0.262   9.521  0.0874  0.1389 -0.0846
  110OSM   C15S11386   5.736   0.224   9.342 -0.5554  0.3986 -0.3695
  110OSM   H15S11387   5.795   0.143   9.390 -0.7509  0.0969 -0.6437
  110OSM   H15T11388   5.805   0.283   9.278 -0.9452  1.6530  0.3236
  110OSM   C16S11389   5.628   0.160   9.266  0.1667 -0.9574 -0.2604
  110OSM   H16S11390   5.551   0.229   9.226  0.4552 -0.7272 -0.4266
  110OSM   H16T11391   5.572   0.092   9.333 -2.8490  0.4674 -1.1819
  110OSM   C17S11392   5.682   0.065   9.161 -0.4296  0.3356 -0.3269
  110OSM   H17S11393   5.746  -0.009   9.213 -0.2383  1.9875  1.9742
  110OSM   H17T11394   5.756   0.116   9.095  0.4983 -0.9491 -0.3164
  110OSM   C18S11395   5.571  -0.001   9.078  0.0002  0.3576 -0.1184
  110OSM   H18S11396   5.623  -0.086   9.028 -1.8686 -0.3964 -0.8317
  110OSM   H18T11397   5.516   0.062   9.005 -0.0175  1.0746  0.5039
  110OSM   H18U11398   5.498  -0.055   9.142  1.9832  0.6846  2.6030
  110OSM    C1F11399   5.293  -0.064  10.372 -0.7393 -0.1109  0.2710
  110OSM     OF11400   5.177  -0.049  10.415  0.2622  0.4287 -0.1253
  110OSM    C2F11401   5.323  -0.135  10.235 -0.5107 -0.0190 -0.9901
  110OSM    H2F11402   5.255  -0.112  10.151 -0.3242  0.7660 -0.9304
  110OSM    H2G11403   5.328  -0.243  10.262 -0.8813  0.8169  2.8852
  110OSM    C3F11404   5.468  -0.098  10.183 -0.3213  0.6261  0.5555
  110OSM    H3F11405   5.545  -0.132  10.256  0.9670  1.0513 -0.5664
  110OSM    H3G11406   5.492   0.011  10.190 -0.1732  0.5550  1.2019
  110OSM    C4F11407   5.508  -0.150  10.039  0.0237  0.8426 -1.3281
  110OSM    H4F11408   5.489  -0.259  10.049 -1.3343  1.1763  0.2697
  110OSM    H4G11409   5.616  -0.128  10.027  0.8620 -2.3620 -0.6231
  110OSM    C5F11410   5.428  -0.085   9.930  1.0136 -0.6769 -0.4105
  110OSM    H5F11411   5.463   0.020   9.932 -0.2917 -0.2251  0.8551
  110OSM    H5G11412   5.322  -0.071   9.961  1.6625  2.4901  0.6966
  110OSM    C6F11413   5.452  -0.149   9.786 -0.9820 -0.4799 -0.7741
  110OSM    H6F11414   5.385  -0.113   9.705 -0.0550  0.1492 -1.2688
  110OSM    H6G11415   5.427  -0.255   9.809 -0.6603 -0.2583  0.6750
  110OSM    C7F11416   5.599  -0.145   9.742 -0.3865 -0.8593 -0.4538
  110OSM    H7F11417   5.663  -0.216   9.798  0.2222 -0.7511 -0.9907
  110OSM    H7G11418   5.620  -0.039   9.768 -2.4423 -0.4550 -0.2666
  110OSM    C8F11419   5.602  -0.170   9.594 -0.0921 -0.0451 -0.3475
  110OSM    H8F11420   5.529  -0.105   9.541  0.1488 -0.2466 -0.9388
  110OSM    H8G11421   5.585  -0.277   9.567  2.8601 -0.2554 -1.7154
  110OSM    C9F11422   5.724  -0.131   9.531  0.0281 -0.2566  0.6002
  110OSM    H9F11423   5.781  -0.049   9.578 -0.1056  0.7589 -0.9512
  110OSM   C10F11424   5.788  -0.191   9.427  0.2408 -0.3179 -1.5405
  110OSM   H10F11425   5.891  -0.171   9.397  0.8924 -1.1918  0.0208
  110OSM   C11F11426   5.728  -0.316   9.362  0.3873  0.4120  0.3613
  110OSM   H11F11427   5.617  -0.311   9.361  0.3822  0.2687 -0.1632
  110OSM   H11G11428   5.759  -0.407   9.416 -0.5194  0.6808  1.3669
  110OSM   C12F11429   5.777  -0.344   9.214  0.1624 -0.7245  0.1772
  110OSM   H12F11430   5.747  -0.255   9.155 -0.4493 -0.1694  1.2796
  110OSM   H12G11431   5.719  -0.434   9.183  0.1002 -1.0240  1.1260
  110OSM   C13F11432   5.927  -0.361   9.202  0.5543 -0.1575 -0.0191
  110OSM   H13F11433   5.956  -0.409   9.298 -1.5324 -0.5322  0.4762
  110OSM   H13G11434   5.967  -0.258   9.206 -0.4681  0.2582  4.7011
  110OSM   C14F11435   5.974  -0.441   9.081 -0.0002  0.7892  0.3660
  110OSM   H14F11436   5.945  -0.384   8.990  0.1034  4.0555  2.1996
  110OSM   H14G11437   5.926  -0.541   9.077  0.1901  0.6705  0.9853
  110OSM   C15F11438   6.128  -0.471   9.097 -0.3792  0.2053 -0.1794
  110OSM   H15F11439   6.164  -0.530   9.010  0.3457 -0.0650  0.2977
  110OSM   H15G11440   6.139  -0.524   9.194 -1.0402  0.8781  0.2789
  110OSM   C16F11441   6.229  -0.351   9.084 -0.4085 -0.0453 -0.5070
  110OSM   H16F11442   6.329  -0.385   9.047 -0.9360 -0.4979 -1.5705
  110OSM   H16G11443   6.250  -0.299   9.180 -2.1487  2.9140 -1.5922
  110OSM   C17F11444   6.197  -0.240   8.980  0.4340  0.2126 -0.0689
  110OSM   H17F11445   6.109  -0.186   9.021  0.3687  0.0170  0.0483
  110OSM   H17G11446   6.157  -0.290   8.890 -1.5916 -0.0808  0.9348
  110OSM   C18F11447   6.308  -0.133   8.948  0.1684  0.0236 -0.3970
  110OSM   H18F11448   6.354  -0.088   9.039 -0.7264  0.4331 -0.1371
  110OSM   H18G11449   6.260  -0.045   8.900  1.1316  1.8406  1.7188
  110OSM   H18H11450   6.386  -0.180   8.885 -0.0407  1.4448 -1.7874
  111OSM      N11451   4.099   4.479  10.954  0.4656 -0.3863 -0.0063
  111OSM    C1511452   4.184   4.403  11.044  0.4151  0.6491 -0.6000
  111OSM   H15A11453   4.142   4.313  11.086  0.5643  1.3265  1.0973
  111OSM   H15B11454   4.209   4.467  11.127 -1.5068  0.4655  0.1680
  111OSM   H15C11455   4.278   4.381  10.995  2.0748  0.5034  2.4041
  111OSM    C1411456   4.081   4.402  10.823  0.5045  0.1790  0.4007
  111OSM   H14A11457   4.061   4.456  10.731 -2.6089 -2.2584 -0.5340
  111OSM   H14B11458   4.003   4.327  10.827  0.3375  0.3091 -0.2188
  111OSM   H14C11459   4.165   4.336  10.812  0.5360 -0.1495  2.3230
  111OSM    C1311460   3.968   4.499  11.011 -0.5786  0.1799  0.0704
  111OSM   H13A11461   3.907   4.410  11.012 -0.8819  0.3827  0.0737
  111OSM   H13B11462   3.909   4.574  10.960 -0.5857  0.4390  0.4538
  111OSM   H13C11463   3.967   4.530  11.114 -3.2455 -3.1009  1.2278
  111OSM    C1211464   4.159   4.619  10.920 -0.2121 -0.7620 -0.0084
  111OSM   H12A11465   4.165   4.666  11.017 -2.5869 -2.3651  1.0105
  111OSM   H12B11466   4.094   4.675  10.854 -0.9533 -2.4065 -0.7375
  111OSM    C1111467   4.304   4.612  10.859  0.4087 -0.5919 -0.6916
  111OSM   H11A11468   4.337   4.709  10.815 -1.1025  0.7488  0.9852
  111OSM   H11B11469   4.308   4.549  10.768  1.3434 -0.2946 -0.8759
  111OSM      P11470   4.463   4.670  11.056  0.1541  0.1588 -0.3305
  111OSM    O1311471   4.353   4.750  11.106 -0.3683 -0.8224 -0.3080
  111OSM    O1411472   4.552   4.592  11.148  1.0608  0.5214  0.2390
  111OSM    O1111473   4.545   4.767  10.968 -0.3121  0.6234 -0.0387
  111OSM    O1211474   4.405   4.563  10.957 -0.0574  0.1566  0.4180
  111OSM    C1S11475   4.660   4.730  10.895  0.1917  0.1688 -0.0130
  111OSM    H1S11476   4.698   4.637  10.943 -3.4059 -1.3969  0.1916
  111OSM    H1T11477   4.737   4.810  10.891 -1.8927  2.2629 -1.3403
  111OSM     NF11478   4.746   4.664  10.667 -0.3587  0.2051 -0.2477
  111OSM    HNF11479   4.787   4.718  10.594 -0.2903 -1.4201 -1.4741
  111OSM    C2S11480   4.632   4.713  10.738  0.0726 -0.2008 -0.2770
  111OSM    H2S11481   4.552   4.635  10.741 -0.7410  0.6341  2.0636
  111OSM    C3S11482   4.569   4.845  10.675  0.1644 -0.3801 -0.2841
  111OSM    H3S11483   4.645   4.926  10.678 -0.0906 -0.1136 -0.9005
  111OSM     O311484   4.448   4.892  10.740  0.4512 -0.6470 -0.1919
  111OSM    HO311485   4.466   4.853  10.826 -0.2495 -2.4174 -0.7995
  111OSM    C4S11486   4.533   4.831  10.532  0.2728 -0.7127  0.4098
  111OSM    H4S11487   4.616   4.869  10.472  0.3880 -0.3127  0.8149
  111OSM    C5S11488   4.413   4.791  10.472 -0.8209  0.3288 -0.1079
  111OSM    H5S11489   4.323   4.759  10.527 -1.6700  2.4726 -0.1564
  111OSM    C6S11490   4.386   4.779  10.321 -0.1669  0.1817 -0.8899
  111OSM    H6S11491   4.292   4.833  10.298 -2.1622 -2.0264  1.5135
  111OSM    H6T11492   4.365   4.671  10.305  0.2274  0.0984 -0.8654
  111OSM    C7S11493   4.503   4.813  10.218 -0.0060  0.3386  0.3651
  111OSM    H7S11494   4.597   4.779  10.267 -0.8165 -3.0048 -0.1355
  111OSM    H7T11495   4.505   4.922  10.199  0.1104  0.2314 -0.2593
  111OSM    C8S11496   4.483   4.736  10.082  0.4745  0.5566 -0.2242
  111OSM    H8S11497   4.542   4.785  10.002 -0.6132 -0.7626 -1.9020
  111OSM    H8T11498   4.376   4.741  10.053 -0.2022 -0.1249  1.8975
  111OSM    C9S11499   4.548   4.595  10.092 -0.4278  0.1801  0.4310
  111OSM    H9S11500   4.503   4.537  10.008 -3.3811 -0.8090  2.5163
  111OSM    H9T11501   4.513   4.539  10.181  0.1464 -2.1331 -0.7117
  111OSM   C10S11502   4.704   4.600  10.079  0.1777 -0.3146 -0.1739
  111OSM   H10S11503   4.763   4.653  10.157  0.2767  0.4433 -0.7566
  111OSM   H10T11504   4.712   4.651   9.981  1.0492 -0.3827 -0.1448
  111OSM   C11S11505   4.769   4.460  10.062  0.0956 -0.3409  0.2501
  111OSM   H11S11506   4.797   4.426  10.164 -2.6203 -0.3766  1.0576
  111OSM   H11T11507   4.869   4.479  10.016 -0.5086 -1.6119 -1.7169
  111OSM   C12S11508   4.699   4.362   9.975 -0.5776 -0.3869 -0.0256
  111OSM   H12S11509   4.594   4.347  10.009 -1.4281  2.2207 -1.2209
  111OSM   H12T11510   4.761   4.271   9.984  0.5182  0.2977 -0.4721
  111OSM   C13S11511   4.683   4.403   9.828 -0.1427  0.2393  0.1100
  111OSM   H13S11512   4.642   4.507   9.825  0.1798  0.4343  1.5601
  111OSM   H13T11513   4.597   4.342   9.793  0.6382 -0.4305 -0.6910
  111OSM   C14S11514   4.809   4.403   9.739 -0.1858  0.0824  0.1507
  111OSM   H14S11515   4.878   4.319   9.762  2.4104  2.6260  2.4824
  111OSM   H14T11516   4.870   4.494   9.758 -0.4063  0.3543 -0.4094
  111OSM   C15S11517   4.791   4.404   9.585  0.3684  0.1738 -0.0016
  111OSM   H15S11518   4.891   4.416   9.536  0.5509 -1.1373  0.0313
  111OSM   H15T11519   4.732   4.492   9.550 -3.8077 -3.1930 -2.3099
  111OSM   C16S11520   4.737   4.275   9.510  0.8415  0.7500 -0.2824
  111OSM   H16S11521   4.637   4.239   9.542  0.9311  0.1991 -0.5974
  111OSM   H16T11522   4.804   4.195   9.549 -0.7704 -1.1408 -1.1835
  111OSM   C17S11523   4.713   4.297   9.362  0.6448 -0.1981 -0.1955
  111OSM   H17S11524   4.669   4.205   9.317 -3.2658  1.7278 -0.6693
  111OSM   H17T11525   4.812   4.310   9.314  0.4429 -1.6662 -1.0650
  111OSM   C18S11526   4.619   4.412   9.330 -0.1789  0.7517 -0.5911
  111OSM   H18S11527   4.653   4.506   9.379  0.4462 -0.3199  1.1375
  111OSM   H18T11528   4.515   4.397   9.365  0.7336 -0.8112  1.6871
  111OSM   H18U11529   4.620   4.442   9.223 -1.3426  1.9887 -0.2825
  111OSM    C1F11530   4.795   4.538  10.686  0.3786 -0.2045  0.1842
  111OSM     OF11531   4.749   4.462  10.765  0.4013  0.2687  0.3525
  111OSM    C2F11532   4.915   4.510  10.601 -0.1386  0.2544 -0.5367
  111OSM    H2F11533   5.014   4.534  10.645  1.2947  0.9392 -3.8070
  111OSM    H2G11534   4.918   4.571  10.508 -3.0982 -0.4855 -1.2334
  111OSM    C3F11535   4.918   4.361  10.561  0.4161  0.5402  0.0368
  111OSM    H3F11536   4.916   4.302  10.655  2.1919  0.1642 -0.1315
  111OSM    H3G11537   5.014   4.333  10.514  0.4840 -0.8044  0.9326
  111OSM    C4F11538   4.807   4.325  10.457 -0.0652  0.5237 -0.2506
  111OSM    H4F11539   4.825   4.365  10.355 -2.9379 -0.1527 -1.1217
  111OSM    H4G11540   4.716   4.386  10.477  0.3360  0.9630  0.2668
  111OSM    C5F11541   4.765   4.180  10.446  0.0587  0.2060  0.5581
  111OSM    H5F11542   4.684   4.163  10.520 -1.6067 -2.0944 -1.6412
  111OSM    H5G11543   4.851   4.115  10.475 -2.8954 -4.0019  0.8929
  111OSM    C6F11544   4.713   4.138  10.311 -0.1197 -0.3714  0.4561
  111OSM    H6F11545   4.801   4.154  10.245  0.2147  0.4068  1.0787
  111OSM    H6G11546   4.620   4.191  10.283 -0.0809 -0.8471 -0.6382
  111OSM    C7F11547   4.694   3.985  10.310 -0.0107 -0.1837 -0.7627
  111OSM    H7F11548   4.596   3.959  10.354 -0.7863  2.9433 -0.3667
  111OSM    H7G11549   4.772   3.925  10.362  0.3760 -1.9840 -3.2563
  111OSM    C8F11550   4.683   3.922  10.165 -0.2296  0.5957 -0.7611
  111OSM    H8F11551   4.655   3.815  10.177  2.1254 -0.0012  0.0007
  111OSM    H8G11552   4.780   3.947  10.117  0.9010 -1.1314  0.5000
  111OSM    C9F11553   4.570   3.972  10.075  0.2322 -0.4112  0.2544
  111OSM    H9F11554   4.480   4.002  10.129  1.8586  3.2975  1.1841
  111OSM   C10F11555   4.587   3.981   9.944  0.2707  0.5902  0.3256
  111OSM   H10F11556   4.509   4.036   9.888  2.3217  3.1916 -0.2229
  111OSM   C11F11557   4.703   3.960   9.847 -0.1817 -0.6772 -0.4058
  111OSM   H11F11558   4.788   3.924   9.908 -1.4117 -0.2529  1.6676
  111OSM   H11G11559   4.723   4.057   9.796 -1.5886  0.4818  1.0844
  111OSM   C12F11560   4.681   3.864   9.730  0.3008 -0.3683  0.1720
  111OSM   H12F11561   4.646   3.764   9.764  2.1125 -0.8592  0.7421
  111OSM   H12G11562   4.776   3.848   9.675 -0.2594 -0.4909 -0.7785
  111OSM   C13F11563   4.588   3.907   9.615 -1.6131  0.1252 -0.5019
  111OSM   H13F11564   4.610   4.011   9.585  0.7746  0.0235  0.6549
  111OSM   H13G11565   4.484   3.896   9.654 -1.0391 -2.0505  0.6454
  111OSM   C14F11566   4.585   3.821   9.485  0.3202 -0.6147  0.4943
  111OSM   H14F11567   4.671   3.849   9.420 -0.3141 -0.8969 -0.4945
  111OSM   H14G11568   4.499   3.849   9.420  2.2649 -2.0040 -2.9308
  111OSM   C15F11569   4.584   3.669   9.505  0.2149  0.1887 -0.2661
  111OSM   H15F11570   4.495   3.658   9.570  0.9113  1.0118  0.8618
  111OSM   H15G11571   4.672   3.626   9.558  0.4778  1.1552  0.0992
  111OSM   C16F11572   4.576   3.604   9.362  0.0179 -0.5958  0.5493
  111OSM   H16F11573   4.655   3.526   9.364 -0.5164 -1.2244 -1.1478
  111OSM   H16G11574   4.609   3.682   9.289 -2.0602 -0.2153 -0.0587
  111OSM   C17F11575   4.435   3.552   9.323 -0.1877 -0.0438 -0.2981
  111OSM   H17F11576   4.394   3.636   9.262  4.1474  2.4319 -0.2615
  111OSM   H17G11577   4.379   3.556   9.418  0.2919 -1.9117  0.0900
  111OSM   C18F11578   4.430   3.422   9.255  0.3745  0.5224 -0.2854
  111OSM   H18F11579   4.501   3.420   9.169  2.2208 -1.6034  1.1848
  111OSM   H18G11580   4.326   3.410   9.218  0.2577  2.0652 -0.5009
  111OSM   H18H11581   4.459   3.342   9.327  0.6341 -0.0489 -1.0107
  112OSM      N11582   5.250   0.887  11.348 -0.2318  0.3508  0.1821
  112OSM    C1511583   5.306   0.999  11.431  0.7262  0.0348  0.4187
  112OSM   H15A11584   5.244   1.007  11.519  0.4028  0.2250  0.1759
  112OSM   H15B11585   5.295   1.093  11.381 -1.1838 -0.8435 -0.9672
  112OSM   H15C11586   5.411   0.979  11.445  1.1066  1.5154 -0.2268
  112OSM    C1411587   5.354   0.835  11.256  0.1857  0.3953 -0.3296
  112OSM   H14A11588   5.427   0.776  11.310  0.6701  0.6893 -0.6559
  112OSM   H14B11589   5.403   0.922  11.215 -0.2201  0.3079 -1.0169
  112OSM   H14C11590   5.316   0.776  11.174  0.2924 -1.7700  1.0899
  112OSM    C1311591   5.214   0.765  11.441 -0.5506 -0.6691  0.4307
  112OSM   H13A11592   5.158   0.690  11.386  0.4106  0.7240 -2.6826
  112OSM   H13B11593   5.148   0.796  11.521 -1.8972  1.1342 -1.2933
  112OSM   H13C11594   5.298   0.720  11.492  1.9597  0.5784 -2.3158
  112OSM    C1211595   5.135   0.936  11.253 -0.1347 -0.1956 -0.4141
  112OSM   H12A11596   5.053   0.976  11.312 -1.3704 -2.5410 -0.4084
  112OSM   H12B11597   5.100   0.850  11.198 -4.5543  2.5228 -2.4385
  112OSM    C1111598   5.168   1.039  11.133 -0.1088 -0.3924  1.1541
  112OSM   H11A11599   5.070   1.040  11.080 -0.4655 -0.7899  1.7975
  112OSM   H11B11600   5.230   0.999  11.050 -3.3786 -0.2350 -1.6046
  112OSM      P11601   5.106   1.276  11.195  0.2089  0.0114 -0.3528
  112OSM    O1311602   4.982   1.214  11.248  0.1725 -0.5943 -0.0722
  112OSM    O1411603   5.171   1.384  11.271  0.6372 -0.1703  0.0463
  112OSM    O1111604   5.077   1.324  11.047  0.0987  0.2501 -0.3504
  112OSM    O1211605   5.213   1.161  11.180  0.0501  0.7676  0.1307
  112OSM    C1S11606   5.190   1.352  10.962 -1.0042 -0.6574 -0.0825
  112OSM    H1S11607   5.226   1.253  10.926 -1.1785 -1.2875  1.4100
  112OSM    H1T11608   5.277   1.398  11.013 -0.0381 -0.7201 -1.5909
  112OSM     NF11609   5.263   1.450  10.739  0.6310 -0.3069  0.8371
  112OSM    HNF11610   5.324   1.529  10.732  0.7318 -0.5257 -2.9638
  112OSM    C2S11611   5.151   1.448  10.835 -0.6409 -0.1369  0.1097
  112OSM    H2S11612   5.059   1.404  10.789 -0.0045 -0.5635 -0.7893
  112OSM    C3S11613   5.129   1.592  10.879 -0.2028 -0.1923 -0.1427
  112OSM    H3S11614   5.230   1.627  10.910 -0.7837 -1.2796  3.4971
  112OSM     O311615   5.047   1.617  10.993 -0.5499 -0.4355  0.2590
  112OSM    HO311616   5.036   1.538  11.047  0.7256  1.1992  3.1548
  112OSM    C4S11617   5.066   1.675  10.771 -0.6796 -0.2571  0.4721
  112OSM    H4S11618   4.965   1.632  10.763 -0.3144 -0.9142 -0.8625
  112OSM    C5S11619   5.113   1.778  10.703 -0.1085  0.0581 -0.4335
  112OSM    H5S11620   5.218   1.808  10.717 -0.6179  1.2711  1.0163
  112OSM    C6S11621   5.038   1.857  10.604 -0.2311 -0.1726  0.8191
  112OSM    H6S11622   5.073   1.827  10.503 -2.5703  1.7476 -0.6713
  112OSM    H6T11623   5.081   1.958  10.621  0.1078 -0.0950 -0.3884
  112OSM    C7S11624   4.889   1.876  10.625  0.7630  0.0933  0.4265
  112OSM    H7S11625   4.859   1.898  10.730 -1.3376 -2.4538  0.4820
  112OSM    H7T11626   4.845   1.775  10.611 -0.7085  0.2604  3.1035
  112OSM    C8S11627   4.839   1.987  10.520  0.1645  0.0723  0.3736
  112OSM    H8S11628   4.890   2.082  10.546 -0.6268  1.0764 -1.5482
  112OSM    H8T11629   4.734   2.010  10.551  0.2442 -2.3127  2.8119
  112OSM    C9S11630   4.848   1.950  10.373  0.2492  0.3907  0.7065
  112OSM    H9S11631   4.772   1.874  10.344  0.0074  0.7530  0.3733
  112OSM    H9T11632   4.944   1.908  10.335 -0.3040  0.7338 -1.2241
  112OSM   C10S11633   4.831   2.068  10.282 -0.1419  0.3160 -0.1481
  112OSM   H10S11634   4.933   2.107  10.263  0.4622 -1.4927 -0.8235
  112OSM   H10T11635   4.765   2.144  10.329  1.1601 -0.5478  3.3632
  112OSM   C11S11636   4.777   2.029  10.142 -0.3039  0.6961  0.1128
  112OSM   H11S11637   4.666   2.019  10.140 -0.2306 -0.0201 -0.8741
  112OSM   H11T11638   4.824   1.932  10.116  0.2901  0.3698  2.1970
  112OSM   C12S11639   4.806   2.129  10.033  0.3034 -0.1128  0.9313
  112OSM   H12S11640   4.914   2.146  10.011 -0.0418 -0.3022 -1.1339
  112OSM   H12T11641   4.761   2.226  10.064 -0.5555 -0.3081  0.3001
  112OSM   C13S11642   4.737   2.091   9.891 -0.1867  0.0254 -0.2514
  112OSM   H13S11643   4.627   2.092   9.909 -0.5577  0.6873 -2.2779
  112OSM   H13T11644   4.769   1.988   9.866  0.7156  0.4533 -0.9419
  112OSM   C14S11645   4.776   2.189   9.783 -0.2894 -0.9218  0.4062
  112OSM   H14S11646   4.886   2.199   9.771 -0.6215 -0.0260 -2.7194
  112OSM   H14T11647   4.737   2.288   9.815 -1.7676 -0.9716 -1.0726
  112OSM   C15S11648   4.713   2.166   9.646  0.3479  0.7256 -0.6905
  112OSM   H15S11649   4.602   2.175   9.648  0.2487 -0.4053 -0.1621
  112OSM   H15T11650   4.725   2.062   9.609 -1.2654  0.2921 -0.1009
  112OSM   C16S11651   4.765   2.267   9.540  0.0068  0.0899  0.2951
  112OSM   H16S11652   4.864   2.291   9.582 -1.0408  1.1253  2.3043
  112OSM   H16T11653   4.702   2.358   9.540 -0.1121  0.0497  2.1047
  112OSM   C17S11654   4.772   2.206   9.398  0.3806 -0.2035 -0.2653
  112OSM   H17S11655   4.668   2.184   9.364  0.2612  2.6891 -2.2398
  112OSM   H17T11656   4.824   2.110   9.381 -0.6362 -0.8836  0.3503
  112OSM   C18S11657   4.821   2.308   9.291 -0.1931  0.4729  0.4482
  112OSM   H18S11658   4.924   2.332   9.322  1.2588 -4.0259 -0.0909
  112OSM   H18T11659   4.751   2.394   9.288 -1.1064 -0.1481  1.9988
  112OSM   H18U11660   4.834   2.264   9.190  1.6697  0.7890  0.5192
  112OSM    C1F11661   5.285   1.345  10.662 -0.1729  0.6851  0.0456
  112OSM     OF11662   5.212   1.246  10.669  0.6841  0.1620  0.2210
  112OSM    C2F11663   5.422   1.346  10.596 -0.7586 -0.6568 -1.0239
  112OSM    H2F11664   5.485   1.255  10.609  1.0749  0.6731 -0.3269
  112OSM    H2G11665   5.473   1.433  10.642 -1.2499 -0.5178 -0.7304
  112OSM    C3F11666   5.392   1.356  10.445  0.4853  0.0111  0.1318
  112OSM    H3F11667   5.328   1.446  10.436  0.2503 -0.2703 -1.2396
  112OSM    H3G11668   5.327   1.272  10.412 -0.5338  0.2843  1.3641
  112OSM    C4F11669   5.509   1.380  10.344  0.0035  0.2368  1.0401
  112OSM    H4F11670   5.483   1.340  10.244  2.5695 -0.5972  0.6477
  112OSM    H4G11671   5.598   1.328  10.385  3.1221  1.5012 -3.4185
  112OSM    C5F11672   5.549   1.537  10.322 -0.2968 -0.7568  0.8915
  112OSM    H5F11673   5.660   1.552  10.321 -0.4259  0.3035  0.3476
  112OSM    H5G11674   5.517   1.598  10.409 -0.0066  0.3824  0.2248
  112OSM    C6F11675   5.490   1.608  10.192 -0.1444  0.6472 -0.4071
  112OSM    H6F11676   5.503   1.717  10.203 -1.9281  0.7208  1.7560
  112OSM    H6G11677   5.381   1.590  10.181  0.0539 -0.9536 -0.0615
  112OSM    C7F11678   5.567   1.555  10.061 -0.2212  0.1293 -0.2529
  112OSM    H7F11679   5.582   1.445  10.057  0.8106  0.2554 -0.0709
  112OSM    H7G11680   5.671   1.592  10.064  0.4931 -1.6948 -0.9705
  112OSM    C8F11681   5.515   1.608   9.927 -0.1795  0.1320 -0.2090
  112OSM    H8F11682   5.489   1.715   9.938  1.7723  0.6356 -0.2269
  112OSM    H8G11683   5.422   1.551   9.905 -0.3988  0.2417  0.4196
  112OSM    C9F11684   5.611   1.606   9.809  0.2059  0.0565 -0.4563
  112OSM    H9F11685   5.708   1.652   9.831  1.6182 -3.3342  1.1761
  112OSM   C10F11686   5.595   1.555   9.686 -0.4554 -0.4157  0.1903
  112OSM   H10F11687   5.683   1.567   9.621  0.1822 -0.5685  1.0038
  112OSM   C11F11688   5.474   1.491   9.627 -0.0740  0.1276 -0.5759
  112OSM   H11F11689   5.379   1.506   9.684 -0.3041  0.8803 -1.1477
  112OSM   H11G11690   5.491   1.382   9.629 -1.6777 -0.1722 -1.5775
  112OSM   C12F11691   5.453   1.540   9.482  0.4703 -0.5684 -0.9794
  112OSM   H12F11692   5.368   1.479   9.445  0.3700  0.1572 -1.9787
  112OSM   H12G11693   5.542   1.513   9.422  0.4011 -1.4276 -0.7042
  112OSM   C13F11694   5.419   1.692   9.461 -0.0197  0.1351  0.0849
  112OSM   H13F11695   5.508   1.755   9.485  0.9137 -1.1320  0.1052
  112OSM   H13G11696   5.352   1.715   9.546  1.0131 -0.6486  1.1554
  112OSM   C14F11697   5.358   1.719   9.325 -0.2635  0.2756 -0.0526
  112OSM   H14F11698   5.314   1.821   9.317  0.0307  0.5473  1.5546
  112OSM   H14G11699   5.268   1.656   9.305  0.5568 -0.0075 -3.4259
  112OSM   C15F11700   5.453   1.683   9.214 -0.3053 -0.1995  0.7059
  112OSM   H15F11701   5.462   1.573   9.215  0.2849 -0.1850 -0.4202
  112OSM   H15G11702   5.552   1.731   9.227 -0.9335  1.1440  0.6990
  112OSM   C16F11703   5.392   1.711   9.074  0.0446 -0.8266 -0.4463
  112OSM   H16F11704   5.355   1.815   9.063  1.8296 -0.2573 -1.4744
  112OSM   H16G11705   5.316   1.634   9.051 -0.7329 -0.0326 -0.5999
  112OSM   C17F11706   5.496   1.696   8.967 -0.3403  0.0379 -0.2498
  112OSM   H17F11707   5.536   1.594   8.983 -0.5668 -0.1869 -1.0633
  112OSM   H17G11708   5.586   1.760   8.981 -1.0935  0.9858  0.3979
  112OSM   C18F11709   5.447   1.718   8.820  0.6983 -0.0158 -0.6740
  112OSM   H18F11710   5.526   1.702   8.745  0.7677  1.2701 -0.8947
  112OSM   H18G11711   5.386   1.811   8.820 -0.2398 -0.6060 -1.1229
  112OSM   H18H11712   5.371   1.641   8.792  2.0129 -1.7828  0.3895
  113OSM      N11713   3.567   0.729  11.430  0.2256 -0.5080  0.3974
  113OSM    C1511714   3.622   0.864  11.466  0.7453  0.4851 -0.2198
  113OSM   H15A11715   3.579   0.956  11.427  2.5566  2.0525  1.2914
  113OSM   H15B11716   3.724   0.870  11.432  0.4973 -0.3173 -1.1619
  113OSM   H15C11717   3.634   0.872  11.573 -0.3706 -2.4985  0.2202
  113OSM    C1411718   3.662   0.625  11.488 -0.7029 -0.0875  0.5909
  113OSM   H14A11719   3.638   0.528  11.448  2.2777 -0.1686 -1.3560
  113OSM   H14B11720   3.665   0.628  11.596  0.4824 -0.4389  0.5920
  113OSM   H14C11721   3.762   0.649  11.453 -0.8331 -0.6300 -0.1784
  113OSM    C1311722   3.431   0.701  11.486  0.0373  0.5467 -0.1530
  113OSM   H13A11723   3.439   0.698  11.593  0.8954 -1.7873 -0.2318
  113OSM   H13B11724   3.394   0.606  11.451  1.8108 -0.5001  0.6875
  113OSM   H13C11725   3.362   0.782  11.467 -0.0876  0.3693 -0.4603
  113OSM    C1211726   3.570   0.717  11.281  0.1716 -0.0031 -0.4992
  113OSM   H12A11727   3.562   0.612  11.254 -0.0078  0.5984 -3.1098
  113OSM   H12B11728   3.671   0.736  11.250 -0.0089 -0.4226 -1.3910
  113OSM    C1111729   3.473   0.802  11.196 -0.4600  0.1838 -0.3124
  113OSM   H11A11730   3.524   0.805  11.098  2.0972  2.6019  0.9438
  113OSM   H11B11731   3.467   0.902  11.245 -2.0398  0.8132 -1.7088
  113OSM      P11732   3.291   0.605  11.175  0.6455 -0.0445  0.2922
  113OSM    O1311733   3.402   0.513  11.156 -0.0812 -0.0198 -0.5388
  113OSM    O1411734   3.207   0.577  11.294 -0.3502  0.6830 -0.2188
  113OSM    O1111735   3.202   0.614  11.048 -0.4673  0.5345 -0.3331
  113OSM    O1211736   3.342   0.752  11.190 -0.3828  0.3107 -0.7196
  113OSM    C1S11737   3.276   0.631  10.919 -0.0809 -0.4692 -0.4605
  113OSM    H1S11738   3.319   0.534  10.890  1.1171 -0.1973  0.3410
  113OSM    H1T11739   3.353   0.711  10.928 -0.7965  0.0103  2.9029
  113OSM     NF11740   3.227   0.650  10.682  0.4096 -0.3706  0.2067
  113OSM    HNF11741   3.240   0.730  10.623  0.3864 -0.2808  0.3219
  113OSM    C2S11742   3.165   0.667  10.811 -0.4320 -0.7798  0.9371
  113OSM    H2S11743   3.079   0.597  10.809 -2.1433  1.2361 -1.5416
  113OSM    C3S11744   3.107   0.808  10.842 -0.6979  0.6907  0.8162
  113OSM    H3S11745   3.196   0.874  10.832 -0.7171  0.7958  1.3033
  113OSM     O311746   3.029   0.820  10.965  0.0003 -0.3406  0.1605
  113OSM    HO311747   3.048   0.742  11.016  1.5811 -0.2384 -0.2054
  113OSM    C4S11748   3.005   0.841  10.736  0.8349 -0.6160  0.4506
  113OSM    H4S11749   2.911   0.784  10.739 -0.1157  0.9514  1.5785
  113OSM    C5S11750   3.024   0.940  10.641 -0.0607  0.2434  0.2438
  113OSM    H5S11751   3.120   0.991  10.629 -0.6208  0.9408 -1.8360
  113OSM    C6S11752   2.919   0.982  10.528  0.4253  0.3139 -0.5714
  113OSM    H6S11753   2.964   0.942  10.435  4.0283  1.3277  0.5959
  113OSM    H6T11754   2.930   1.091  10.513  1.5781 -0.1527 -3.8958
  113OSM    C7S11755   2.770   0.957  10.541  0.3334 -0.4596  0.3693
  113OSM    H7S11756   2.741   0.993  10.642  1.4723 -0.1228  0.5930
  113OSM    H7T11757   2.751   0.847  10.534 -1.3826 -0.1465 -0.4104
  113OSM    C8S11758   2.680   1.024  10.433 -0.1715 -0.7035 -0.5443
  113OSM    H8S11759   2.685   1.133  10.453  1.7145 -0.4992 -1.8847
  113OSM    H8T11760   2.572   0.998  10.437  0.1919 -2.1669  1.0695
  113OSM    C9S11761   2.738   1.011  10.295  0.0163  0.6552 -0.0716
  113OSM    H9S11762   2.762   0.904  10.278 -0.7089  0.2462  1.3002
  113OSM    H9T11763   2.832   1.070  10.291  0.0309  0.6470  0.1259
  113OSM   C10S11764   2.655   1.054  10.172  0.2997  0.0576 -0.0816
  113OSM   H10S11765   2.634   1.163  10.179  1.7100  0.5573 -2.5563
  113OSM   H10T11766   2.562   0.992  10.170 -0.2672  0.9227 -1.0514
  113OSM   C11S11767   2.735   1.051  10.040  0.6823 -0.1198  0.3543
  113OSM   H11S11768   2.756   0.946  10.010  0.8944  0.4551 -1.6630
  113OSM   H11T11769   2.833   1.100  10.058  0.5544 -0.2787  1.5380
  113OSM   C12S11770   2.648   1.108   9.928  0.2226 -0.1317 -0.2931
  113OSM   H12S11771   2.642   1.218   9.934 -2.1276 -0.2707  0.8327
  113OSM   H12T11772   2.540   1.084   9.940 -0.5328  2.8231 -0.5342
  113OSM   C13S11773   2.682   1.062   9.782 -0.1973  0.1267 -0.1367
  113OSM   H13S11774   2.657   0.954   9.773  2.0169 -0.2874 -2.1435
  113OSM   H13T11775   2.791   1.072   9.764 -0.2981  0.6453 -0.4773
  113OSM   C14S11776   2.620   1.161   9.686  0.8606 -0.5688 -0.6140
  113OSM   H14S11777   2.621   1.264   9.727 -1.5355 -1.0605  0.9371
  113OSM   H14T11778   2.514   1.128   9.682 -0.3821  3.1518 -3.6747
  113OSM   C15S11779   2.684   1.155   9.544  0.1411  0.6296 -0.7444
  113OSM   H15S11780   2.669   1.051   9.508  0.8344  0.4834 -0.6149
  113OSM   H15T11781   2.790   1.180   9.564 -0.1982  2.3850 -0.9509
  113OSM   C16S11782   2.621   1.253   9.449  0.4828  0.2772  0.0519
  113OSM   H16S11783   2.639   1.358   9.483  0.5372  0.3290 -0.1381
  113OSM   H16T11784   2.511   1.239   9.449  0.6207 -0.9083 -1.0177
  113OSM   C17S11785   2.681   1.241   9.298 -0.5068  0.4468  0.2672
  113OSM   H17S11786   2.712   1.135   9.288 -1.4520  0.3325 -2.0120
  113OSM   H17T11787   2.773   1.301   9.277 -1.0060  1.3119  0.4842
  113OSM   C18S11788   2.577   1.258   9.192  0.0458 -0.9532  0.0121
  113OSM   H18S11789   2.490   1.193   9.215 -1.2937  1.6741  3.1842
  113OSM   H18T11790   2.626   1.239   9.093  0.5679 -2.4560  0.5263
  113OSM   H18U11791   2.524   1.355   9.196 -1.4477 -1.7299 -0.2774
  113OSM    C1F11792   3.243   0.532  10.629  0.1218  0.0222  0.5969
  113OSM     OF11793   3.213   0.427  10.687  0.5112 -0.2984  0.4231
  113OSM    C2F11794   3.293   0.534  10.485 -0.9442  0.0523 -0.2998
  113OSM    H2F11795   3.402   0.553  10.487 -0.5880 -1.8588  0.9946
  113OSM    H2G11796   3.241   0.614  10.428  0.6320 -0.0607 -1.9851
  113OSM    C3F11797   3.257   0.405  10.410  0.3500 -0.2799  0.5577
  113OSM    H3F11798   3.146   0.394  10.416 -0.1353  2.9510 -0.4163
  113OSM    H3G11799   3.304   0.318  10.460  1.1548 -1.1343 -1.5305
  113OSM    C4F11800   3.305   0.411  10.263  0.5156  1.0346 -0.8599
  113OSM    H4F11801   3.404   0.461  10.259  1.6072 -0.8932  0.6486
  113OSM    H4G11802   3.249   0.495  10.216  0.2993  2.0599  1.1086
  113OSM    C5F11803   3.299   0.277  10.194  0.1705 -0.2737  0.4966
  113OSM    H5F11804   3.199   0.232  10.214 -0.4784  0.9990  0.2272
  113OSM    H5G11805   3.371   0.201  10.231  0.8293 -0.5553 -1.2791
  113OSM    C6F11806   3.312   0.295  10.037 -0.5474  0.0072  0.6731
  113OSM    H6F11807   3.383   0.378  10.018 -1.5131  1.1906  1.9678
  113OSM    H6G11808   3.212   0.325   9.999 -0.4220 -0.6810 -0.2109
  113OSM    C7F11809   3.340   0.161   9.959  0.5156  0.1380  0.6286
  113OSM    H7F11810   3.271   0.082   9.994  0.4164 -0.0916 -0.0868
  113OSM    H7G11811   3.444   0.129   9.978 -0.0772 -1.6215  1.0725
  113OSM    C8F11812   3.312   0.181   9.806  0.1824 -0.0582  0.8143
  113OSM    H8F11813   3.382   0.253   9.760 -0.5335 -0.3786 -0.8635
  113OSM    H8G11814   3.210   0.224   9.794  0.6880  1.4724  1.7674
  113OSM    C9F11815   3.331   0.050   9.730 -0.0587  0.3226 -0.1452
  113OSM    H9F11816   3.384  -0.035   9.775 -0.1136 -0.2799 -1.1820
  113OSM   C10F11817   3.284   0.024   9.607  0.5058  0.0769 -0.4555
  113OSM   H10F11818   3.312  -0.071   9.558  0.5898 -1.9596  3.1591
  113OSM   C11F11819   3.212   0.127   9.536 -0.4128 -0.9976  0.1112
  113OSM   H11F11820   3.217   0.231   9.575 -2.5515 -0.6326 -0.4649
  113OSM   H11G11821   3.104   0.106   9.553 -0.9233  0.0993 -1.5455
  113OSM   C12F11822   3.244   0.117   9.390  0.0883  0.0816  0.0359
  113OSM   H12F11823   3.167   0.173   9.332  0.4762 -0.7115 -1.2826
  113OSM   H12G11824   3.243   0.013   9.352  2.5614  0.0686 -0.1476
  113OSM   C13F11825   3.376   0.182   9.347 -0.7828 -0.2376  0.0757
  113OSM   H13F11826   3.461   0.131   9.398  0.8981  1.3661 -1.0143
  113OSM   H13G11827   3.380   0.289   9.375 -1.0363  0.0169 -0.8313
  113OSM   C14F11828   3.406   0.170   9.194  0.0070  0.3280  0.7001
  113OSM   H14F11829   3.427   0.064   9.171  2.4185  0.4506  2.0036
  113OSM   H14G11830   3.500   0.228   9.178  0.4554 -0.6720 -0.4205
  113OSM   C15F11831   3.287   0.231   9.113 -0.0084  0.2319 -0.7027
  113OSM   H15F11832   3.265   0.333   9.151  1.4069 -0.0822  1.0997
  113OSM   H15G11833   3.192   0.176   9.129  1.1926 -1.3250  1.5572
  113OSM   C16F11834   3.320   0.257   8.960 -0.1644  0.6562 -0.2596
  113OSM   H16F11835   3.425   0.281   8.935 -0.1316 -0.6910 -1.5557
  113OSM   H16G11836   3.258   0.338   8.916  0.0653  1.0126  0.0727
  113OSM   C17F11837   3.290   0.129   8.881 -1.0160  0.5282  0.5078
  113OSM   H17F11838   3.187   0.095   8.902 -1.3961  0.5175 -1.2288
  113OSM   H17G11839   3.352   0.049   8.927  0.0423  0.4268 -1.0097
  113OSM   C18F11840   3.322   0.146   8.730 -0.2296 -0.1341  0.3195
  113OSM   H18F11841   3.433   0.147   8.715 -0.4059  1.9310 -1.3314
  113OSM   H18G11842   3.289   0.247   8.699 -2.6114 -0.9208  0.1588
  113OSM   H18H11843   3.272   0.074   8.662  0.4046  1.4877 -1.9636
  114OSM      N11844   4.075   1.420  11.550 -0.6757  0.5591  0.3552
  114OSM    C1511845   4.048   1.291  11.624 -0.0391  0.1841  0.3092
  114OSM   H15A11846   4.043   1.318  11.728  3.4968  2.2177  0.0923
  114OSM   H15B11847   4.122   1.214  11.607  0.6933 -0.0012  3.7604
  114OSM   H15C11848   3.951   1.249  11.601 -0.5563  0.3915  1.9556
  114OSM    C1411849   3.977   1.521  11.602  0.3908  0.4687  0.4744
  114OSM   H14A11850   3.874   1.490  11.593  0.2232  1.5814 -2.3551
  114OSM   H14B11851   3.994   1.617  11.557  1.9936 -0.0052 -0.0292
  114OSM   H14C11852   4.002   1.540  11.706 -0.7485  0.2859  0.7929
  114OSM    C1311853   4.218   1.459  11.588 -0.5967 -0.4140  0.1663
  114OSM   H13A11854   4.253   1.524  11.508 -0.2020 -2.9585 -1.8659
  114OSM   H13B11855   4.290   1.378  11.583  0.0350  0.0357  1.4904
  114OSM   H13C11856   4.220   1.512  11.682  0.6039  1.6377 -0.9393
  114OSM    C1211857   4.064   1.405  11.396 -0.5011  0.0167  0.2729
  114OSM   H12A11858   3.968   1.366  11.367 -1.0605  0.3654  1.5899
  114OSM   H12B11859   4.129   1.323  11.369  1.6474  0.2474  4.0537
  114OSM    C1111860   4.098   1.529  11.322 -0.4730 -0.6464 -0.1873
  114OSM   H11A11861   4.206   1.543  11.300 -0.3728  2.5473  1.7414
  114OSM   H11B11862   4.068   1.620  11.379 -1.4295 -0.8451 -0.3545
  114OSM      P11863   3.906   1.611  11.156 -0.4188  0.4045  0.0447
  114OSM    O1311864   3.848   1.546  11.040  0.2775  0.0232 -0.0150
  114OSM    O1411865   3.820   1.619  11.274  0.1116 -0.4587  0.2167
  114OSM    O1111866   3.971   1.753  11.121 -0.4762 -0.3628  0.2536
  114OSM    O1211867   4.034   1.525  11.196  0.5202 -0.6404  0.3597
  114OSM    C1S11868   4.067   1.749  11.013 -0.8052  0.7634  0.0869
  114OSM    H1S11869   4.129   1.658  11.000  1.1354  2.3376 -2.9257
  114OSM    H1T11870   4.142   1.827  11.037  1.7083 -1.4811 -0.0758
  114OSM     NF11871   4.106   1.793  10.768 -0.5868 -0.3983 -0.6916
  114OSM    HNF11872   4.105   1.886  10.732 -1.2293 -0.5940 -1.2199
  114OSM    C2S11873   4.004   1.768  10.868  0.1634 -0.5058  0.0020
  114OSM    H2S11874   3.949   1.673  10.848  0.6808 -0.6312 -0.8833
  114OSM    C3S11875   3.882   1.877  10.865 -0.2737 -0.2475  0.1044
  114OSM    H3S11876   3.924   1.977  10.885  0.2727 -0.8093  1.9561
  114OSM     O311877   3.778   1.871  10.965 -0.0142  0.5056  0.2381
  114OSM    HO311878   3.822   1.813  11.027  3.7113  1.0375 -1.6760
  114OSM    C4S11879   3.828   1.882  10.723 -0.0187  0.1296 -0.5508
  114OSM    H4S11880   3.801   1.788  10.673 -0.0992 -0.0175 -0.2346
  114OSM    C5S11881   3.805   1.997  10.660 -0.9231  0.4811 -0.3563
  114OSM    H5S11882   3.836   2.093  10.704 -0.5270  0.5566 -0.7928
  114OSM    C6S11883   3.763   2.002  10.520 -0.7474  0.7471  0.0582
  114OSM    H6S11884   3.657   2.035  10.519 -0.6852  0.9451 -1.5526
  114OSM    H6T11885   3.771   1.902  10.473 -0.7200 -0.6055  2.7242
  114OSM    C7S11886   3.852   2.088  10.433  0.0056 -0.1170 -0.1503
  114OSM    H7S11887   3.953   2.043  10.439  1.0851  1.8110 -2.3127
  114OSM    H7T11888   3.868   2.182  10.489 -0.2185  0.0649 -0.3905
  114OSM    C8S11889   3.801   2.112  10.283 -0.1376 -0.2171 -0.5035
  114OSM    H8S11890   3.706   2.169  10.281  0.1375  0.2254 -1.7840
  114OSM    H8T11891   3.774   2.011  10.244 -1.0350  0.5289 -1.9028
  114OSM    C9S11892   3.911   2.170  10.201  0.0546  0.4680  0.1211
  114OSM    H9S11893   4.008   2.122  10.225  0.7678  1.1180 -1.3168
  114OSM    H9T11894   3.917   2.280  10.212 -0.0279  0.6423 -1.3153
  114OSM   C10S11895   3.879   2.146  10.051 -0.5815 -0.0649 -0.2019
  114OSM   H10S11896   3.786   2.205  10.048 -0.6991 -0.2706 -1.0732
  114OSM   H10T11897   3.865   2.037  10.035 -1.4978  0.1509 -0.9278
  114OSM   C11S11898   3.985   2.211   9.969 -0.3272 -0.1522 -0.0219
  114OSM   H11S11899   4.086   2.174   9.995  0.5836  2.0256 -0.2618
  114OSM   H11T11900   3.985   2.319   9.995  1.2574 -0.2176  0.3577
  114OSM   C12S11901   3.965   2.195   9.818 -0.4479  0.7666 -0.5223
  114OSM   H12S11902   3.982   2.087   9.800 -0.4967  0.3547  1.6997
  114OSM   H12T11903   4.051   2.256   9.782 -0.2566  0.6378 -0.2852
  114OSM   C13S11904   3.836   2.249   9.763 -0.4444  0.0131 -0.7542
  114OSM   H13S11905   3.849   2.352   9.801  1.7728 -0.4314 -0.1818
  114OSM   H13T11906   3.742   2.217   9.813  0.4286 -1.5817 -0.0576
  114OSM   C14S11907   3.819   2.231   9.617 -0.1179 -0.7079 -0.2685
  114OSM   H14S11908   3.911   2.282   9.580 -0.2666 -0.3010 -0.0860
  114OSM   H14T11909   3.719   2.279   9.603 -0.0619  0.1917  2.0148
  114OSM   C15S11910   3.809   2.079   9.574 -0.1199  0.2092  0.3389
  114OSM   H15S11911   3.754   2.011   9.642  1.2153 -1.1691  0.1055
  114OSM   H15T11912   3.913   2.043   9.562  0.0258  0.1827  1.5518
  114OSM   C16S11913   3.725   2.063   9.445  0.0844  0.4170  0.0228
  114OSM   H16S11914   3.623   2.107   9.449  0.3300  0.9098  1.5353
  114OSM   H16T11915   3.721   1.952   9.434  1.2766  0.1800  1.5834
  114OSM   C17S11916   3.801   2.135   9.340  0.3969 -0.1135  0.0256
  114OSM   H17S11917   3.893   2.074   9.328  0.6418  0.5229 -1.6505
  114OSM   H17T11918   3.824   2.236   9.377  0.1416  0.2951 -0.8871
  114OSM   C18S11919   3.742   2.138   9.208  0.2970  0.7785 -0.3970
  114OSM   H18S11920   3.792   2.201   9.131 -0.1610  1.5924 -0.0413
  114OSM   H18T11921   3.636   2.173   9.206  0.2270  0.7176  1.2589
  114OSM   H18U11922   3.745   2.033   9.172  1.6188  0.5069  0.4557
  114OSM    C1F11923   4.202   1.704  10.735  0.2202  0.3066  0.3701
  114OSM     OF11924   4.184   1.584  10.763 -0.5773  0.1658  0.1883
  114OSM    C2F11925   4.328   1.750  10.670  0.4742 -0.7265  0.7676
  114OSM    H2F11926   4.406   1.715  10.741 -1.3573 -0.9504  2.7800
  114OSM    H2G11927   4.332   1.861  10.671 -1.8132 -0.5938 -0.0873
  114OSM    C3F11928   4.348   1.684  10.538  0.2919  0.3999  0.1484
  114OSM    H3F11929   4.257   1.705  10.477 -0.5530  1.5562  1.7251
  114OSM    H3G11930   4.344   1.573  10.546  0.3313  0.0875 -2.8930
  114OSM    C4F11931   4.464   1.736  10.447 -0.0987  0.3096  0.1045
  114OSM    H4F11932   4.569   1.738  10.484  1.5872 -1.0854 -4.0575
  114OSM    H4G11933   4.445   1.841  10.414  0.8612  0.0433 -1.3895
  114OSM    C5F11934   4.476   1.656  10.318  1.0680 -0.1209 -0.0042
  114OSM    H5F11935   4.380   1.655  10.260  0.8923 -0.1351  0.2852
  114OSM    H5G11936   4.503   1.551  10.339  1.1391 -0.2468 -0.6916
  114OSM    C6F11937   4.568   1.711  10.213  0.2259  0.2592 -1.1631
  114OSM    H6F11938   4.671   1.715  10.257 -0.8715  1.7032  1.5726
  114OSM    H6G11939   4.542   1.816  10.188  0.1709  0.1315 -1.6398
  114OSM    C7F11940   4.562   1.623  10.089  0.3080 -0.1968 -0.0464
  114OSM    H7F11941   4.453   1.606  10.073  0.7319 -1.6856 -1.7783
  114OSM    H7G11942   4.601   1.519  10.102  0.1440 -0.6149 -2.4371
  114OSM    C8F11943   4.627   1.695   9.966  0.6582 -0.5496 -0.8368
  114OSM    H8F11944   4.724   1.737   9.998 -0.8527  2.6636 -0.0318
  114OSM    H8G11945   4.571   1.787   9.939  0.6710  0.1943  1.4132
  114OSM    C9F11946   4.645   1.614   9.844 -0.3597  0.2183 -0.4226
  114OSM    H9F11947   4.689   1.514   9.854 -0.2404  0.4661  2.0839
  114OSM   C10F11948   4.614   1.649   9.716  0.4244  0.0582 -0.0636
  114OSM   H10F11949   4.659   1.589   9.635  0.1778 -0.7376  0.3797
  114OSM   C11F11950   4.551   1.785   9.677  0.3317 -0.4165  0.0604
  114OSM   H11F11951   4.598   1.868   9.733  0.2495  1.4595 -2.5089
  114OSM   H11G11952   4.444   1.791   9.709  0.2658  1.3721 -0.4137
  114OSM   C12F11953   4.574   1.825   9.532  0.3490 -0.7467  1.0068
  114OSM   H12F11954   4.680   1.850   9.507  0.2314 -1.6667 -0.5765
  114OSM   H12G11955   4.512   1.916   9.515  1.6724 -0.3382 -2.6172
  114OSM   C13F11956   4.539   1.731   9.417  0.4856  0.1387  0.1913
  114OSM   H13F11957   4.436   1.691   9.431  0.5275  0.6103  2.2854
  114OSM   H13G11958   4.585   1.630   9.418  0.2067 -0.0160 -1.2186
  114OSM   C14F11959   4.545   1.798   9.274  0.3662  0.2058 -0.0858
  114OSM   H14F11960   4.650   1.819   9.243 -0.3099 -1.2678 -3.8615
  114OSM   H14G11961   4.493   1.896   9.281  2.0017  1.0317  1.9606
  114OSM   C15F11962   4.495   1.701   9.163 -0.6839 -0.0752  0.3122
  114OSM   H15F11963   4.386   1.687   9.180 -1.2694  1.8036 -1.3794
  114OSM   H15G11964   4.544   1.603   9.175  2.6318  1.4951  0.7357
  114OSM   C16F11965   4.539   1.753   9.018  0.5515  0.5579 -0.6991
  114OSM   H16F11966   4.532   1.669   8.946 -2.2688 -0.4096  0.5221
  114OSM   H16G11967   4.644   1.786   9.026  0.5763  0.5328 -0.9202
  114OSM   C17F11968   4.454   1.873   8.968  0.1838 -0.4598 -0.3200
  114OSM   H17F11969   4.491   1.965   9.017 -1.0321  0.9937 -1.9866
  114OSM   H17G11970   4.349   1.857   9.001  0.4037  1.2470  1.3614
  114OSM   C18F11971   4.473   1.887   8.825 -0.7265  0.0189  0.1405
  114OSM   H18F11972   4.571   1.932   8.798 -0.5131  0.7379  1.9632
  114OSM   H18G11973   4.401   1.957   8.778  0.6421  2.3231  1.3012
  114OSM   H18H11974   4.467   1.785   8.780 -0.6158 -0.4661  1.1911
  115OSM      N11975   0.904   2.125  11.215  0.3998  0.1164  0.3361
  115OSM    C1511976   0.939   2.243  11.122 -0.7330 -0.6414  0.0069
  115OSM   H15A11977   1.046   2.252  11.112 -0.6017 -2.5119 -0.8068
  115OSM   H15B11978   0.906   2.333  11.172 -0.1335  0.0363 -0.7984
  115OSM   H15C11979   0.885   2.241  11.028 -0.4010 -2.8400 -0.1924
  115OSM    C1411980   0.977   2.155  11.344 -0.1694 -0.5496  0.1071
  115OSM   H14A11981   0.954   2.085  11.423 -0.7078  1.1392  1.5191
  115OSM   H14B11982   0.948   2.253  11.381 -0.9462  0.1955 -2.2502
  115OSM   H14C11983   1.084   2.156  11.333 -0.3785 -0.9018 -2.9418
  115OSM    C1311984   0.758   2.127  11.220  0.6635  0.6876  0.5258
  115OSM   H13A11985   0.717   2.214  11.271 -0.9334 -0.5314  1.4270
  115OSM   H13B11986   0.733   2.041  11.279  0.8595  0.0111 -0.3496
  115OSM   H13C11987   0.716   2.123  11.120  0.0133 -0.1801  0.8165
  115OSM    C1211988   0.949   1.993  11.158  0.5794 -0.4908 -0.2179
  115OSM   H12A11989   0.956   1.913  11.229 -0.2191 -1.4713 -1.2119
  115OSM   H12B11990   1.047   2.000  11.112  0.3980 -0.8181 -0.6635
  115OSM    C1111991   0.866   1.941  11.032 -0.2570 -0.8565 -0.2645
  115OSM   H11A11992   0.938   1.891  10.963 -0.2058 -0.8527 -0.2134
  115OSM   H11B11993   0.835   2.030  10.973  0.6798 -1.7615 -2.2074
  115OSM      P11994   0.769   1.730  11.132 -0.5392 -0.2092 -0.0980
  115OSM    O1311995   0.877   1.735  11.235  0.2241  0.6227  0.0391
  115OSM    O1411996   0.638   1.680  11.175 -0.1242  0.6287 -0.2072
  115OSM    O1111997   0.825   1.647  11.015 -0.5392 -0.1294 -0.5501
  115OSM    O1211998   0.748   1.865  11.064  0.0329 -0.1856 -0.0587
  115OSM    C1S11999   0.841   1.506  11.026 -0.0061  0.2511  0.8330
  115OSM    H1S12000   0.792   1.459  11.115 -0.2680 -1.2565 -0.0821
  115OSM    H1T12001   0.948   1.478  11.024 -0.2899 -0.8221 -0.1184
  115OSM     NF12002   0.787   1.293  10.917 -0.2854  0.5022  0.2775
  115OSM    HNF12003   0.877   1.255  10.895 -0.2731  0.4169  0.4676
  115OSM    C2S12004   0.778   1.437  10.895 -0.1056  0.2375 -0.0354
  115OSM    H2S12005   0.672   1.468  10.879 -0.0122  0.6301  0.0849
  115OSM    C3S12006   0.861   1.490  10.771  0.1824 -0.4969  0.0342
  115OSM    H3S12007   0.964   1.449  10.775 -0.8810 -3.4074 -0.2708
  115OSM     O312008   0.860   1.634  10.754  0.3081 -0.3286 -0.3960
  115OSM    HO312009   0.851   1.676  10.839  0.0370 -0.7776 -0.1976
  115OSM    C4S12010   0.794   1.414  10.651 -0.0881 -0.1781  0.5944
  115OSM    H4S12011   0.864   1.336  10.619 -0.3461 -0.9164  1.7951
  115OSM    C5S12012   0.690   1.447  10.571 -0.4540  1.0394 -0.0805
  115OSM    H5S12013   0.631   1.536  10.598 -0.9682  0.4155  0.9441
  115OSM    C6S12014   0.641   1.370  10.457  0.0010  0.4885  0.0677
  115OSM    H6S12015   0.621   1.442  10.375  0.8912  1.5534  0.7641
  115OSM    H6T12016   0.537   1.334  10.472 -0.5703  1.3105 -1.7178
  115OSM    C7S12017   0.723   1.250  10.400  0.3569 -0.1439 -0.7771
  115OSM    H7S12018   0.727   1.166  10.472 -0.4915 -0.8517 -1.5212
  115OSM    H7T12019   0.824   1.271  10.359 -0.3368  0.9001 -2.0398
  115OSM    C8S12020   0.655   1.196  10.274 -0.1114 -0.3717  0.1672
  115OSM    H8S12021   0.549   1.162  10.281 -0.3603  0.5218  0.8624
  115OSM    H8T12022   0.715   1.111  10.234 -2.4902 -2.0584 -0.0682
  115OSM    C9S12023   0.653   1.290  10.156  0.1802 -0.7157 -0.5339
  115OSM    H9S12024   0.756   1.331  10.152  0.7681 -1.9022  1.1838
  115OSM    H9T12025   0.590   1.380  10.170 -0.4263 -1.0667 -0.9600
  115OSM   C10S12026   0.614   1.224  10.026 -0.3049  0.3295 -0.3145
  115OSM   H10S12027   0.539   1.145  10.045 -0.5620  0.6607  0.0645
  115OSM   H10T12028   0.698   1.167   9.981 -0.3434  0.4542 -0.5481
  115OSM   C11S12029   0.558   1.327   9.927 -0.4159  0.3632 -0.3311
  115OSM   H11S12030   0.639   1.399   9.905 -2.0138  1.5758 -2.7629
  115OSM   H11T12031   0.468   1.388   9.949 -0.4392  0.0039  0.6175
  115OSM   C12S12032   0.527   1.260   9.792  0.2471 -0.2675  0.2255
  115OSM   H12S12033   0.456   1.177   9.815  1.4879 -1.3474  0.2640
  115OSM   H12T12034   0.624   1.222   9.754 -0.0192 -0.9846  0.2433
  115OSM   C13S12035   0.450   1.347   9.700 -0.4959 -0.7288  0.2835
  115OSM   H13S12036   0.508   1.432   9.658 -3.6255  0.1108 -2.9248
  115OSM   H13T12037   0.369   1.407   9.746 -2.8260 -0.6334 -3.4407
  115OSM   C14S12038   0.389   1.269   9.589  0.2247 -0.1689  0.1593
  115OSM   H14S12039   0.423   1.164   9.586 -1.9343 -0.9012 -0.4542
  115OSM   H14T12040   0.419   1.320   9.495  1.8630 -2.1006 -0.4415
  115OSM   C15S12041   0.237   1.270   9.593  0.5806  0.3221  0.4975
  115OSM   H15S12042   0.191   1.365   9.628  1.0491  0.6057  0.3511
  115OSM   H15T12043   0.210   1.198   9.673  0.2008  1.1476  1.1255
  115OSM   C16S12044   0.167   1.236   9.455 -0.1598 -0.4346 -0.8902
  115OSM   H16S12045   0.067   1.189   9.470  0.1228 -0.6850  0.2724
  115OSM   H16T12046   0.221   1.152   9.408 -0.2643 -1.0458  0.0505
  115OSM   C17S12047   0.153   1.355   9.362 -0.1517 -0.8310 -1.0057
  115OSM   H17S12048   0.238   1.424   9.380  0.0650 -0.6240 -2.6648
  115OSM   H17T12049   0.066   1.419   9.388  0.1270 -0.1259 -1.7576
  115OSM   C18S12050   0.148   1.304   9.227  0.3448  0.7097  0.4507
  115OSM   H18S12051   0.105   1.381   9.159  2.5594  2.0210  0.4319
  115OSM   H18T12052   0.086   1.212   9.222  0.6990  0.5203 -0.8382
  115OSM   H18U12053   0.249   1.283   9.185  0.1739 -0.0968  0.4284
  115OSM    C1F12054   0.707   1.236  11.006  0.1473  0.2399  1.5052
  115OSM     OF12055   0.617   1.295  11.060  1.0896  0.3345 -0.2404
  115OSM    C2F12056   0.750   1.097  11.044 -0.3615 -0.4602  0.4038
  115OSM    H2F12057   0.744   1.105  11.155  1.0678 -0.1326  0.4759
  115OSM    H2G12058   0.858   1.080  11.023 -0.5435 -0.6136 -0.4172
  115OSM    C3F12059   0.651   0.990  11.006 -0.6145  0.7120 -0.2628
  115OSM    H3F12060   0.554   1.009  11.057 -0.6386 -0.2324  0.0659
  115OSM    H3G12061   0.682   0.888  11.037  0.7226  0.5855 -1.8520
  115OSM    C4F12062   0.630   0.968  10.855 -0.3157  0.7908 -1.1375
  115OSM    H4F12063   0.719   0.988  10.792  0.1095 -0.3791 -0.9468
  115OSM    H4G12064   0.555   1.040  10.816 -0.8228  1.0532  0.2747
  115OSM    C5F12065   0.567   0.836  10.821 -0.0120  0.4789  0.3281
  115OSM    H5F12066   0.612   0.749  10.872 -2.0885  0.3368  2.0965
  115OSM    H5G12067   0.579   0.824  10.711  0.1036 -0.0027  0.3930
  115OSM    C6F12068   0.416   0.814  10.865 -0.3191  0.3473 -0.0454
  115OSM    H6F12069   0.410   0.860  10.966 -0.3438 -0.5125  0.3552
  115OSM    H6G12070   0.382   0.708  10.865  0.5051  0.0442 -1.7509
  115OSM    C7F12071   0.323   0.906  10.776  0.1297 -0.5010  0.1607
  115OSM    H7F12072   0.338   1.014  10.794 -1.1773 -0.4227  0.8828
  115OSM    H7G12073   0.219   0.903  10.816 -0.5685 -0.5652 -1.5470
  115OSM    C8F12074   0.328   0.875  10.621 -0.8291 -0.3586  0.3643
  115OSM    H8F12075   0.350   0.766  10.614  0.7002 -0.0213 -0.3424
  115OSM    H8G12076   0.413   0.936  10.585 -0.0578 -0.2411  2.2786
  115OSM    C9F12077   0.200   0.921  10.561  0.2985  0.0406 -0.1863
  115OSM    H9F12078   0.112   0.885  10.616  1.1156  1.8046  2.4424
  115OSM   C10F12079   0.186   1.007  10.465 -0.2526 -0.5682 -0.5351
  115OSM   H10F12080   0.090   1.050  10.433 -0.2142 -0.3411 -0.3391
  115OSM   C11F12081   0.300   1.061  10.383 -0.4202  0.1061 -0.8561
  115OSM   H11F12082   0.376   0.980  10.372 -0.6013 -0.2455  0.3225
  115OSM   H11G12083   0.350   1.144  10.438  1.7358 -1.6423 -0.0319
  115OSM   C12F12084   0.256   1.092  10.237 -0.5622 -0.4745 -0.3499
  115OSM   H12F12085   0.344   1.135  10.184 -0.7772  0.7652  0.2822
  115OSM   H12G12086   0.168   1.156  10.213 -0.5718 -0.0380  0.8116
  115OSM   C13F12087   0.228   0.958  10.153 -0.5172 -0.7874 -0.1256
  115OSM   H13F12088   0.136   0.910  10.191 -0.5249 -0.7073 -0.0409
  115OSM   H13G12089   0.311   0.885  10.163 -2.0028 -2.6262 -0.7107
  115OSM   C14F12090   0.201   0.987  10.008 -0.3143  0.5670  0.4452
  115OSM   H14F12091   0.289   1.045   9.973  0.3614 -0.8775 -0.2821
  115OSM   H14G12092   0.108   1.044   9.987  0.4305  2.1804  1.3375
  115OSM   C15F12093   0.200   0.855   9.917 -0.1192 -0.6529 -0.3033
  115OSM   H15F12094   0.105   0.798   9.922 -0.3034 -0.4057 -0.8803
  115OSM   H15G12095   0.280   0.789   9.958 -1.1068 -1.3620  0.5296
  115OSM   C16F12096   0.230   0.880   9.769  0.2659  0.2435 -0.1392
  115OSM   H16F12097   0.297   0.799   9.733 -0.2260 -0.0605 -0.3742
  115OSM   H16G12098   0.290   0.973   9.765 -2.0345  1.8554  0.6619
  115OSM   C17F12099   0.113   0.901   9.680  0.2680 -0.3539  0.5943
  115OSM   H17F12100   0.073   1.004   9.666 -3.9375 -1.7857  0.5100
  115OSM   H17G12101   0.026   0.843   9.715 -0.4170 -0.0595 -0.5532
  115OSM   C18F12102   0.152   0.864   9.540  0.5366 -0.5825  0.6308
  115OSM   H18F12103   0.225   0.929   9.487 -1.6109 -0.2149 -2.1506
  115OSM   H18G12104   0.071   0.849   9.465  2.3611  1.9774 -2.0460
  115OSM   H18H12105   0.201   0.764   9.548 -1.9418 -2.1548 -1.6417
  116OSM      N12106   5.020   2.767  11.134  0.2512 -0.5381  0.2926
  116OSM    C1512107   5.046   2.700  11.267 -0.5250 -0.3048 -0.2132
  116OSM   H15A12108   4.962   2.650  11.312  0.7086 -1.5506  0.8226
  116OSM   H15B12109   5.083   2.766  11.344 -1.0071  0.3939 -0.5761
  116OSM   H15C12110   5.122   2.625  11.247 -1.3266 -0.9980 -0.6914
  116OSM    C1412111   5.152   2.823  11.086 -0.1103  1.4050 -0.1836
  116OSM   H14A12112   5.140   2.875  10.992 -0.9175 -0.2319 -1.0471
  116OSM   H14B12113   5.223   2.742  11.075 -0.6893  0.2498  3.3664
  116OSM   H14C12114   5.208   2.888  11.150  1.0830  3.1067 -2.7894
  116OSM    C1312115   4.970   2.663  11.040 -0.3081  1.0906  0.6166
  116OSM   H13A12116   4.907   2.596  11.096  0.4228  0.5373  0.8031
  116OSM   H13B12117   5.038   2.592  10.995 -1.9862 -1.0320  1.2721
  116OSM   H13C12118   4.911   2.700  10.957  0.7083 -1.4543 -1.4091
  116OSM    C1212119   4.915   2.871  11.156 -0.4077  0.5726  0.4202
  116OSM   H12A12120   4.823   2.831  11.195 -1.0813  1.5919 -0.0733
  116OSM   H12B12121   4.874   2.903  11.062  0.7469 -0.0327 -0.3220
  116OSM    C1112122   4.958   2.994  11.243 -0.1367  0.0281  0.9202
  116OSM   H11A12123   5.049   3.041  11.198  0.0840 -1.2167  0.0050
  116OSM   H11B12124   4.979   2.964  11.348 -0.9419  2.2368  1.7711
  116OSM      P12125   4.867   3.237  11.203 -0.0763  0.1492 -0.1261
  116OSM    O1312126   4.730   3.292  11.192 -0.5176 -0.7883  0.0687
  116OSM    O1412127   4.961   3.302  11.293  0.4870  0.3685 -0.1798
  116OSM    O1112128   4.932   3.232  11.055  0.2698 -0.6336  0.3257
  116OSM    O1212129   4.852   3.084  11.240  0.6995 -1.0588 -0.1485
  116OSM    C1S12130   4.864   3.163  10.950 -0.3520 -0.2430 -0.0848
  116OSM    H1S12131   4.761   3.206  10.955  0.2846  1.2334  1.0704
  116OSM    H1T12132   4.844   3.056  10.969 -3.3187  0.1745 -0.3597
  116OSM     NF12133   4.861   3.143  10.705 -0.2033 -0.5561 -0.0179
  116OSM    HNF12134   4.885   3.056  10.662  1.6691 -1.2303  2.2274
  116OSM    C2S12135   4.945   3.180  10.820  0.2665  1.0705  0.0046
  116OSM    H2S12136   4.967   3.288  10.805 -0.3902  0.8736 -3.0075
  116OSM    C3S12137   5.079   3.106  10.825  0.6990  0.3969 -0.6699
  116OSM    H3S12138   5.064   2.997  10.844 -2.0379  0.5151 -1.6725
  116OSM     O312139   5.159   3.143  10.943  0.0090 -0.2990 -0.4971
  116OSM    HO312140   5.090   3.174  11.002  0.5071  0.8390 -0.4922
  116OSM    C4S12141   5.148   3.124  10.694 -0.5204 -0.2641  0.5719
  116OSM    H4S12142   5.113   3.057  10.614 -2.4210  0.4920  0.7049
  116OSM    C5S12143   5.246   3.209  10.665 -0.6730 -0.0892 -0.2916
  116OSM    H5S12144   5.282   3.273  10.747 -1.7874  2.7665 -1.8513
  116OSM    C6S12145   5.317   3.225  10.531  0.0015  0.7380 -0.0412
  116OSM    H6S12146   5.416   3.176  10.533 -0.3669 -0.0198  0.2886
  116OSM    H6T12147   5.340   3.332  10.511  0.2560  0.9512  1.3168
  116OSM    C7S12148   5.248   3.165  10.416 -0.1803  0.1368 -0.1003
  116OSM    H7S12149   5.144   3.204  10.414  0.2022  1.2905  1.0475
  116OSM    H7T12150   5.244   3.054  10.426  0.0521 -0.0170 -1.4585
  116OSM    C8S12151   5.321   3.208  10.284 -0.7252  0.0668  0.1034
  116OSM    H8S12152   5.428   3.178  10.283 -0.3701  1.2196 -1.8509
  116OSM    H8T12153   5.313   3.317  10.269 -2.3726 -0.1675 -0.9770
  116OSM    C9S12154   5.253   3.145  10.159 -0.5832  0.4466 -0.1904
  116OSM    H9S12155   5.142   3.141  10.171 -0.3614 -0.3917  2.1785
  116OSM    H9T12156   5.281   3.038  10.169 -2.6675 -0.1893 -0.7521
  116OSM   C10S12157   5.287   3.221  10.040 -0.6294  0.1893 -0.1481
  116OSM   H10S12158   5.397   3.234  10.031 -0.5276 -1.3708 -1.8547
  116OSM   H10T12159   5.253   3.326  10.033 -0.0063  0.5849  1.8554
  116OSM   C11S12160   5.253   3.159   9.910 -0.3150 -0.1718 -0.3538
  116OSM   H11S12161   5.149   3.119   9.900  0.1288 -2.0176  1.7182
  116OSM   H11T12162   5.322   3.072   9.914  2.2973  1.6746 -2.2506
  116OSM   C12S12163   5.292   3.254   9.785 -0.3775 -0.8356 -0.0724
  116OSM   H12S12164   5.394   3.297   9.794 -0.0339 -1.1566 -1.9444
  116OSM   H12T12165   5.216   3.334   9.777  0.2522 -0.2621 -0.3873
  116OSM   C13S12166   5.306   3.167   9.658 -0.1103 -0.4974 -1.1516
  116OSM   H13S12167   5.204   3.132   9.632  0.2579 -1.2148 -1.6826
  116OSM   H13T12168   5.375   3.081   9.671 -1.3756 -1.6053 -1.5816
  116OSM   C14S12169   5.353   3.238   9.537  0.3504 -0.1099 -0.5124
  116OSM   H14S12170   5.463   3.251   9.546  0.6075 -1.7529 -1.0430
  116OSM   H14T12171   5.313   3.341   9.549  1.0141  0.0918  0.0624
  116OSM   C15S12172   5.313   3.167   9.407  0.2842 -0.6793  0.4739
  116OSM   H15S12173   5.203   3.175   9.392  0.6085  0.5120 -1.6663
  116OSM   H15T12174   5.349   3.062   9.406 -0.8021 -1.0711  0.7100
  116OSM   C16S12175   5.376   3.244   9.290  0.0427  0.6337  0.7245
  116OSM   H16S12176   5.486   3.239   9.309  0.4401 -0.0080 -1.5128
  116OSM   H16T12177   5.348   3.351   9.300  0.3242  0.5597  2.8680
  116OSM   C17S12178   5.346   3.176   9.150 -0.2466  0.2669 -0.7372
  116OSM   H17S12179   5.379   3.250   9.074  0.7367 -0.6077 -1.1946
  116OSM   H17T12180   5.238   3.151   9.144 -0.0815 -0.9697  0.8245
  116OSM   C18S12181   5.436   3.059   9.140  0.1576 -0.1044  0.3303
  116OSM   H18S12182   5.536   3.088   9.102  0.3985  0.2262  1.1913
  116OSM   H18T12183   5.389   2.988   9.069 -1.9731  0.3167  1.2481
  116OSM   H18U12184   5.444   2.993   9.229  2.1689  1.4088  1.3326
  116OSM    C1F12185   4.749   3.210  10.679 -0.1372  0.2977  0.6583
  116OSM     OF12186   4.737   3.321  10.725  0.4451 -0.1040 -0.4754
  116OSM    C2F12187   4.648   3.150  10.590 -0.1613  0.8618  0.3487
  116OSM    H2F12188   4.585   3.231  10.549 -0.6266 -1.1390 -3.3170
  116OSM    H2G12189   4.580   3.084  10.649  0.3869 -0.3557 -0.3446
  116OSM    C3F12190   4.713   3.075  10.466  0.6234 -0.3772 -0.4649
  116OSM    H3F12191   4.632   3.024  10.409  0.9721 -1.5070  0.0203
  116OSM    H3G12192   4.795   3.008  10.501 -0.3884 -0.4806  1.8640
  116OSM    C4F12193   4.772   3.183  10.372  0.3361 -0.4030 -0.2784
  116OSM    H4F12194   4.847   3.241  10.430 -1.5155 -0.5733  2.4976
  116OSM    H4G12195   4.689   3.248  10.336 -1.2727 -2.7459 -1.0296
  116OSM    C5F12196   4.828   3.116  10.245  0.7662 -0.9042 -0.0479
  116OSM    H5F12197   4.791   3.012  10.233 -0.4557 -0.4101 -0.6822
  116OSM    H5G12198   4.936   3.096  10.264  0.2432 -1.6573  2.5965
  116OSM    C6F12199   4.789   3.174  10.107 -0.2331 -0.8868  0.0283
  116OSM    H6F12200   4.845   3.270  10.109  0.0205 -1.0221  2.6855
  116OSM    H6G12201   4.683   3.204  10.109 -0.1260 -0.3858 -1.0498
  116OSM    C7F12202   4.827   3.078   9.991  0.2574 -0.2824 -0.0660
  116OSM    H7F12203   4.762   2.989  10.002 -0.6930  0.4221  0.1102
  116OSM    H7G12204   4.932   3.042   9.995  0.6672  0.8413 -0.3403
  116OSM    C8F12205   4.793   3.139   9.846 -0.6884 -0.1655 -0.6693
  116OSM    H8F12206   4.841   3.239   9.848 -0.9449 -0.0436 -0.5297
  116OSM    H8G12207   4.685   3.163   9.846 -1.1778 -2.1767 -1.0436
  116OSM    C9F12208   4.843   3.044   9.742  0.6920 -0.2217  0.1733
  116OSM    H9F12209   4.865   2.942   9.776  1.2485 -0.1549  0.0320
  116OSM   C10F12210   4.861   3.072   9.614  0.0220  0.1496  0.0638
  116OSM   H10F12211   4.901   2.993   9.549  0.1003  0.6730 -0.5378
  116OSM   C11F12212   4.834   3.203   9.546 -0.0105  0.1183 -0.7370
  116OSM   H11F12213   4.931   3.251   9.520 -1.0926  1.2304 -2.9566
  116OSM   H11G12214   4.781   3.281   9.605 -0.4325 -0.1917 -0.7035
  116OSM   C12F12215   4.751   3.196   9.409  0.4961  0.1798 -0.2910
  116OSM   H12F12216   4.744   3.302   9.378 -3.0788 -0.0810 -0.7703
  116OSM   H12G12217   4.646   3.164   9.425  0.8589 -2.1838 -2.0380
  116OSM   C13F12218   4.808   3.100   9.301  0.2765  0.3074  0.1239
  116OSM   H13F12219   4.798   2.993   9.331 -1.5981  0.4592  0.1409
  116OSM   H13G12220   4.918   3.118   9.295  0.2936 -0.1783 -1.4684
  116OSM   C14F12221   4.742   3.121   9.162 -0.3471 -0.4115 -0.0551
  116OSM   H14F12222   4.632   3.113   9.180 -0.5544  1.5379 -0.2914
  116OSM   H14G12223   4.756   3.031   9.097 -1.7006 -1.5120  1.1159
  116OSM   C15F12224   4.771   3.245   9.080 -0.8241  0.1593 -0.3654
  116OSM   H15F12225   4.757   3.337   9.142 -0.9870 -0.2798  0.2583
  116OSM   H15G12226   4.701   3.251   8.993 -1.0061  2.4647 -0.1232
  116OSM   C16F12227   4.916   3.263   9.015  0.4222  0.2108  0.1521
  116OSM   H16F12228   4.924   3.163   8.969 -1.1843 -1.1252  2.5804
  116OSM   H16G12229   4.994   3.278   9.093  0.6099 -1.8922  0.4289
  116OSM   C17F12230   4.923   3.376   8.911  0.4683 -0.3276 -0.2790
  116OSM   H17F12231   4.906   3.469   8.969  0.5588 -0.2584 -0.3627
  116OSM   H17G12232   4.852   3.365   8.828  0.3392  2.4099 -0.6327
  116OSM   C18F12233   5.060   3.389   8.862 -0.2396 -0.1117 -0.0925
  116OSM   H18F12234   5.085   3.308   8.790  0.3497  0.6405 -0.7512
  116OSM   H18G12235   5.129   3.383   8.949  0.4983 -0.8790 -0.7141
  116OSM   H18H12236   5.068   3.486   8.808 -0.7297 -0.8190 -1.4923
  117OSM      N12237   2.821   0.576  11.211 -0.8375 -0.3010 -0.0108
  117OSM    C1512238   2.696   0.524  11.279  0.3120  0.3670 -0.3854
  117OSM   H15A12239   2.715   0.443  11.347 -1.6902  0.1544 -0.0216
  117OSM   H15B12240   2.624   0.483  11.211 -0.7067 -0.0270  0.8782
  117OSM   H15C12241   2.650   0.609  11.327 -1.1979 -0.3066 -0.5985
  117OSM    C1412242   2.787   0.681  11.117  0.1884 -0.0864  0.4299
  117OSM   H14A12243   2.733   0.640  11.033  0.1179 -0.5755  0.7111
  117OSM   H14B12244   2.865   0.744  11.076  0.1308 -0.8824 -0.9876
  117OSM   H14C12245   2.716   0.750  11.160 -1.8250 -1.8133  0.0281
  117OSM    C1312246   2.913   0.624  11.320 -0.1880  0.4415 -0.2681
  117OSM   H13A12247   2.919   0.556  11.404  2.2739  1.3627  0.3783
  117OSM   H13B12248   2.899   0.720  11.368  0.6214  0.9771 -1.0647
  117OSM   H13C12249   3.016   0.634  11.289  0.2528  0.6696  1.1914
  117OSM    C1212250   2.892   0.471  11.132  0.8352 -0.1718  0.0971
  117OSM   H12A12251   2.987   0.499  11.088  0.7342 -2.4363 -1.7607
  117OSM   H12B12252   2.830   0.453  11.046 -3.4603  2.2915  2.2900
  117OSM    C1112253   2.942   0.344  11.202  0.4622  0.3600  0.4276
  117OSM   H11A12254   3.015   0.378  11.279  0.2835  0.6605  0.4683
  117OSM   H11B12255   2.997   0.290  11.122  0.1760 -0.8170  1.0163
  117OSM      P12256   2.749   0.178  11.175 -0.0725  0.0479 -0.2014
  117OSM    O1312257   2.820   0.044  11.166  0.0928  0.6135  0.0163
  117OSM    O1412258   2.614   0.183  11.231 -0.3503  0.3004  0.3691
  117OSM    O1112259   2.743   0.239  11.031 -0.2388  0.1228 -0.7850
  117OSM    O1212260   2.843   0.268  11.266  0.0925  0.7215 -0.4229
  117OSM    C1S12261   2.795   0.176  10.923 -0.4576  0.7335  0.0898
  117OSM    H1S12262   2.777   0.067  10.922  1.8693  0.2845  0.0823
  117OSM    H1T12263   2.906   0.163  10.924 -0.5443  0.0256  1.1394
  117OSM     NF12264   2.816   0.162  10.682 -0.4220  0.1346 -0.0952
  117OSM    HNF12265   2.876   0.213  10.621  0.7019  0.6025  1.3241
  117OSM    C2S12266   2.750   0.240  10.787 -0.1330  0.0008  0.5658
  117OSM    H2S12267   2.639   0.243  10.783 -0.2315  0.4782  2.6461
  117OSM    C3S12268   2.793   0.391  10.785 -0.6835  0.4537  0.0373
  117OSM    H3S12269   2.901   0.385  10.811 -0.6834  2.1854  0.5679
  117OSM     O312270   2.720   0.470  10.885  0.2755  0.3017 -0.2217
  117OSM    HO312271   2.684   0.407  10.948 -0.9523  2.1455  1.0098
  117OSM    C4S12272   2.780   0.459  10.649 -0.4814  0.1521 -0.1366
  117OSM    H4S12273   2.676   0.485  10.628 -0.3853 -0.6623 -1.7852
  117OSM    C5S12274   2.880   0.476  10.554 -0.4188  0.6085  0.5336
  117OSM    H5S12275   2.980   0.436  10.577 -0.3211  0.3233 -0.3432
  117OSM    C6S12276   2.857   0.537  10.419 -0.5530 -0.0550  0.2470
  117OSM    H6S12277   2.917   0.628  10.395  3.1708 -2.8625 -2.2210
  117OSM    H6T12278   2.751   0.569  10.411 -0.4254  0.0687 -1.3969
  117OSM    C7S12279   2.899   0.452  10.295  0.1943 -0.0495  0.1387
  117OSM    H7S12280   2.859   0.352  10.322 -0.7510  0.2651 -0.0500
  117OSM    H7T12281   3.009   0.443  10.281 -0.0846  0.2314 -2.9826
  117OSM    C8S12282   2.837   0.496  10.165  0.2849 -0.2500 -0.0292
  117OSM    H8S12283   2.901   0.580  10.131  2.9895 -2.8757 -1.9316
  117OSM    H8T12284   2.731   0.522  10.183 -0.3409 -2.1023 -0.7536
  117OSM    C9S12285   2.823   0.384  10.064  0.2675 -0.3296  0.5320
  117OSM    H9S12286   2.766   0.293  10.092 -0.7299  0.0297 -0.2773
  117OSM    H9T12287   2.925   0.342  10.059 -0.0117 -1.1800  1.5598
  117OSM   C10S12288   2.785   0.425   9.922 -0.0599 -0.4744  0.3229
  117OSM   H10S12289   2.857   0.506   9.899  1.3058 -0.7278  3.3118
  117OSM   H10T12290   2.688   0.478   9.934 -0.5133 -1.7590  2.9601
  117OSM   C11S12291   2.800   0.317   9.825 -0.0702  0.7133 -0.2310
  117OSM   H11S12292   2.742   0.228   9.857  1.3676  0.2631  1.2423
  117OSM   H11T12293   2.904   0.282   9.805  0.5543  2.0104  0.6043
  117OSM   C12S12294   2.731   0.360   9.693  0.0503  0.0020  0.0881
  117OSM   H12S12295   2.783   0.444   9.641  2.0742 -1.1241  0.1727
  117OSM   H12T12296   2.625   0.388   9.708  0.1338  0.1941  0.3275
  117OSM   C13S12297   2.734   0.242   9.598 -0.7166  0.0662 -0.3869
  117OSM   H13S12298   2.636   0.189   9.606 -1.9760  2.3929  0.5857
  117OSM   H13T12299   2.821   0.176   9.618  0.3654  0.5833 -2.9615
  117OSM   C14S12300   2.755   0.277   9.452 -0.1062  0.3765 -0.0884
  117OSM   H14S12301   2.851   0.324   9.424 -0.5670  1.3767 -0.0105
  117OSM   H14T12302   2.677   0.354   9.436  0.7433  1.8099  2.3005
  117OSM   C15S12303   2.737   0.161   9.352  0.5921 -0.7069 -0.5002
  117OSM   H15S12304   2.801   0.195   9.268 -0.3750  0.5533 -0.7578
  117OSM   H15T12305   2.633   0.165   9.313  0.0228  0.6933  1.0160
  117OSM   C16S12306   2.769   0.021   9.403 -0.4929 -0.4757 -0.4245
  117OSM   H16S12307   2.694  -0.002   9.481 -0.0083  0.0876  0.2224
  117OSM   H16T12308   2.870   0.018   9.450  0.6161 -2.5200 -2.7504
  117OSM   C17S12309   2.770  -0.073   9.289  0.2573 -0.2492  0.4996
  117OSM   H17S12310   2.824  -0.167   9.314  0.8772  0.2099  0.9412
  117OSM   H17T12311   2.831  -0.027   9.209  1.5990 -1.7264  0.6127
  117OSM   C18S12312   2.634  -0.113   9.233 -0.1735 -0.7045 -0.4418
  117OSM   H18S12313   2.583  -0.030   9.181 -0.8693 -2.4103 -2.6225
  117OSM   H18T12314   2.570  -0.147   9.318 -0.3339  0.4850 -0.0626
  117OSM   H18U12315   2.645  -0.182   9.147  3.9293 -0.2237 -0.5216
  117OSM    C1F12316   2.779   0.040  10.650  0.5789  0.3525  0.9910
  117OSM     OF12317   2.675  -0.015  10.691 -0.3732 -0.3070 -0.0155
  117OSM    C2F12318   2.862  -0.019  10.542  0.3008  0.4036 -0.0018
  117OSM    H2F12319   2.806  -0.108  10.505  0.5753 -0.2905  1.2005
  117OSM    H2G12320   2.955  -0.061  10.586  0.0739 -1.0767 -0.8450
  117OSM    C3F12321   2.887   0.078  10.425 -0.1295 -0.1325 -0.2436
  117OSM    H3F12322   2.949   0.167  10.446 -0.4618  0.1044 -0.2546
  117OSM    H3G12323   2.783   0.110  10.400 -0.8074  0.6206  3.0656
  117OSM    C4F12324   2.946  -0.004  10.308  0.0953 -0.1595  0.4755
  117OSM    H4F12325   2.951  -0.108  10.348 -0.6981 -0.2063  0.4696
  117OSM    H4G12326   3.044   0.043  10.285  0.5076 -1.6588 -1.0670
  117OSM    C5F12327   2.859  -0.009  10.177 -0.0989  0.1667  0.1879
  117OSM    H5F12328   2.858   0.093  10.133  0.1461 -0.1323 -0.5332
  117OSM    H5G12329   2.757  -0.040  10.207  0.6813  0.3201  3.3958
  117OSM    C6F12330   2.929  -0.095  10.064  0.3447 -0.0847 -0.3450
  117OSM    H6F12331   2.932  -0.203  10.093 -1.3937  0.8744  4.1397
  117OSM    H6G12332   3.035  -0.062  10.065  0.4918 -0.5370 -0.4536
  117OSM    C7F12333   2.880  -0.076   9.916  0.9216 -0.0806 -0.1390
  117OSM    H7F12334   2.856   0.030   9.896  3.5522  0.5688 -0.1741
  117OSM    H7G12335   2.791  -0.143   9.905 -0.6626  1.6966  1.1174
  117OSM    C8F12336   2.995  -0.117   9.819  0.0587  0.6375  0.2876
  117OSM    H8F12337   3.078  -0.052   9.854  0.3067 -0.4819  1.8679
  117OSM    H8G12338   2.972  -0.089   9.714 -0.7977  3.9459  1.2137
  117OSM    C9F12339   3.030  -0.267   9.828 -0.2075  0.1150 -0.1348
  117OSM    H9F12340   3.062  -0.292   9.931 -0.5715  3.5092  0.9086
  117OSM   C10F12341   3.020  -0.359   9.730  0.5990 -0.3076  0.3856
  117OSM   H10F12342   3.060  -0.458   9.756  2.8070  0.5724  0.5162
  117OSM   C11F12343   2.981  -0.328   9.586 -0.3446  0.3124  0.1451
  117OSM   H11F12344   2.902  -0.250   9.583 -0.9654 -0.2554  1.0821
  117OSM   H11G12345   2.922  -0.418   9.559 -2.3476  1.4518  0.4724
  117OSM   C12F12346   3.090  -0.308   9.489 -0.1437 -0.3038  0.0420
  117OSM   H12F12347   3.152  -0.220   9.517  2.2306 -1.8183 -0.1187
  117OSM   H12G12348   3.042  -0.290   9.390 -1.1585 -1.1001  0.3727
  117OSM   C13F12349   3.182  -0.428   9.483 -0.1289 -0.1156  0.1029
  117OSM   H13F12350   3.129  -0.513   9.434 -0.3690  0.4312 -0.6000
  117OSM   H13G12351   3.197  -0.458   9.589 -1.2246  1.1776  0.6591
  117OSM   C14F12352   3.315  -0.401   9.416  0.2419 -0.0664 -0.0656
  117OSM   H14F12353   3.390  -0.482   9.422  0.5710  0.2384 -0.0153
  117OSM   H14G12354   3.354  -0.318   9.479  0.1593 -0.0825  0.0060
  117OSM   C15F12355   3.296  -0.343   9.269  0.7494  1.0077  0.1902
  117OSM   H15F12356   3.214  -0.268   9.264  0.2963  0.5827  1.0246
  117OSM   H15G12357   3.261  -0.429   9.209  2.2971  0.4626  0.0287
  117OSM   C16F12358   3.428  -0.289   9.205 -0.1872  0.0031 -0.2623
  117OSM   H16F12359   3.506  -0.365   9.225 -0.0785  0.1865  0.0176
  117OSM   H16G12360   3.468  -0.199   9.256 -0.6806  0.1763 -0.1764
  117OSM   C17F12361   3.430  -0.256   9.062  0.0825  0.2269 -0.3173
  117OSM   H17F12362   3.345  -0.188   9.039 -2.0761 -1.6078  1.6402
  117OSM   H17G12363   3.422  -0.349   9.002 -0.2015 -1.3564  2.0317
  117OSM   C18F12364   3.564  -0.191   9.018 -0.5192  0.1301  0.6248
  117OSM   H18F12365   3.596  -0.123   9.100 -0.4053  0.2749  0.4588
  117OSM   H18G12366   3.561  -0.160   8.912  1.0840 -1.6388  0.0015
  117OSM   H18H12367   3.647  -0.264   9.017  0.6117  1.3969 -0.1492
  118OSM      N12368   1.691   0.789  11.488  0.1037  0.0646 -0.4175
  118OSM    C1512369   1.739   0.774  11.628  0.4745  0.0149 -0.3667
  118OSM   H15A12370   1.669   0.747  11.705 -0.3607  1.1873 -0.6877
  118OSM   H15B12371   1.785   0.859  11.677  1.4107 -1.6224  1.7708
  118OSM   H15C12372   1.800   0.686  11.642 -1.1215 -1.0681  0.1003
  118OSM    C1412373   1.601   0.667  11.461 -0.2533  0.7110 -0.7814
  118OSM   H14A12374   1.553   0.666  11.364 -0.2202  3.4223 -0.8920
  118OSM   H14B12375   1.519   0.664  11.532  0.3109 -1.4751 -0.1370
  118OSM   H14C12376   1.656   0.576  11.481  0.2377  0.7795 -1.7937
  118OSM    C1312377   1.597   0.906  11.480  0.0040  0.2993 -0.4311
  118OSM   H13A12378   1.645   0.995  11.518 -1.7119  1.0084  0.1387
  118OSM   H13B12379   1.517   0.886  11.549 -0.9138  1.3290 -1.1663
  118OSM   H13C12380   1.553   0.919  11.383 -0.7100  0.6782 -0.0644
  118OSM    C1212381   1.800   0.801  11.385 -0.5069  0.1251 -0.4781
  118OSM   H12A12382   1.870   0.719  11.394 -0.2794  0.2491 -1.0656
  118OSM   H12B12383   1.866   0.885  11.398  1.0084 -0.9457 -0.9197
  118OSM    C1112384   1.778   0.810  11.239 -0.3646 -0.8858  0.4992
  118OSM   H11A12385   1.863   0.853  11.182 -1.7732  0.8244 -0.4231
  118OSM   H11B12386   1.697   0.884  11.218  0.3216 -0.2104  0.1852
  118OSM      P12387   1.624   0.660  11.085 -0.0829  0.0153  0.1578
  118OSM    O1312388   1.631   0.523  11.022 -0.8912 -0.7159 -0.1677
  118OSM    O1412389   1.498   0.686  11.156  0.0608 -0.1718  0.3042
  118OSM    O1112390   1.653   0.772  10.975  0.4071  0.2299 -0.0997
  118OSM    O1212391   1.749   0.677  11.188  0.0899  0.5327  0.2140
  118OSM    C1S12392   1.778   0.777  10.903 -0.8742  1.0967 -0.0110
  118OSM    H1S12393   1.841   0.686  10.911 -1.1089  1.0196  1.0762
  118OSM    H1T12394   1.838   0.866  10.931  1.4731  0.2439 -1.9917
  118OSM     NF12395   1.885   0.788  10.676  0.0559  0.1210 -0.3101
  118OSM    HNF12396   1.929   0.873  10.648  2.2827 -0.4721  1.1750
  118OSM    C2S12397   1.756   0.794  10.746 -0.1979 -1.1928  0.3208
  118OSM    H2S12398   1.697   0.707  10.710  0.9076 -1.6783 -0.3696
  118OSM    C3S12399   1.675   0.928  10.719 -0.2117  0.5881 -0.5340
  118OSM    H3S12400   1.737   1.012  10.756  0.3500 -1.1000  2.6899
  118OSM     O312401   1.556   0.946  10.787 -0.3436  0.5605 -0.0334
  118OSM    HO312402   1.544   0.861  10.830 -0.2592  0.5907  0.0504
  118OSM    C4S12403   1.638   0.944  10.571 -0.2616  0.6506  0.2720
  118OSM    H4S12404   1.705   1.005  10.508 -1.0512  1.5387  0.2694
  118OSM    C5S12405   1.543   0.872  10.505 -0.4989  0.0422  0.8227
  118OSM    H5S12406   1.481   0.792  10.548 -0.7754 -0.9853 -1.3784
  118OSM    C6S12407   1.518   0.896  10.359 -0.1545  0.0372 -0.0784
  118OSM    H6S12408   1.409   0.914  10.349 -0.3212 -0.4008  0.8552
  118OSM    H6T12409   1.535   0.797  10.311 -1.0492  0.1278 -0.6007
  118OSM    C7S12410   1.597   1.009  10.287  0.2568 -0.3341 -0.2554
  118OSM    H7S12411   1.705   0.988  10.300  0.3687  1.0437  1.2695
  118OSM    H7T12412   1.582   1.106  10.338  1.9623 -0.0899 -0.1585
  118OSM    C8S12413   1.576   1.009  10.133 -0.5341  0.7493 -0.5529
  118OSM    H8S12414   1.519   0.921  10.095 -1.3313  1.9014 -2.1532
  118OSM    H8T12415   1.673   1.013  10.080 -0.1051  0.6933  0.2162
  118OSM    C9S12416   1.498   1.129  10.089  0.4027 -0.9057  0.5497
  118OSM    H9S12417   1.566   1.214  10.111  0.5525 -0.8345 -0.1654
  118OSM    H9T12418   1.404   1.138  10.146 -0.5346  0.8602 -1.1563
  118OSM   C10S12419   1.472   1.120   9.935  0.2152  1.0473  0.2008
  118OSM   H10S12420   1.412   1.204   9.895  1.2580  1.0222 -1.5039
  118OSM   H10T12421   1.402   1.034   9.922  0.5770  0.4542  1.8757
  118OSM   C11S12422   1.592   1.090   9.848  0.0870  0.1435 -0.2701
  118OSM   H11S12423   1.636   0.993   9.882  1.3896 -0.3782 -3.1469
  118OSM   H11T12424   1.670   1.167   9.861 -2.1856  2.4628  0.3816
  118OSM   C12S12425   1.552   1.077   9.697 -0.2017  0.3663  0.5450
  118OSM   H12S12426   1.606   1.162   9.649  1.3280 -0.7149  0.2896
  118OSM   H12T12427   1.445   1.094   9.675 -0.0641  0.0820 -0.4081
  118OSM   C13S12428   1.593   0.941   9.642 -0.5604 -0.2092  0.3506
  118OSM   H13S12429   1.523   0.866   9.685  1.1055 -1.2725  1.3514
  118OSM   H13T12430   1.693   0.906   9.676 -0.2098  0.3671 -0.0725
  118OSM   C14S12431   1.587   0.935   9.491 -0.2968 -0.3383 -0.2009
  118OSM   H14S12432   1.615   1.033   9.447 -0.3075 -0.5204 -0.6183
  118OSM   H14T12433   1.479   0.926   9.464 -0.2631  0.1638 -0.5222
  118OSM   C15S12434   1.665   0.824   9.433  0.4680 -0.2478 -0.1245
  118OSM   H15S12435   1.659   0.717   9.464  1.2245 -0.5480 -0.9865
  118OSM   H15T12436   1.774   0.838   9.450  0.7426 -0.7952 -1.3348
  118OSM   C16S12437   1.640   0.828   9.285  0.1384 -0.4172 -0.2343
  118OSM   H16S12438   1.659   0.928   9.242 -1.5960  0.1781  0.3334
  118OSM   H16T12439   1.534   0.803   9.266 -1.0136  3.8587 -0.2113
  118OSM   C17S12440   1.739   0.729   9.213 -0.3690 -0.4445 -0.5656
  118OSM   H17S12441   1.721   0.630   9.261 -1.4546  1.1352  2.5526
  118OSM   H17T12442   1.847   0.753   9.227 -0.6574  1.1874 -0.9784
  118OSM   C18S12443   1.712   0.712   9.062 -0.3650  0.5731 -0.3110
  118OSM   H18S12444   1.643   0.794   9.031 -1.5661 -0.3408 -0.1519
  118OSM   H18T12445   1.661   0.614   9.047  2.7784 -1.6917  2.3845
  118OSM   H18U12446   1.800   0.705   8.995 -1.1556 -1.4651 -1.2289
  118OSM    C1F12447   1.955   0.677  10.664 -0.2602 -0.2384 -0.1918
  118OSM     OF12448   1.919   0.578  10.718  0.0119 -0.3412  0.1932
  118OSM    C2F12449   2.085   0.685  10.595 -0.4671  0.5537 -0.4941
  118OSM    H2F12450   2.173   0.646  10.652 -1.8283 -3.0073 -0.6268
  118OSM    H2G12451   2.106   0.794  10.589 -2.1509  1.0142  1.0684
  118OSM    C3F12452   2.062   0.627  10.453  0.1248  0.6641 -0.0303
  118OSM    H3F12453   2.039   0.520  10.475 -0.5644  0.9193  0.5389
  118OSM    H3G12454   2.155   0.624  10.392  0.9584 -0.8400  1.2254
  118OSM    C4F12455   1.950   0.672  10.367  0.3454  0.0260  0.7119
  118OSM    H4F12456   1.971   0.773  10.326 -2.9520  0.3423 -0.5001
  118OSM    H4G12457   1.853   0.676  10.422 -0.1149  0.3226 -0.1072
  118OSM    C5F12458   1.930   0.586  10.244 -0.1448 -0.3834  0.0836
  118OSM    H5F12459   1.878   0.495  10.281 -0.4995  0.6727  2.3793
  118OSM    H5G12460   2.026   0.557  10.197 -0.6444 -1.6966 -0.1481
  118OSM    C6F12461   1.838   0.657  10.147 -0.3090  0.0097 -0.3498
  118OSM    H6F12462   1.867   0.760  10.115 -1.4302  0.2171 -0.7391
  118OSM    H6G12463   1.738   0.666  10.194  1.4320  0.8264  3.5443
  118OSM    C7F12464   1.821   0.577  10.022  0.5298  0.6842  0.1316
  118OSM    H7F12465   1.763   0.482  10.016 -1.6632  2.0062 -0.9771
  118OSM    H7G12466   1.924   0.543   9.999 -0.5007 -1.5586 -1.5789
  118OSM    C8F12467   1.745   0.657   9.914  0.3153  0.6884 -0.5490
  118OSM    H8F12468   1.770   0.606   9.819  1.7528  1.2761 -0.5209
  118OSM    H8G12469   1.777   0.763   9.904 -0.0813  0.9317  0.5572
  118OSM    C9F12470   1.595   0.670   9.932 -0.1599  0.4018  0.9952
  118OSM    H9F12471   1.562   0.735  10.015 -0.5300 -0.2740  1.3839
  118OSM   C10F12472   1.500   0.601   9.868  0.1539  1.0155 -0.1618
  118OSM   H10F12473   1.395   0.629   9.888  0.1206  0.1747  0.9567
  118OSM   C11F12474   1.511   0.492   9.762 -0.4411  0.1911  0.3581
  118OSM   H11F12475   1.465   0.396   9.791  3.1316 -1.9151 -0.3492
  118OSM   H11G12476   1.621   0.479   9.750 -0.5970 -1.5713  0.5861
  118OSM   C12F12477   1.441   0.532   9.621  0.4842  0.2389  0.4176
  118OSM   H12F12478   1.496   0.626   9.594  1.5421 -1.3627 -3.8878
  118OSM   H12G12479   1.333   0.546   9.639  0.4412  1.2191 -0.5076
  118OSM   C13F12480   1.455   0.427   9.516  0.2739 -0.4664 -0.1112
  118OSM   H13F12481   1.384   0.342   9.528  0.7738 -0.6080  2.6418
  118OSM   H13G12482   1.555   0.382   9.532  0.7393  0.7743  0.5875
  118OSM   C14F12483   1.426   0.474   9.374  0.7080 -0.1673  0.2996
  118OSM   H14F12484   1.460   0.579   9.360  0.4484  0.2713  2.5233
  118OSM   H14G12485   1.316   0.484   9.355  0.9266  0.5958 -0.6852
  118OSM   C15F12486   1.465   0.368   9.277 -0.2191  0.5332 -0.1474
  118OSM   H15F12487   1.423   0.387   9.176  1.4257 -2.0468 -1.4261
  118OSM   H15G12488   1.421   0.272   9.312  0.5131 -0.7000 -2.4225
  118OSM   C16F12489   1.613   0.356   9.252  0.3013 -0.1009 -0.2988
  118OSM   H16F12490   1.663   0.304   9.337 -0.3781 -1.7638 -0.8753
  118OSM   H16G12491   1.666   0.450   9.229 -0.2251  0.7744  1.8395
  118OSM   C17F12492   1.637   0.267   9.127 -0.6514  0.3879 -0.2129
  118OSM   H17F12493   1.571   0.301   9.045 -0.3507 -0.6754 -0.9144
  118OSM   H17G12494   1.605   0.163   9.145 -1.2326  0.3717 -1.2991
  118OSM   C18F12495   1.776   0.269   9.078  0.4397 -0.3113  0.0622
  118OSM   H18F12496   1.849   0.223   9.147 -1.0382  2.2058  3.6032
  118OSM   H18G12497   1.798   0.377   9.062 -1.1205 -0.0851 -0.7176
  118OSM   H18H12498   1.783   0.217   8.980 -0.3485  0.4960 -0.4423
  119OSM      N12499   3.702   5.259  10.923 -0.4357 -0.5093 -0.2040
  119OSM    C1512500   3.696   5.413  10.934  0.2195 -0.5537 -0.2734
  119OSM   H15A12501   3.744   5.450  11.024 -3.8961  1.2286  1.4565
  119OSM   H15B12502   3.592   5.443  10.931  0.7521  1.6740  1.1295
  119OSM   H15C12503   3.744   5.459  10.849  1.5545  0.4138  0.9603
  119OSM    C1412504   3.640   5.195  11.048 -0.4389 -0.4815 -0.1508
  119OSM   H14A12505   3.682   5.233  11.141 -0.4575 -1.5309  0.3006
  119OSM   H14B12506   3.666   5.091  11.051  1.0908 -0.1334 -0.4937
  119OSM   H14C12507   3.533   5.212  11.047 -0.3358  0.4762  1.2736
  119OSM    C1312508   3.624   5.211  10.806  0.0259 -0.0393 -1.2103
  119OSM   H13A12509   3.635   5.104  10.804 -3.7011 -0.7110  1.6205
  119OSM   H13B12510   3.668   5.244  10.713  1.4065  0.7351 -0.3267
  119OSM   H13C12511   3.518   5.233  10.814  0.1421  0.4285 -0.8559
  119OSM    C1212512   3.845   5.222  10.900 -0.1263 -0.0027 -0.0446
  119OSM   H12A12513   3.894   5.220  10.997  1.0833 -0.4415 -0.6435
  119OSM   H12B12514   3.885   5.297  10.834  0.9374 -0.8680 -0.4173
  119OSM    C1112515   3.880   5.082  10.844 -0.0819  0.7145 -0.3121
  119OSM   H11A12516   3.991   5.069  10.848  0.0674  1.1404 -2.2112
  119OSM   H11B12517   3.861   5.083  10.734  4.0602  1.5857 -1.1888
  119OSM      P12518   3.858   4.863  11.001 -0.1254 -0.0474  0.1682
  119OSM    O1312519   3.964   4.897  11.100 -0.1893 -0.5055 -0.4690
  119OSM    O1412520   3.742   4.784  11.045 -0.0172  0.0486 -0.2933
  119OSM    O1112521   3.922   4.782  10.881  0.4085  0.1483  0.1895
  119OSM    O1212522   3.806   4.980  10.910  0.4124 -0.3510  0.1711
  119OSM    C1S12523   3.837   4.723  10.774  0.5539 -0.1148 -0.3181
  119OSM    H1S12524   3.738   4.687  10.808  1.9308 -1.4179  2.6529
  119OSM    H1T12525   3.876   4.620  10.758  1.3519  0.1691 -0.2366
  119OSM     NF12526   3.735   4.726  10.543 -0.1715  0.3312 -0.1385
  119OSM    HNF12527   3.768   4.658  10.478 -2.6515 -0.0102 -1.1552
  119OSM    C2S12528   3.829   4.790  10.638 -0.3382  0.7861 -0.2151
  119OSM    H2S12529   3.786   4.892  10.646 -1.3030  0.6045 -2.3560
  119OSM    C3S12530   3.971   4.803  10.575 -0.4273 -0.2281  0.0101
  119OSM    H3S12531   4.001   4.702  10.539  1.3536  0.8443 -1.7580
  119OSM     O312532   4.071   4.836  10.670  0.0434 -0.1641  0.1812
  119OSM    HO312533   4.034   4.810  10.755 -1.3729  1.2437  0.0526
  119OSM    C4S12534   3.980   4.898  10.463 -0.6840  0.2447  0.7797
  119OSM    H4S12535   3.941   5.000  10.479 -1.0891  0.5016 -1.5841
  119OSM    C5S12536   4.015   4.862  10.335  0.3145 -1.0489 -0.0485
  119OSM    H5S12537   4.046   4.759  10.312  2.0992 -0.3066 -1.1920
  119OSM    C6S12538   4.012   4.968  10.228  0.1742  0.4024  0.3620
  119OSM    H6S12539   4.067   4.932  10.138 -0.8381 -1.0248  0.2864
  119OSM    H6T12540   4.066   5.061  10.257  2.0012  0.1687 -1.9404
  119OSM    C7S12541   3.865   4.997  10.170  0.4784  0.5489 -0.7776
  119OSM    H7S12542   3.803   5.044  10.249 -0.2528  0.3954 -1.2528
  119OSM    H7T12543   3.817   4.896  10.172 -0.6852  0.9642  3.6655
  119OSM    C8S12544   3.865   5.066  10.037 -0.4974 -0.3687 -0.1670
  119OSM    H8S12545   3.932   5.155  10.040  1.0077 -1.3688 -2.1226
  119OSM    H8T12546   3.767   5.111  10.011 -0.3802 -1.0024 -1.8391
  119OSM    C9S12547   3.904   4.985   9.913  0.6419  0.3938  0.6237
  119OSM    H9S12548   3.971   4.899   9.933  1.1420  1.1951  2.6448
  119OSM    H9T12549   3.962   5.049   9.842  0.6688 -1.3754 -1.0238
  119OSM   C10S12550   3.778   4.943   9.834  0.4384  0.3277  0.4163
  119OSM   H10S12551   3.722   5.035   9.807 -2.1894 -1.1083  0.6981
  119OSM   H10T12552   3.709   4.884   9.897  0.1986 -0.7344 -0.8151
  119OSM   C11S12553   3.815   4.862   9.710  0.1393 -0.1587  0.3111
  119OSM   H11S12554   3.876   4.772   9.734 -0.7590 -0.2611  2.4783
  119OSM   H11T12555   3.879   4.934   9.655  1.6786  0.5728  2.8961
  119OSM   C12S12556   3.693   4.830   9.631 -0.4368 -0.0614  0.6824
  119OSM   H12S12557   3.646   4.923   9.590 -0.8349 -0.9304 -0.9391
  119OSM   H12T12558   3.633   4.766   9.699  2.0548 -0.5155  2.5721
  119OSM   C13S12559   3.716   4.747   9.501 -0.2263 -0.6279 -1.3387
  119OSM   H13S12560   3.753   4.645   9.525  0.3500  0.0375  0.7980
  119OSM   H13T12561   3.797   4.802   9.449  0.7464 -1.4524 -0.7440
  119OSM   C14S12562   3.592   4.744   9.408  0.3547  0.1662 -0.0998
  119OSM   H14S12563   3.553   4.847   9.390  2.1049  1.0059  0.6453
  119OSM   H14T12564   3.524   4.679   9.467 -0.3491  0.4397 -0.5952
  119OSM   C15S12565   3.642   4.688   9.273 -0.7662  0.2516  0.1862
  119OSM   H15S12566   3.730   4.621   9.283 -0.5417  0.5917  0.5365
  119OSM   H15T12567   3.682   4.777   9.220 -0.1619  0.3264  0.7509
  119OSM   C16S12568   3.546   4.633   9.166 -0.5448  0.3375  0.2352
  119OSM   H16S12569   3.466   4.710   9.158 -0.0293  0.7537 -1.3700
  119OSM   H16T12570   3.513   4.533   9.201  0.6540  0.3796  1.5715
  119OSM   C17S12571   3.623   4.610   9.029 -0.1399 -0.7414  0.3796
  119OSM   H17S12572   3.548   4.561   8.964 -0.8050 -1.7832  1.8778
  119OSM   H17T12573   3.713   4.546   9.043 -0.7893 -1.5320  0.9856
  119OSM   C18S12574   3.670   4.746   8.958  0.7025  0.4194 -0.1699
  119OSM   H18S12575   3.691   4.728   8.850  2.5539 -2.4822  0.5751
  119OSM   H18T12576   3.763   4.779   9.007 -0.1717  1.3012  0.9532
  119OSM   H18U12577   3.592   4.824   8.971  2.5163  2.0490  1.5479
  119OSM    C1F12578   3.599   4.741  10.542  0.2562 -0.4523 -0.0352
  119OSM     OF12579   3.542   4.815  10.627 -0.0530  0.3751  0.0659
  119OSM    C2F12580   3.527   4.677  10.426  0.5151  0.1983 -0.3721
  119OSM    H2F12581   3.543   4.567  10.422 -0.0792  0.0192  1.4242
  119OSM    H2G12582   3.571   4.708  10.329  1.3028 -0.9004 -0.3874
  119OSM    C3F12583   3.379   4.725  10.425  0.7808 -0.2740 -0.2223
  119OSM    H3F12584   3.378   4.835  10.416  0.5628 -0.3927 -2.2914
  119OSM    H3G12585   3.327   4.696  10.518  0.5107  2.3124  0.4987
  119OSM    C4F12586   3.302   4.670  10.306  0.8014 -0.5701 -0.2492
  119OSM    H4F12587   3.359   4.704  10.216  1.9661  1.3448  1.1407
  119OSM    H4G12588   3.207   4.727  10.313  0.7831 -0.7769  1.4572
  119OSM    C5F12589   3.280   4.518  10.321  0.4243  0.1893 -0.3995
  119OSM    H5F12590   3.223   4.506  10.415  0.8410  0.0657 -0.1598
  119OSM    H5G12591   3.376   4.461  10.322  0.0787 -0.4448 -1.3485
  119OSM    C6F12592   3.200   4.476  10.202  0.5591  0.4342  0.0073
  119OSM    H6F12593   3.107   4.536  10.194  0.1267 -0.2300 -0.0365
  119OSM    H6G12594   3.162   4.372  10.215  0.3677  0.3445 -1.1280
  119OSM    C7F12595   3.282   4.467  10.076 -0.1757  0.3169 -0.7846
  119OSM    H7F12596   3.345   4.376  10.085 -0.5631  0.0643 -0.6441
  119OSM    H7G12597   3.353   4.550  10.057 -0.3119  1.0383  1.5462
  119OSM    C8F12598   3.202   4.454   9.951  0.0375 -0.5665 -0.9266
  119OSM    H8F12599   3.127   4.373   9.964 -0.8130  0.3112 -0.1172
  119OSM    H8G12600   3.274   4.424   9.873  0.8135 -1.3136  0.0485
  119OSM    C9F12601   3.135   4.592   9.928  0.2249  0.0075 -0.9315
  119OSM    H9F12602   3.064   4.627  10.004  0.6923 -0.5669 -0.2199
  119OSM   C10F12603   3.169   4.678   9.828  0.5434  0.4213  0.2137
  119OSM   H10F12604   3.119   4.775   9.836  0.0642  0.0798  1.8780
  119OSM   C11F12605   3.280   4.662   9.722  0.1573 -0.2405 -0.1431
  119OSM   H11F12606   3.341   4.573   9.745 -0.9871 -0.3595  3.0150
  119OSM   H11G12607   3.349   4.749   9.714 -1.1260  1.1044  2.1741
  119OSM   C12F12608   3.235   4.639   9.573  0.2012 -0.0699  0.1201
  119OSM   H12F12609   3.162   4.555   9.569  1.3762 -1.0672 -1.9548
  119OSM   H12G12610   3.325   4.604   9.519 -0.4376 -0.1233 -0.9265
  119OSM   C13F12611   3.179   4.766   9.491 -0.5655 -0.3906  0.1260
  119OSM   H13F12612   3.242   4.855   9.515  0.2634 -0.9342 -0.0032
  119OSM   H13G12613   3.080   4.797   9.530 -0.4559  1.5290 -0.9809
  119OSM   C14F12614   3.200   4.733   9.346 -0.2903 -0.4077  0.7487
  119OSM   H14F12615   3.308   4.710   9.332 -0.6775 -2.7470  1.1799
  119OSM   H14G12616   3.184   4.817   9.275  1.3538  0.1979  1.0551
  119OSM   C15F12617   3.118   4.619   9.294 -0.2315  0.3512 -0.2798
  119OSM   H15F12618   3.012   4.651   9.281 -0.4070 -0.3069 -0.5047
  119OSM   H15G12619   3.117   4.535   9.367  0.9183  0.0722 -0.5672
  119OSM   C16F12620   3.161   4.557   9.160  0.6646  1.2183  0.0183
  119OSM   H16F12621   3.092   4.473   9.136 -1.6822  2.6772  1.3115
  119OSM   H16G12622   3.261   4.510   9.170 -0.4966 -1.5050 -0.3528
  119OSM   C17F12623   3.155   4.650   9.035 -0.1626 -0.0254 -0.0887
  119OSM   H17F12624   3.178   4.756   9.060 -2.4108  0.5860 -0.4534
  119OSM   H17G12625   3.048   4.658   9.009 -0.0182  2.4963 -0.2132
  119OSM   C18F12626   3.239   4.592   8.925 -1.0857  0.2461  0.1362
  119OSM   H18F12627   3.344   4.590   8.962 -1.3429 -3.1728  1.0713
  119OSM   H18G12628   3.234   4.656   8.835 -2.6458 -0.1413 -0.0929
  119OSM   H18H12629   3.216   4.485   8.903  1.4572 -0.2613 -0.3024
  120OSM      N12630   2.499   2.409  10.962 -0.4254 -0.2344  0.5326
  120OSM    C1512631   2.550   2.291  10.891 -0.1887  0.4405  0.2618
  120OSM   H15A12632   2.492   2.200  10.899  1.4041 -0.6114  0.2701
  120OSM   H15B12633   2.643   2.261  10.938 -0.5532  0.7630  1.2189
  120OSM   H15C12634   2.560   2.302  10.784 -2.6242 -0.2297 -0.0948
  120OSM    C1412635   2.504   2.383  11.110 -0.0815  1.1899  0.0780
  120OSM   H14A12636   2.607   2.364  11.136 -0.7768 -1.4257  1.3071
  120OSM   H14B12637   2.446   2.299  11.147  2.7627 -0.0354  2.1371
  120OSM   H14C12638   2.483   2.475  11.161  0.2466  0.4012  1.7109
  120OSM    C1312639   2.589   2.529  10.931  0.3149 -0.1288  0.2852
  120OSM   H13A12640   2.571   2.605  11.005  1.4083 -2.1550  2.7773
  120OSM   H13B12641   2.570   2.553  10.827 -0.0138  0.5607  0.5020
  120OSM   H13C12642   2.695   2.508  10.936  0.5381  0.5152 -1.1704
  120OSM    C1212643   2.354   2.439  10.915  0.0708  0.0495  0.1987
  120OSM   H12A12644   2.304   2.501  10.988  0.4564  0.6984 -0.0724
  120OSM   H12B12645   2.309   2.342  10.929 -0.1196 -0.0110 -0.7328
  120OSM    C1112646   2.331   2.492  10.774  0.5414  0.2754  0.1283
  120OSM   H11A12647   2.223   2.504  10.750  0.7207  0.4749 -0.5916
  120OSM   H11B12648   2.371   2.413  10.707  2.4561  0.7537  0.6517
  120OSM      P12649   2.307   2.745  10.806  0.0013 -0.2700  0.2474
  120OSM    O1312650   2.275   2.713  10.945  0.0477  0.0925 -0.3463
  120OSM    O1412651   2.365   2.878  10.782  0.7005 -0.3140  0.5784
  120OSM    O1112652   2.169   2.746  10.725 -0.4029  1.0418 -0.2992
  120OSM    O1212653   2.385   2.623  10.749  0.7139 -0.0421 -0.0584
  120OSM    C1S12654   2.160   2.765  10.583 -0.5578 -0.0543 -0.2657
  120OSM    H1S12655   2.258   2.802  10.548  0.2258  1.3374  3.0344
  120OSM    H1T12656   2.095   2.852  10.560 -1.2980 -0.5148  0.0420
  120OSM     NF12657   2.134   2.673  10.368 -0.0906 -0.2386 -0.0249
  120OSM    HNF12658   2.054   2.712  10.324 -0.8168 -0.9614  0.6190
  120OSM    C2S12659   2.114   2.642  10.509 -0.7161  0.4368 -0.1726
  120OSM    H2S12660   2.182   2.557  10.530 -0.7283  0.4483 -0.0855
  120OSM    C3S12661   1.970   2.596  10.542 -1.0154  0.5955 -0.4112
  120OSM    H3S12662   1.901   2.681  10.526  1.2348  3.2449  2.6147
  120OSM     O312663   1.959   2.559  10.681 -0.4290 -0.0664 -0.6205
  120OSM    HO312664   2.032   2.598  10.730 -0.5700 -1.0999  0.4624
  120OSM    C4S12665   1.928   2.475  10.454 -0.1517  0.3548 -0.6198
  120OSM    H4S12666   1.988   2.383  10.463  1.1390  1.1678 -0.6342
  120OSM    C5S12667   1.843   2.493  10.350 -1.0244  0.2895  0.0303
  120OSM    H5S12668   1.782   2.584  10.344 -1.7461 -0.1648  0.3003
  120OSM    C6S12669   1.804   2.387  10.247 -1.1681 -0.3814  0.1813
  120OSM    H6S12670   1.694   2.386  10.233 -1.6407  4.0584  1.8984
  120OSM    H6T12671   1.829   2.291  10.296  1.9820  0.5287  0.5669
  120OSM    C7S12672   1.883   2.393  10.118 -0.0445  0.1418  0.5367
  120OSM    H7S12673   1.837   2.324  10.045 -1.2276 -0.8884  2.2006
  120OSM    H7T12674   1.985   2.355  10.137 -0.0919 -0.5760 -0.5979
  120OSM    C8S12675   1.907   2.534  10.063  0.5601 -0.3124 -0.4882
  120OSM    H8S12676   1.962   2.600  10.133 -1.9080  1.9533 -0.5043
  120OSM    H8T12677   1.808   2.584  10.056  1.6481  2.2415  0.9552
  120OSM    C9S12678   1.964   2.537   9.920 -0.0725 -0.3898  0.5492
  120OSM    H9S12679   1.895   2.479   9.855 -0.1275  0.5002 -0.1979
  120OSM    H9T12680   2.059   2.479   9.916 -0.2062 -0.8493  2.6556
  120OSM   C10S12681   1.977   2.672   9.853  0.0279  0.0928 -0.1526
  120OSM   H10S12682   1.998   2.746   9.932 -0.9444  0.3303 -0.0970
  120OSM   H10T12683   1.883   2.711   9.807  0.1319  0.6708  0.1249
  120OSM   C11S12684   2.083   2.684   9.743  0.1158  0.0645  0.2139
  120OSM   H11S12685   2.166   2.625   9.789 -1.2068 -0.3079  2.2775
  120OSM   H11T12686   2.126   2.785   9.727  2.4022 -0.8427  0.1320
  120OSM   C12S12687   2.038   2.611   9.611 -0.2677 -0.4851 -0.0122
  120OSM   H12S12688   1.961   2.673   9.559 -0.9226 -2.5075 -1.6095
  120OSM   H12T12689   2.008   2.508   9.640  3.9434 -1.4599  1.4961
  120OSM   C13S12690   2.151   2.598   9.506 -0.3871 -0.2846 -0.4775
  120OSM   H13S12691   2.187   2.494   9.517 -1.4654 -0.7053 -0.8000
  120OSM   H13T12692   2.230   2.671   9.534 -1.3153 -0.0306  1.6752
  120OSM   C14S12693   2.109   2.604   9.356  0.0564  0.3540 -0.3948
  120OSM   H14S12694   2.065   2.703   9.331 -0.1753  0.3601  0.0239
  120OSM   H14T12695   2.030   2.528   9.341  0.6364 -0.1846 -0.7796
  120OSM   C15S12696   2.229   2.583   9.264  0.5989 -0.2609 -0.1923
  120OSM   H15S12697   2.242   2.473   9.249 -0.4071 -0.3738 -0.2867
  120OSM   H15T12698   2.321   2.630   9.304  0.2536 -0.0426  0.3593
  120OSM   C16S12699   2.220   2.645   9.122 -0.1186 -0.4893 -0.3348
  120OSM   H16S12700   2.267   2.746   9.116 -1.9080  0.4213  0.2815
  120OSM   H16T12701   2.111   2.647   9.100 -0.4915 -3.1297  0.7977
  120OSM   C17S12702   2.300   2.558   9.021  0.1068 -0.3007  0.2409
  120OSM   H17S12703   2.239   2.466   9.005  1.7112 -1.2021 -0.9757
  120OSM   H17T12704   2.400   2.530   9.060  0.5471 -1.0634 -1.3484
  120OSM   C18S12705   2.323   2.625   8.889  0.7610  0.0384  0.0650
  120OSM   H18S12706   2.370   2.565   8.809  0.7022 -1.1627  0.9052
  120OSM   H18T12707   2.383   2.719   8.895  2.0674 -0.6910 -1.0935
  120OSM   H18U12708   2.222   2.666   8.867 -0.4636 -1.3574  2.5899
  120OSM    C1F12709   2.259   2.667  10.314 -0.1134  0.6893  0.4870
  120OSM     OF12710   2.361   2.634  10.373  0.0706 -0.2488 -0.1500
  120OSM    C2F12711   2.279   2.695  10.167 -0.6810  0.4103  0.3123
  120OSM    H2F12712   2.191   2.753  10.132 -1.1389 -0.2413  0.3662
  120OSM    H2G12713   2.279   2.598  10.113 -0.5361 -0.0067  1.0384
  120OSM    C3F12714   2.406   2.774  10.143 -0.1459  0.3482  1.0368
  120OSM    H3F12715   2.502   2.724  10.170  0.1525  0.7225  0.6794
  120OSM    H3G12716   2.389   2.870  10.197 -1.8194 -0.1799  1.5059
  120OSM    C4F12717   2.417   2.801   9.992  0.5016 -0.2925 -0.2166
  120OSM    H4F12718   2.408   2.700   9.947 -1.8012  0.2693 -1.1603
  120OSM    H4G12719   2.525   2.824   9.977  1.3945 -1.5975  3.3104
  120OSM    C5F12720   2.316   2.906   9.934 -0.2854  0.1989 -0.1007
  120OSM    H5F12721   2.325   2.994  10.002  0.6464 -0.3839  0.5597
  120OSM    H5G12722   2.209   2.876   9.937 -0.2093 -0.2003 -0.8992
  120OSM    C6F12723   2.346   2.928   9.788  0.1599 -0.1733 -0.3693
  120OSM    H6F12724   2.332   2.835   9.730 -0.6103 -0.7506  0.7194
  120OSM    H6G12725   2.450   2.967   9.778  0.5756 -0.8651  1.0193
  120OSM    C7F12726   2.253   3.042   9.744 -0.0485 -0.5632  1.2424
  120OSM    H7F12727   2.282   3.133   9.801  2.3327 -0.6271  0.2445
  120OSM    H7G12728   2.151   3.014   9.779 -0.4772  0.0447  0.5080
  120OSM    C8F12729   2.274   3.080   9.597  0.8783  0.0269  0.4440
  120OSM    H8F12730   2.382   3.066   9.576  1.0655  1.5154  0.2893
  120OSM    H8G12731   2.230   3.179   9.572 -1.5933 -1.1662 -0.2271
  120OSM    C9F12732   2.210   2.981   9.502 -0.2434 -0.0850 -0.4128
  120OSM    H9F12733   2.221   2.873   9.518 -0.2575 -0.0434 -0.1126
  120OSM   C10F12734   2.128   3.017   9.402  0.7603  0.1319 -0.6325
  120OSM   H10F12735   2.074   2.941   9.342 -1.2544  0.3966  0.7502
  120OSM   C11F12736   2.099   3.159   9.351  0.4206 -0.1197 -0.5717
  120OSM   H11F12737   2.104   3.244   9.423 -2.2418 -1.0584  0.8635
  120OSM   H11G12738   1.990   3.156   9.331  0.0341  0.3829  1.2263
  120OSM   C12F12739   2.170   3.187   9.224 -0.2448 -0.1923 -0.6330
  120OSM   H12F12740   2.279   3.203   9.242 -0.6682 -0.7149  3.3004
  120OSM   H12G12741   2.139   3.284   9.181 -0.6743  0.6304  1.3887
  120OSM   C13F12742   2.140   3.083   9.121  0.5942  1.0943 -0.0604
  120OSM   H13F12743   2.031   3.063   9.131  0.9179 -0.1270  1.4520
  120OSM   H13G12744   2.185   2.984   9.146  0.3454  0.9585 -0.1354
  120OSM   C14F12745   2.156   3.123   8.981  0.0106  0.2294  0.7661
  120OSM   H14F12746   2.262   3.147   8.959  0.1609 -0.9000  0.1801
  120OSM   H14G12747   2.102   3.219   8.964 -0.0376 -0.2535 -2.4836
  120OSM   C15F12748   2.115   3.018   8.873  0.0152  0.0109 -0.4541
  120OSM   H15F12749   2.178   2.929   8.894  1.9931  1.3021 -0.6367
  120OSM   H15G12750   2.148   3.055   8.773  0.4895  0.7843 -0.0256
  120OSM   C16F12751   1.972   2.976   8.860  0.6864  0.0868  0.5226
  120OSM   H16F12752   1.933   2.930   8.953 -0.1327  0.8501  0.5713
  120OSM   H16G12753   1.972   2.898   8.781  1.8055  1.8882 -1.3696
  120OSM   C17F12754   1.875   3.093   8.822  0.1078  0.5056 -0.4844
  120OSM   H17F12755   1.921   3.142   8.734  1.4671  1.1243  0.5330
  120OSM   H17G12756   1.882   3.179   8.893  2.1553  1.8251 -2.1609
  120OSM   C18F12757   1.734   3.052   8.791  0.1087 -0.0533 -0.9932
  120OSM   H18F12758   1.744   2.987   8.702 -0.5169  0.2543 -1.2927
  120OSM   H18G12759   1.675   3.141   8.761  0.1038 -0.2414 -1.5537
  120OSM   H18H12760   1.682   2.992   8.869  0.9996  0.4696  0.0318
  121OSM      N12761   1.992   0.410  11.120 -0.1688 -0.0257 -0.8467
  121OSM    C1512762   1.853   0.357  11.161 -0.7289 -0.0853  0.2134
  121OSM   H15A12763   1.777   0.421  11.120 -0.6071 -0.7051 -1.0124
  121OSM   H15B12764   1.839   0.364  11.268 -0.6714  1.8816  0.1337
  121OSM   H15C12765   1.829   0.257  11.128 -2.2547  1.0946 -2.5754
  121OSM    C1412766   2.009   0.554  11.180  0.4522 -0.4500 -0.2290
  121OSM   H14A12767   2.032   0.546  11.285  0.0613 -0.9098 -0.1748
  121OSM   H14B12768   1.924   0.616  11.156 -0.3098 -1.4813 -0.2734
  121OSM   H14C12769   2.097   0.596  11.134 -0.9114  2.0376 -0.7717
  121OSM    C1312770   2.097   0.328  11.194  0.3947  0.6046  0.3316
  121OSM   H13A12771   2.194   0.376  11.191  1.2061 -0.9926 -1.7937
  121OSM   H13B12772   2.096   0.235  11.139 -2.0437  0.9734 -0.3717
  121OSM   H13C12773   2.073   0.306  11.297 -1.8894  0.1540 -0.2326
  121OSM    C1212774   2.004   0.420  10.972 -0.0662 -0.1983  0.4166
  121OSM   H12A12775   2.103   0.456  10.951 -0.3370  1.0061  1.1467
  121OSM   H12B12776   1.934   0.491  10.931  0.5153  0.0273 -0.1987
  121OSM    C1112777   1.988   0.300  10.885 -0.0732  0.4820 -0.1468
  121OSM   H11A12778   1.975   0.326  10.777  0.4145  1.2833 -0.0159
  121OSM   H11B12779   1.892   0.246  10.902 -0.1604  0.4801 -0.6189
  121OSM      P12780   2.238   0.220  10.866 -0.2654 -0.0722  0.2632
  121OSM    O1312781   2.309   0.295  10.965  0.2158 -0.1610 -0.0576
  121OSM    O1412782   2.281   0.082  10.838 -0.1670  0.6905  0.3723
  121OSM    O1112783   2.241   0.300  10.728 -0.0418  0.1752 -0.0814
  121OSM    O1212784   2.092   0.206  10.911  0.0222  0.1904 -0.4152
  121OSM    C1S12785   2.225   0.224  10.609  0.1267  0.1801  0.5074
  121OSM    H1S12786   2.116   0.205  10.599  0.1777 -0.3489  0.9096
  121OSM    H1T12787   2.281   0.130  10.598  1.1843  0.9310 -0.7851
  121OSM     NF12788   2.243   0.242  10.353  0.4166 -0.2715  0.1801
  121OSM    HNF12789   2.323   0.195  10.314 -1.1488 -4.8512  1.7792
  121OSM    C2S12790   2.259   0.313  10.481 -0.2155 -0.2740  0.3581
  121OSM    H2S12791   2.194   0.403  10.488 -0.9009 -0.7130 -0.2129
  121OSM    C3S12792   2.405   0.361  10.500 -0.2821  0.0898 -0.0195
  121OSM    H3S12793   2.471   0.272  10.488 -1.2945 -0.6387 -0.3414
  121OSM     O312794   2.440   0.410  10.635  0.0414 -0.2147 -0.5301
  121OSM    HO312795   2.359   0.380  10.676 -0.8803 -0.8400 -2.6365
  121OSM    C4S12796   2.450   0.449  10.398 -0.0555  0.0830 -0.1054
  121OSM    H4S12797   2.459   0.393  10.304 -0.8362  0.7782 -0.6008
  121OSM    C5S12798   2.469   0.586  10.398 -0.4092 -0.1762  0.3521
  121OSM    H5S12799   2.467   0.646  10.490  2.2212  1.7035 -0.7180
  121OSM    C6S12800   2.504   0.659  10.273  0.0869 -0.1703  0.7961
  121OSM    H6S12801   2.615   0.659  10.276  0.0848  0.0765  2.9158
  121OSM    H6T12802   2.472   0.765  10.284 -2.7078 -0.9643  0.9331
  121OSM    C7S12803   2.439   0.605  10.143 -0.4415  0.1862 -0.5506
  121OSM    H7S12804   2.329   0.608  10.158 -0.3815 -0.0803  0.0112
  121OSM    H7T12805   2.469   0.500  10.121  0.1157  0.0759  0.6211
  121OSM    C8S12806   2.503   0.678  10.027 -0.1723  0.6857  0.2321
  121OSM    H8S12807   2.611   0.659  10.039 -0.7016 -2.1226  1.3090
  121OSM    H8T12808   2.478   0.786  10.037  0.7475  1.0888 -1.4781
  121OSM    C9S12809   2.452   0.621   9.894  0.2020 -0.3871  0.2383
  121OSM    H9S12810   2.341   0.620   9.890  0.2143  0.0420 -0.4664
  121OSM    H9T12811   2.479   0.514   9.882  1.0739 -0.0418 -1.2693
  121OSM   C10S12812   2.503   0.698   9.772  0.4262 -0.2884 -0.6678
  121OSM   H10S12813   2.613   0.703   9.760  0.4282 -0.3727 -0.6821
  121OSM   H10T12814   2.465   0.802   9.783 -0.1984 -0.5042 -0.7613
  121OSM   C11S12815   2.448   0.637   9.646  0.5322 -0.6906 -0.1596
  121OSM   H11S12816   2.337   0.632   9.650  0.4158  1.5425  1.0741
  121OSM   H11T12817   2.498   0.538   9.647  0.2571 -0.8288  0.8349
  121OSM   C12S12818   2.475   0.710   9.514 -0.4295 -0.5730  0.3087
  121OSM   H12S12819   2.427   0.809   9.531  2.0940  0.6842  0.5683
  121OSM   H12T12820   2.422   0.669   9.425 -1.1019  2.0966 -0.6155
  121OSM   C13S12821   2.619   0.738   9.489 -0.5343 -0.2181  0.3471
  121OSM   H13S12822   2.674   0.643   9.474 -0.2412  0.1873 -1.3997
  121OSM   H13T12823   2.664   0.791   9.576 -0.4922 -1.2149  0.9395
  121OSM   C14S12824   2.627   0.822   9.358  0.6281 -0.0826 -0.4977
  121OSM   H14S12825   2.726   0.872   9.358  1.2053 -1.1863 -1.5424
  121OSM   H14T12826   2.552   0.904   9.349  3.2151  2.5172 -0.0092
  121OSM   C15S12827   2.607   0.756   9.227 -0.2095  0.0029  0.1950
  121OSM   H15S12828   2.591   0.839   9.155  0.7465 -1.9460 -2.3929
  121OSM   H15T12829   2.520   0.688   9.232 -1.8370  2.0235  0.9577
  121OSM   C16S12830   2.728   0.666   9.185 -0.0639  0.3346  0.9441
  121OSM   H16S12831   2.728   0.603   9.277 -1.9504  0.0146  0.7695
  121OSM   H16T12832   2.817   0.732   9.174  0.1594 -0.3844 -2.5904
  121OSM   C17S12833   2.687   0.600   9.052 -1.3974 -0.2648 -0.3246
  121OSM   H17S12834   2.683   0.671   8.966 -0.4674 -0.1436 -0.2815
  121OSM   H17T12835   2.587   0.556   9.071 -0.6027 -1.7255  0.6354
  121OSM   C18S12836   2.798   0.500   9.013 -0.1751 -0.6663  0.3154
  121OSM   H18S12837   2.781   0.451   8.915  0.2378 -1.0338  0.4270
  121OSM   H18T12838   2.803   0.425   9.094 -1.4810 -0.1561  0.9101
  121OSM   H18U12839   2.891   0.561   9.010 -0.7871  0.2681 -0.4629
  121OSM    C1F12840   2.122   0.223  10.293  0.1468 -1.5408  0.2177
  121OSM     OF12841   2.019   0.234  10.356  0.3470 -0.6258 -0.3163
  121OSM    C2F12842   2.114   0.191  10.144 -0.0124 -0.0445  0.0917
  121OSM    H2F12843   2.005   0.195  10.119  0.1612  0.3785 -0.6013
  121OSM    H2G12844   2.148   0.086  10.131  0.1841  0.0335 -0.0260
  121OSM    C3F12845   2.176   0.291  10.037  0.2300  0.8062  0.3527
  121OSM    H3F12846   2.287   0.284  10.047  0.2848 -1.6577 -1.1077
  121OSM    H3G12847   2.139   0.392  10.067  1.6525  1.6299 -0.5183
  121OSM    C4F12848   2.130   0.278   9.890 -0.1268 -0.3528  0.3693
  121OSM    H4F12849   2.023   0.249   9.881  0.0057 -0.3853 -1.5728
  121OSM    H4G12850   2.191   0.197   9.844  0.1405 -0.0440  0.1732
  121OSM    C5F12851   2.151   0.402   9.809 -0.4079  0.3318 -0.0394
  121OSM    H5F12852   2.261   0.416   9.815 -0.3950  0.2365 -0.0495
  121OSM    H5G12853   2.122   0.500   9.852 -0.8809 -0.6192  1.9021
  121OSM    C6F12854   2.107   0.399   9.661  0.0309  0.0012  0.1520
  121OSM    H6F12855   2.166   0.315   9.619 -2.1134 -1.2625 -0.5029
  121OSM    H6G12856   2.127   0.499   9.619 -2.0077  0.8740  1.1329
  121OSM    C7F12857   1.954   0.374   9.641  0.1862  0.0224  0.3118
  121OSM    H7F12858   1.920   0.473   9.678  1.8391  0.7287  0.0449
  121OSM    H7G12859   1.924   0.305   9.722  1.0120 -0.2056  0.4339
  121OSM    C8F12860   1.912   0.344   9.494 -0.0045 -0.0837 -0.0847
  121OSM    H8F12861   1.805   0.312   9.492  0.1480 -0.5882 -0.4701
  121OSM    H8G12862   1.965   0.251   9.463 -0.7207 -0.0307 -1.6016
  121OSM    C9F12863   1.943   0.456   9.397  0.4424  0.0337  0.3808
  121OSM    H9F12864   1.881   0.546   9.402  2.2141  1.3256  0.2770
  121OSM   C10F12865   2.045   0.453   9.301 -0.7985 -0.0916 -0.2385
  121OSM   H10F12866   2.045   0.533   9.226  3.6480  1.2844  0.9114
  121OSM   C11F12867   2.147   0.347   9.273  0.0866  0.0855 -0.3436
  121OSM   H11F12868   2.138   0.251   9.327  4.5316  0.2610  1.0726
  121OSM   H11G12869   2.243   0.399   9.296 -0.1446 -0.1587  1.2611
  121OSM   C12F12870   2.150   0.310   9.125  0.0319  0.1131 -0.1061
  121OSM   H12F12871   2.134   0.399   9.061  1.6893 -0.6289 -1.6534
  121OSM   H12G12872   2.066   0.243   9.095  0.8306  0.5415 -3.7645
  121OSM   C13F12873   2.282   0.234   9.089  0.7697 -0.6858 -0.2171
  121OSM   H13F12874   2.266   0.128   9.117 -1.8142 -0.5799 -1.0254
  121OSM   H13G12875   2.359   0.275   9.159  0.0550  1.1630 -0.4465
  121OSM   C14F12876   2.312   0.240   8.937  0.4263  0.0252 -0.9799
  121OSM   H14F12877   2.339   0.343   8.902 -1.7308  1.2215  0.6406
  121OSM   H14G12878   2.218   0.211   8.884  0.2359 -1.6942  0.2147
  121OSM   C15F12879   2.432   0.150   8.902  0.4347 -0.2365  0.1152
  121OSM   H15F12880   2.398   0.096   8.811  1.0205  1.0923 -0.9415
  121OSM   H15G12881   2.439   0.075   8.983  1.5120  0.8765  1.0875
  121OSM   C16F12882   2.568   0.221   8.871 -0.4904  0.1655 -0.0516
  121OSM   H16F12883   2.607   0.285   8.954 -1.7355  0.0618  0.6439
  121OSM   H16G12884   2.565   0.294   8.788  2.0237  1.4866  0.9056
  121OSM   C17F12885   2.668   0.113   8.835 -0.7430 -0.2067 -0.1209
  121OSM   H17F12886   2.620   0.053   8.755 -1.2379 -1.0249  0.7696
  121OSM   H17G12887   2.686   0.045   8.921  0.2641 -0.0714 -0.2028
  121OSM   C18F12888   2.798   0.177   8.794  0.0249  0.0873  0.1815
  121OSM   H18F12889   2.784   0.244   8.707  0.4557  2.2195  1.6842
  121OSM   H18G12890   2.877   0.104   8.766  2.3363  2.6070 -0.1755
  121OSM   H18H12891   2.841   0.244   8.872 -0.8897 -1.0920  1.7750
  122OSM      N12892   1.117   4.779  10.553  0.0043 -0.7993 -0.3676
  122OSM    C1512893   1.076   4.885  10.464  0.5891 -0.5818  0.7951
  122OSM   H15A12894   0.976   4.866  10.427  1.2091  0.3118 -1.5578
  122OSM   H15B12895   1.131   4.889  10.371 -1.9031  0.6849 -0.7543
  122OSM   H15C12896   1.077   4.979  10.519  0.7607 -0.4574  0.5820
  122OSM    C1412897   1.030   4.770  10.677  0.4745 -0.0590  0.1456
  122OSM   H14A12898   0.925   4.759  10.654  0.8106 -0.6546 -1.2321
  122OSM   H14B12899   1.044   4.859  10.736 -2.2689  2.1808 -2.2138
  122OSM   H14C12900   1.061   4.682  10.731 -0.1616 -0.4207 -0.0639
  122OSM    C1312901   1.105   4.659  10.466  0.2099  0.1595 -0.0776
  122OSM   H13A12902   1.001   4.642  10.441  0.6733 -2.1525 -0.6783
  122OSM   H13B12903   1.142   4.569  10.514 -0.6288 -0.8064 -1.1789
  122OSM   H13C12904   1.159   4.663  10.373  0.8382 -2.0713  0.1358
  122OSM    C1212905   1.261   4.800  10.593  0.6145  0.6380 -0.4626
  122OSM   H12A12906   1.254   4.893  10.648  0.0183  0.1173  0.3618
  122OSM   H12B12907   1.321   4.828  10.507  0.3996  0.9519 -0.5125
  122OSM    C1112908   1.339   4.696  10.680 -0.3808 -0.2318  0.2051
  122OSM   H11A12909   1.337   4.595  10.635 -0.2839 -0.0804 -0.1354
  122OSM   H11B12910   1.298   4.684  10.783  0.3217 -0.7903  0.4291
  122OSM      P12911   1.591   4.693  10.748  0.0767 -0.4253 -0.3105
  122OSM    O1312912   1.712   4.766  10.701  0.3130  0.1118  0.7614
  122OSM    O1412913   1.570   4.695  10.893  0.0456 -0.0680 -0.0379
  122OSM    O1112914   1.579   4.543  10.686 -0.4479  0.3025 -0.2957
  122OSM    O1212915   1.464   4.757  10.683  0.5230  0.2986  0.1903
  122OSM    C1S12916   1.581   4.533  10.544  0.5315 -0.2873 -0.1019
  122OSM    H1S12917   1.563   4.628  10.488  0.0648  0.7581  1.7510
  122OSM    H1T12918   1.505   4.461  10.507  0.0518  0.0253  0.2673
  122OSM     NF12919   1.718   4.470  10.345  0.2965  0.0768 -0.3059
  122OSM    HNF12920   1.711   4.377  10.308 -2.1109 -0.0180  0.2147
  122OSM    C2S12921   1.728   4.483  10.489  0.3948 -0.3636 -0.2602
  122OSM    H2S12922   1.797   4.565  10.516 -0.9276  0.8493 -0.4421
  122OSM    C3S12923   1.775   4.352  10.559  0.1355 -0.8232 -0.1638
  122OSM    H3S12924   1.702   4.278  10.520 -1.5249  1.5975 -1.9597
  122OSM     O312925   1.772   4.348  10.703  0.2659 -0.1825  0.0990
  122OSM    HO312926   1.690   4.394  10.722  0.5362 -0.5744  2.4665
  122OSM    C4S12927   1.911   4.322  10.504 -0.5801  0.3650 -0.2930
  122OSM    H4S12928   1.925   4.234  10.440 -1.8550 -0.8187  0.9934
  122OSM    C5S12929   2.028   4.376  10.544 -0.1301  0.6029 -0.1638
  122OSM    H5S12930   2.048   4.451  10.622  3.6162 -0.4003  0.0440
  122OSM    C6S12931   2.169   4.333  10.501 -0.2622 -0.1174 -0.6874
  122OSM    H6S12932   2.218   4.283  10.587 -0.2081  2.5371  0.9307
  122OSM    H6T12933   2.230   4.422  10.473  0.5558 -0.7688 -1.0420
  122OSM    C7S12934   2.194   4.247  10.373 -0.6847  0.1749  0.1685
  122OSM    H7S12935   2.155   4.143  10.380  0.5333 -0.3562 -0.5756
  122OSM    H7T12936   2.303   4.224  10.373 -0.2306  2.1607  0.0737
  122OSM    C8S12937   2.158   4.322  10.250 -0.4317  0.7115  0.2616
  122OSM    H8S12938   2.155   4.430  10.278 -0.3870  0.2766  2.0269
  122OSM    H8T12939   2.057   4.283  10.224 -0.1529  1.2676 -1.8237
  122OSM    C9S12940   2.257   4.315  10.121  0.6983  0.5225  0.1588
  122OSM    H9S12941   2.354   4.352  10.160  0.4537  1.4864 -0.1003
  122OSM    H9T12942   2.225   4.392  10.048  1.7756 -0.8730 -1.8803
  122OSM   C10S12943   2.257   4.178  10.052 -0.5642 -0.3473 -0.3022
  122OSM   H10S12944   2.153   4.173  10.015 -1.2991  2.0871  1.1915
  122OSM   H10T12945   2.278   4.109  10.137  1.9689 -0.1412 -0.6702
  122OSM   C11S12946   2.349   4.158   9.931 -0.0162 -0.3642  0.5794
  122OSM   H11S12947   2.364   4.050   9.913 -0.6487 -0.4900  0.7504
  122OSM   H11T12948   2.446   4.211   9.941 -0.8682  1.6902 -1.3481
  122OSM   C12S12949   2.282   4.215   9.802 -0.1248  0.0133  0.5937
  122OSM   H12S12950   2.279   4.325   9.789 -0.5553  0.0514  0.9969
  122OSM   H12T12951   2.174   4.189   9.801 -0.6342  1.9741 -0.9165
  122OSM   C13S12952   2.357   4.164   9.673  0.2605 -0.7494 -0.8221
  122OSM   H13S12953   2.371   4.054   9.680 -0.7687 -0.8652 -0.3196
  122OSM   H13T12954   2.461   4.203   9.680 -0.2412  0.4176  0.5205
  122OSM   C14S12955   2.280   4.199   9.547 -0.1483  0.4128 -0.0845
  122OSM   H14S12956   2.278   4.308   9.527  2.8639  0.4049 -1.0660
  122OSM   H14T12957   2.183   4.151   9.571  0.8723 -0.2877  3.0724
  122OSM   C15S12958   2.351   4.141   9.431  0.6867  0.7566  0.0050
  122OSM   H15S12959   2.351   4.031   9.448 -1.7245  0.8620  1.0274
  122OSM   H15T12960   2.459   4.164   9.419  0.6528  0.2973 -1.4199
  122OSM   C16S12961   2.279   4.168   9.292  0.1921 -0.8341  0.0434
  122OSM   H16S12962   2.360   4.161   9.217 -0.2706  1.0171 -0.6814
  122OSM   H16T12963   2.245   4.273   9.287  0.8244 -0.6399 -0.2670
  122OSM   C17S12964   2.153   4.085   9.263  0.2322  1.3381 -0.0834
  122OSM   H17S12965   2.081   4.091   9.347  0.4390  1.0657  0.1175
  122OSM   H17T12966   2.174   3.976   9.262 -0.9129  1.1022  0.5091
  122OSM   C18S12967   2.084   4.124   9.138  0.7307  0.0454  0.0364
  122OSM   H18S12968   2.140   4.204   9.085 -0.0958  0.3307 -0.4403
  122OSM   H18T12969   1.983   4.164   9.161  0.2782  0.0212 -1.7400
  122OSM   H18U12970   2.069   4.033   9.075 -0.3086 -0.0824  0.4475
  122OSM    C1F12971   1.716   4.567  10.259  0.3458  0.2537 -0.3767
  122OSM     OF12972   1.708   4.683  10.287  0.1023 -0.2653  0.0031
  122OSM    C2F12973   1.733   4.525  10.115 -0.4189 -0.1728  0.2422
  122OSM    H2F12974   1.643   4.463  10.095  0.9192 -3.8587  4.0108
  122OSM    H2G12975   1.832   4.479  10.098 -0.2412  0.3999 -0.2862
  122OSM    C3F12976   1.736   4.652  10.029 -0.8209  0.3746 -0.4118
  122OSM    H3F12977   1.795   4.734  10.075 -1.2078  2.0768 -2.7361
  122OSM    H3G12978   1.633   4.691  10.016 -0.6295  0.7610 -0.8039
  122OSM    C4F12979   1.797   4.636   9.893 -0.0972 -0.4863 -0.2873
  122OSM    H4F12980   1.898   4.589   9.896  0.8931  1.4842 -1.1055
  122OSM    H4G12981   1.803   4.738   9.850 -0.4973 -0.3160  0.0568
  122OSM    C5F12982   1.705   4.549   9.804  0.3367  0.4657  0.6758
  122OSM    H5F12983   1.604   4.597   9.802  0.3197  0.6148  2.6605
  122OSM    H5G12984   1.694   4.448   9.849  0.4778 -0.4495 -1.2768
  122OSM    C6F12985   1.751   4.530   9.660  0.2859 -0.5986  0.2449
  122OSM    H6F12986   1.851   4.480   9.660 -0.4541 -2.2188  2.1077
  122OSM    H6G12987   1.763   4.631   9.614 -1.4884 -1.6440 -2.7793
  122OSM    C7F12988   1.656   4.454   9.574 -0.3558 -1.2310  0.2337
  122OSM    H7F12989   1.564   4.513   9.556 -0.6035 -0.9748  2.1980
  122OSM    H7G12990   1.616   4.368   9.632 -0.9456 -2.1461 -1.4373
  122OSM    C8F12991   1.711   4.412   9.432  0.0774 -0.8127  0.3869
  122OSM    H8F12992   1.642   4.333   9.394  0.3287 -0.6728 -0.3779
  122OSM    H8G12993   1.808   4.359   9.442  0.5382 -0.2605 -0.9710
  122OSM    C9F12994   1.721   4.519   9.331 -0.2819 -0.1778 -0.2641
  122OSM    H9F12995   1.751   4.620   9.364  1.2586 -0.5381 -0.4866
  122OSM   C10F12996   1.708   4.508   9.199 -0.2474 -0.5823 -0.2086
  122OSM   H10F12997   1.710   4.602   9.144  1.0991 -0.7065 -0.4198
  122OSM   C11F12998   1.683   4.376   9.130  0.0608  0.1391  0.5773
  122OSM   H11F12999   1.582   4.364   9.085  0.1302 -0.8200  0.6613
  122OSM   H11G13000   1.688   4.297   9.208 -0.7342  1.0718  1.6110
  122OSM   C12F13001   1.781   4.343   9.013 -0.4195  0.0954 -0.3387
  122OSM   H12F13002   1.777   4.234   8.994  0.9118  0.1439 -0.9708
  122OSM   H12G13003   1.877   4.370   9.060 -0.1066  1.3542 -1.6338
  122OSM   C13F13004   1.751   4.435   8.892 -0.1225 -0.2843  0.4067
  122OSM   H13F13005   1.845   4.494   8.892 -0.6085  0.6160  3.2458
  122OSM   H13G13006   1.671   4.509   8.914 -2.2246 -1.7549 -1.7859
  122OSM   C14F13007   1.701   4.379   8.756 -0.0497 -0.6697 -0.5541
  122OSM   H14F13008   1.666   4.463   8.692  0.0734 -0.4083 -0.2828
  122OSM   H14G13009   1.610   4.315   8.758 -0.2617 -0.3981 -1.1957
  122OSM   C15F13010   1.803   4.287   8.686 -0.1253 -0.1876 -0.1224
  122OSM   H15F13011   1.873   4.240   8.758 -0.2738 -1.4191 -0.7470
  122OSM   H15G13012   1.859   4.353   8.616 -0.8784 -0.0632 -0.6295
  122OSM   C16F13013   1.752   4.178   8.590  0.3837 -0.3950 -0.1278
  122OSM   H16F13014   1.721   4.232   8.498 -0.3773 -1.8646 -0.7683
  122OSM   H16G13015   1.668   4.112   8.621 -0.3157  0.4088 -0.2677
  122OSM   C17F13016   1.861   4.081   8.549  0.1023  0.3280  0.2029
  122OSM   H17F13017   1.871   3.998   8.624 -3.8676 -0.5985 -0.0960
  122OSM   H17G13018   1.957   4.137   8.554 -0.6233  2.1219 -3.3075
  122OSM   C18F13019   1.826   4.010   8.416 -0.2871  0.2460 -1.1043
  122OSM   H18F13020   1.895   3.925   8.398 -1.9432 -1.5280  0.5249
  122OSM   H18G13021   1.847   4.081   8.333  1.1893  1.6910  0.4130
  122OSM   H18H13022   1.722   3.971   8.418  0.1574 -1.0003 -1.2545
  123OSM      N13023   0.261   2.095   5.809 -0.6431  0.0293  0.4103
  123OSM    C1513024   0.231   2.167   5.676  0.5557 -0.8565 -0.3457
  123OSM   H15A13025   0.312   2.166   5.604  0.6252  1.0562 -0.3545
  123OSM   H15B13026   0.198   2.264   5.709 -1.1483 -1.3953 -0.4000
  123OSM   H15C13027   0.148   2.120   5.627 -0.2745 -1.6467  1.6816
  123OSM    C1413028   0.261   1.948   5.768  0.8298  0.3745  0.7752
  123OSM   H14A13029   0.162   1.924   5.731  0.1292  1.7879  1.6270
  123OSM   H14B13030   0.276   1.894   5.861 -1.8278  1.0295  1.7015
  123OSM   H14C13031   0.344   1.918   5.707  1.0319  0.7655  0.8532
  123OSM    C1313032   0.397   2.136   5.853 -0.5295 -0.3169 -0.3712
  123OSM   H13A13033   0.421   2.242   5.856  1.3207 -0.6813 -1.0881
  123OSM   H13B13034   0.466   2.095   5.780 -1.8952 -3.3153 -0.0962
  123OSM   H13C13035   0.421   2.086   5.945  0.4334  1.4038  0.3548
  123OSM    C1213036   0.159   2.124   5.918  0.3152  0.9840 -0.7597
  123OSM   H12A13037   0.062   2.084   5.891 -0.1301  0.6770  1.1830
  123OSM   H12B13038   0.149   2.231   5.932 -1.7606  0.8365 -0.7732
  123OSM    C1113039   0.188   2.063   6.057 -0.1851 -0.6571  0.7706
  123OSM   H11A13040   0.106   2.097   6.124 -0.0776 -0.4104  0.7754
  123OSM   H11B13041   0.280   2.114   6.093  1.3648 -2.6715 -0.1206
  123OSM      P13042   0.278   1.831   6.146 -0.0896 -0.3141  0.1130
  123OSM    O1313043   0.217   1.697   6.160  0.2861  0.3871 -0.3556
  123OSM    O1413044   0.408   1.826   6.087 -0.3191  0.2733 -0.0766
  123OSM    O1113045   0.308   1.909   6.280  0.4572 -0.1546  0.0778
  123OSM    O1213046   0.179   1.924   6.059  0.0765 -0.4270  0.1267
  123OSM    C1S13047   0.206   1.895   6.380  0.1079  0.2896 -0.1091
  123OSM    H1S13048   0.212   1.790   6.414  3.1096  0.4676  0.1616
  123OSM    H1T13049   0.102   1.922   6.351  0.2168  0.8029 -0.0307
  123OSM     NF13050   0.184   1.917   6.626 -0.1587  0.1515 -0.4466
  123OSM    HNF13051   0.088   1.925   6.653 -0.4062  0.0453 -1.2881
  123OSM    C2S13052   0.240   1.980   6.507 -0.3806 -0.0512  0.0467
  123OSM    H2S13053   0.351   1.983   6.515 -0.4818 -0.3646  2.1495
  123OSM    C3S13054   0.189   2.131   6.492 -0.7557 -0.3545  0.0713
  123OSM    H3S13055   0.078   2.139   6.483 -0.5808  0.7620 -1.4545
  123OSM     O313056   0.247   2.207   6.380  0.3463  0.5599  0.9390
  123OSM    HO313057   0.288   2.138   6.327 -2.1297  0.7041 -1.3945
  123OSM    C4S13058   0.230   2.202   6.618  0.1812 -0.6135 -0.0672
  123OSM    H4S13059   0.330   2.181   6.658  0.8879  2.8875  0.3052
  123OSM    C5S13060   0.157   2.292   6.685  0.1578 -1.2034  0.0330
  123OSM    H5S13061   0.060   2.328   6.646  0.6119 -1.4918 -1.3925
  123OSM    C6S13062   0.208   2.373   6.802 -0.0559 -0.2576  0.5099
  123OSM    H6S13063   0.162   2.332   6.894  0.2623 -1.7163  0.0527
  123OSM    H6T13064   0.179   2.480   6.800 -0.5631 -0.3945  0.5493
  123OSM    C7S13065   0.362   2.361   6.837  0.2355  0.1407 -0.3130
  123OSM    H7S13066   0.421   2.389   6.747  1.6108 -0.7096  0.2788
  123OSM    H7T13067   0.396   2.257   6.852  1.7872  0.3873 -1.7261
  123OSM    C8S13068   0.418   2.436   6.965 -0.5411 -0.5544  0.3984
  123OSM    H8S13069   0.418   2.543   6.932  1.0019 -0.3926  0.8542
  123OSM    H8T13070   0.524   2.407   6.977 -0.2354  0.7958  1.1419
  123OSM    C9S13071   0.339   2.414   7.096 -0.0205  0.1333 -0.1859
  123OSM    H9S13072   0.322   2.304   7.091 -2.5276  0.5080 -2.3890
  123OSM    H9T13073   0.238   2.460   7.095 -0.5333 -0.8570  1.5085
  123OSM   C10S13074   0.433   2.454   7.219  0.2061  0.6740  0.2041
  123OSM   H10S13075   0.451   2.564   7.221  0.7546  0.5805  1.3842
  123OSM   H10T13076   0.534   2.409   7.206 -0.7406 -1.3122 -0.5830
  123OSM   C11S13077   0.374   2.410   7.350 -0.5237  0.6654 -0.4741
  123OSM   H11S13078   0.361   2.300   7.352 -1.9501  0.8201  1.3395
  123OSM   H11T13079   0.274   2.459   7.358 -0.5535  0.4767  0.3617
  123OSM   C12S13080   0.473   2.445   7.467  0.4908 -0.1322  0.5585
  123OSM   H12S13081   0.516   2.547   7.461 -1.2499  0.7166  1.6089
  123OSM   H12T13082   0.563   2.379   7.463 -0.7651 -1.8737 -0.4958
  123OSM   C13S13083   0.417   2.429   7.610 -0.5374  0.1458 -0.2188
  123OSM   H13S13084   0.385   2.323   7.606  1.6311 -0.5735  0.3630
  123OSM   H13T13085   0.336   2.505   7.619 -1.0432 -0.3631 -0.4065
  123OSM   C14S13086   0.518   2.451   7.723 -0.7262 -1.1841  0.0398
  123OSM   H14S13087   0.564   2.553   7.721  1.0184 -1.7652  3.2548
  123OSM   H14T13088   0.605   2.382   7.718 -1.0208 -1.5260 -0.3000
  123OSM   C15S13089   0.451   2.438   7.862  0.0520  0.1195  0.2348
  123OSM   H15S13090   0.407   2.336   7.870 -0.2341  0.1247 -1.1308
  123OSM   H15T13091   0.377   2.520   7.878  0.4044  0.3489  0.7168
  123OSM   C16S13092   0.559   2.445   7.972 -0.0495  0.4676  0.0787
  123OSM   H16S13093   0.631   2.524   7.939  1.4356 -1.5062 -1.6975
  123OSM   H16T13094   0.620   2.352   7.972 -0.3313  0.2759  0.6359
  123OSM   C17S13095   0.507   2.473   8.117  0.4362 -0.3451 -0.5919
  123OSM   H17S13096   0.474   2.579   8.118 -0.5682 -0.5196 -3.6048
  123OSM   H17T13097   0.595   2.466   8.183 -0.2650  2.4893  0.8156
  123OSM   C18S13098   0.389   2.389   8.159 -1.3225 -0.3019  0.0680
  123OSM   H18S13099   0.422   2.284   8.173  0.1708  0.0622 -0.5787
  123OSM   H18T13100   0.316   2.388   8.076 -1.3836 -0.3852  0.1223
  123OSM   H18U13101   0.339   2.424   8.253 -1.6282 -0.0991 -0.1690
  123OSM    C1F13102   0.237   1.804   6.673 -0.5417 -0.1742 -0.9294
  123OSM     OF13103   0.329   1.753   6.615 -0.2073 -0.0823 -0.1518
  123OSM    C2F13104   0.162   1.745   6.788 -0.6434 -0.2346 -0.5187
  123OSM    H2F13105   0.165   1.634   6.784  1.0301 -0.2228 -0.2141
  123OSM    H2G13106   0.056   1.777   6.775  0.1132  2.1030 -1.5085
  123OSM    C3F13107   0.214   1.782   6.925  0.6037  0.6926  0.1870
  123OSM    H3F13108   0.199   1.892   6.936  0.1363  0.4778  2.1061
  123OSM    H3G13109   0.316   1.745   6.946 -0.4701 -2.9630 -0.4577
  123OSM    C4F13110   0.117   1.727   7.037 -0.6809  0.1712  0.1206
  123OSM    H4F13111   0.108   1.616   7.024 -1.1308  0.3102 -0.9059
  123OSM    H4G13112   0.020   1.773   7.009 -0.5218  1.3781  1.4622
  123OSM    C5F13113   0.173   1.769   7.177 -0.2339  0.3083 -0.8207
  123OSM    H5F13114   0.165   1.879   7.167  2.4058  0.7991  1.2165
  123OSM    H5G13115   0.280   1.740   7.184 -0.5301 -1.2811 -2.2627
  123OSM    C6F13116   0.092   1.701   7.287  0.5686  0.1057  0.2455
  123OSM    H6F13117   0.090   1.592   7.268  2.2855  0.3021 -1.3715
  123OSM    H6G13118  -0.013   1.737   7.284  0.9806  1.5996 -4.5528
  123OSM    C7F13119   0.165   1.734   7.419 -0.2037  0.0696  0.1006
  123OSM    H7F13120   0.157   1.844   7.433 -3.1651 -0.1133  0.4271
  123OSM    H7G13121   0.270   1.699   7.419 -0.2278 -0.1997 -2.1355
  123OSM    C8F13122   0.093   1.676   7.537 -0.5160 -0.3696 -0.1598
  123OSM    H8F13123  -0.016   1.692   7.523 -0.5915 -1.5801 -1.0653
  123OSM    H8G13124   0.132   1.730   7.626  0.0142 -2.2536  0.8064
  123OSM    C9F13125   0.104   1.526   7.541 -0.8382  0.2682  0.0109
  123OSM    H9F13126   0.178   1.486   7.470 -0.6016 -1.6294  1.2387
  123OSM   C10F13127   0.038   1.459   7.633 -0.2737 -0.6538  0.3825
  123OSM   H10F13128   0.049   1.350   7.633  0.3282 -0.5940  0.2005
  123OSM   C11F13129  -0.061   1.523   7.728  0.9633  0.5205 -0.4967
  123OSM   H11F13130  -0.162   1.476   7.722  0.9667  0.3818  0.4757
  123OSM   H11G13131  -0.080   1.632   7.716  1.8020  0.6823 -0.3920
  123OSM   C12F13132  -0.007   1.514   7.868  0.4410 -0.2133 -0.6842
  123OSM   H12F13133   0.030   1.412   7.894  1.1641  0.4932  1.2566
  123OSM   H12G13134  -0.090   1.537   7.939 -0.3313 -3.4448 -0.3738
  123OSM   C13F13135   0.101   1.619   7.896 -0.8687  0.4742 -0.0644
  123OSM   H13F13136   0.050   1.717   7.889 -0.4773  0.6186 -1.1026
  123OSM   H13G13137   0.174   1.606   7.814 -3.2218 -0.4409 -2.1628
  123OSM   C14F13138   0.170   1.597   8.037  0.4185  0.2756  0.2282
  123OSM   H14F13139   0.258   1.665   8.040  1.0156 -0.4678 -0.2497
  123OSM   H14G13140   0.191   1.488   8.041 -2.2753 -0.3041  2.4920
  123OSM   C15F13141   0.071   1.637   8.149  0.3272  0.4280 -0.7977
  123OSM   H15F13142   0.002   1.550   8.157  4.1253 -3.0812 -2.5510
  123OSM   H15G13143   0.022   1.734   8.129 -1.9871 -1.0277 -2.7560
  123OSM   C16F13144   0.147   1.647   8.281 -0.1478  0.1722 -0.2186
  123OSM   H16F13145   0.167   1.756   8.292 -2.0874  0.3529  3.2936
  123OSM   H16G13146   0.246   1.597   8.283 -0.1292  0.2033 -0.4008
  123OSM   C17F13147   0.058   1.600   8.397 -0.3537 -0.5148 -0.1217
  123OSM   H17F13148   0.087   1.494   8.418  1.7241 -0.6049 -2.9252
  123OSM   H17G13149  -0.051   1.610   8.377 -0.3540 -3.3991 -2.3159
  123OSM   C18F13150   0.096   1.675   8.528  0.5995 -0.2881  0.1789
  123OSM   H18F13151   0.203   1.655   8.550  0.7996  0.1382 -0.3547
  123OSM   H18G13152   0.031   1.648   8.613  1.2256 -3.5906 -0.2822
  123OSM   H18H13153   0.091   1.785   8.509  1.0070 -0.2647  0.2095
  124OSM      N13154   3.878   6.262   6.685  0.1313  0.2360  0.6969
  124OSM    C1513155   3.978   6.369   6.652  0.0932 -0.0724 -0.3481
  124OSM   H15A13156   3.934   6.459   6.611  1.1661  0.5673 -0.1416
  124OSM   H15B13157   4.056   6.334   6.587  1.3941  0.1744  1.0169
  124OSM   H15C13158   4.029   6.406   6.740  1.1683 -0.9993 -0.5601
  124OSM    C1413159   3.824   6.196   6.559 -0.2055  0.1934  0.0705
  124OSM   H14A13160   3.745   6.123   6.567 -0.5518  0.6597  1.1427
  124OSM   H14B13161   3.908   6.144   6.516  0.9775  0.4865  1.9382
  124OSM   H14C13162   3.786   6.268   6.488 -1.4974  0.1372  0.6808
  124OSM    C1313163   3.947   6.146   6.750 -0.0219  0.4515 -0.1384
  124OSM   H13A13164   4.029   6.111   6.691 -0.9941 -0.4558 -0.9854
  124OSM   H13B13165   3.883   6.063   6.774 -1.2299  1.4435  0.2018
  124OSM   H13C13166   3.990   6.168   6.847 -1.5245  0.6053  0.5378
  124OSM    C1213167   3.762   6.305   6.776  0.2758 -0.6508 -0.8411
  124OSM   H12A13168   3.803   6.335   6.872 -0.1242 -2.7190  0.0157
  124OSM   H12B13169   3.691   6.226   6.791  0.3857 -0.6601 -0.3651
  124OSM    C1113170   3.667   6.422   6.725  0.3639  0.7471 -0.9290
  124OSM   H11A13171   3.745   6.500   6.714  0.3697  0.6706 -1.4405
  124OSM   H11B13172   3.603   6.444   6.813  0.5501  0.0429 -0.6101
  124OSM      P13173   3.483   6.304   6.577 -0.5279  0.2261  0.2942
  124OSM    O1313174   3.372   6.383   6.515  0.3785 -0.2296  0.1111
  124OSM    O1413175   3.512   6.180   6.510  0.0474  0.0849  0.3424
  124OSM    O1113176   3.433   6.263   6.722 -0.0537  0.0264 -0.2662
  124OSM    O1213177   3.609   6.390   6.604 -0.2923 -0.1827  0.3552
  124OSM    C1S13178   3.470   6.148   6.794  0.5629 -0.0389  0.4707
  124OSM    H1S13179   3.563   6.110   6.746  0.6879 -2.1325  2.2256
  124OSM    H1T13180   3.401   6.063   6.772 -0.2038  0.8409 -0.6374
  124OSM     NF13181   3.528   6.048   7.012 -0.0559  0.6026  0.7885
  124OSM    HNF13182   3.459   5.999   7.065 -0.5469 -1.4186 -1.5708
  124OSM    C2S13183   3.482   6.165   6.943  0.8398 -0.2359 -0.1553
  124OSM    H2S13184   3.548   6.249   6.972 -1.6485  0.9593  2.5414
  124OSM    C3S13185   3.346   6.219   6.994 -0.0589  0.4282 -0.5531
  124OSM    H3S13186   3.270   6.149   6.955  1.0965 -1.5243  0.5812
  124OSM     O313187   3.305   6.356   6.966  0.3078  0.3646  0.5920
  124OSM    HO313188   3.346   6.376   6.882 -0.0248 -0.8045  0.1375
  124OSM    C4S13189   3.347   6.210   7.149  0.3312 -0.2718  0.4661
  124OSM    H4S13190   3.426   6.264   7.203 -0.8362 -0.6540  2.6677
  124OSM    C5S13191   3.265   6.130   7.223 -0.1249 -0.4773  0.2713
  124OSM    H5S13192   3.185   6.081   7.167 -1.2646  0.6898  0.8176
  124OSM    C6S13193   3.254   6.121   7.369 -0.3511  0.1945  0.5730
  124OSM    H6S13194   3.253   6.015   7.403  2.4991  0.2287  1.0027
  124OSM    H6T13195   3.158   6.166   7.403 -0.5226 -1.2948  2.1879
  124OSM    C7S13196   3.380   6.173   7.440  0.5879 -0.0169  0.0980
  124OSM    H7S13197   3.382   6.283   7.423  0.9903  0.5223  3.0494
  124OSM    H7T13198   3.462   6.134   7.377  0.4292 -0.0794 -0.0691
  124OSM    C8S13199   3.408   6.131   7.584 -0.1686  0.1811 -0.2998
  124OSM    H8S13200   3.501   6.176   7.626 -1.9702  1.9234  2.1081
  124OSM    H8T13201   3.423   6.022   7.595  1.8609 -0.0051 -3.5859
  124OSM    C9S13202   3.297   6.170   7.687  0.1419  0.1023 -0.0501
  124OSM    H9S13203   3.203   6.118   7.659 -0.0023 -0.7452  1.8427
  124OSM    H9T13204   3.275   6.279   7.674  1.1179  0.4070  0.7093
  124OSM   C10S13205   3.323   6.155   7.831 -0.8451  0.2059  0.1271
  124OSM   H10S13206   3.415   6.213   7.852 -0.6848 -0.6333  1.8525
  124OSM   H10T13207   3.350   6.048   7.841  1.0153  0.4639 -1.5021
  124OSM   C11S13208   3.201   6.196   7.924 -0.6526 -0.7530 -0.2864
  124OSM   H11S13209   3.105   6.160   7.880 -1.2928  1.2430 -0.6255
  124OSM   H11T13210   3.196   6.306   7.938  0.8421 -0.7261  0.2211
  124OSM   C12S13211   3.223   6.147   8.065 -0.1403  0.2687  0.5780
  124OSM   H12S13212   3.244   6.039   8.049  0.1926  0.4251 -0.1147
  124OSM   H12T13213   3.121   6.161   8.106 -0.2256 -0.0403  0.4695
  124OSM   C13S13214   3.336   6.220   8.142 -0.3876  0.0866  0.5915
  124OSM   H13S13215   3.318   6.329   8.159 -1.1990 -0.2874  2.3414
  124OSM   H13T13216   3.427   6.212   8.079  0.1268 -2.3827  1.5300
  124OSM   C14S13217   3.382   6.138   8.272 -0.4331 -0.6883  0.0497
  124OSM   H14S13218   3.394   6.033   8.239  0.4431  0.2118 -2.8194
  124OSM   H14T13219   3.299   6.153   8.344 -1.3635  1.6600 -1.4103
  124OSM   C15S13220   3.506   6.187   8.346  0.5519 -0.3272 -0.0314
  124OSM   H15S13221   3.585   6.187   8.268 -0.3601 -1.0593 -0.9811
  124OSM   H15T13222   3.532   6.107   8.418  2.3596 -0.0360 -0.3208
  124OSM   C16S13223   3.510   6.327   8.406  0.1042  0.6111 -0.1364
  124OSM   H16S13224   3.467   6.393   8.327 -0.1489  1.1207  0.4205
  124OSM   H16T13225   3.614   6.358   8.429  0.6492  1.6757 -3.5192
  124OSM   C17S13226   3.425   6.340   8.533  1.0917  0.0192 -0.2793
  124OSM   H17S13227   3.456   6.261   8.604 -0.4504 -0.3588  0.0117
  124OSM   H17T13228   3.327   6.306   8.494  1.7262 -1.1658 -0.8953
  124OSM   C18S13229   3.421   6.475   8.607  0.0680  0.2840  0.0320
  124OSM   H18S13230   3.321   6.478   8.655  0.4830 -3.1317  1.4073
  124OSM   H18T13231   3.432   6.553   8.528  1.3951  0.3775  0.2754
  124OSM   H18U13232   3.502   6.489   8.683 -0.5719 -0.9586  0.9869
  124OSM    C1F13233   3.647   6.003   6.996  0.1678 -0.0452  0.2123
  124OSM     OF13234   3.714   6.028   6.898 -0.7820  0.1042  0.1261
  124OSM    C2F13235   3.692   5.897   7.089  0.0353  0.0007  0.4254
  124OSM    H2F13236   3.775   5.935   7.154  0.8789  0.3356 -0.8181
  124OSM    H2G13237   3.731   5.815   7.024  2.4718  2.2174 -1.0955
  124OSM    C3F13238   3.576   5.852   7.189 -0.1280 -0.0698 -0.5064
  124OSM    H3F13239   3.488   5.816   7.130 -1.8154  3.1766 -0.2305
  124OSM    H3G13240   3.537   5.938   7.248 -0.7722 -0.9748  0.4253
  124OSM    C4F13241   3.630   5.735   7.280 -0.6548 -0.4530  0.4196
  124OSM    H4F13242   3.711   5.789   7.334 -0.7821 -1.9755  2.2627
  124OSM    H4G13243   3.665   5.653   7.213 -1.6650  0.6316 -1.5419
  124OSM    C5F13244   3.538   5.674   7.388 -0.4117 -0.4918  0.7780
  124OSM    H5F13245   3.587   5.595   7.449 -1.6409 -0.5779  1.6973
  124OSM    H5G13246   3.446   5.629   7.344 -0.0562  1.1582 -1.8700
  124OSM    C6F13247   3.499   5.777   7.507 -0.5198 -0.0059  0.1996
  124OSM    H6F13248   3.395   5.810   7.487 -1.4458 -3.0586 -0.4223
  124OSM    H6G13249   3.578   5.855   7.516  0.1618 -0.9145  3.2268
  124OSM    C7F13250   3.508   5.713   7.651 -0.5700 -0.3195 -0.1142
  124OSM    H7F13251   3.519   5.794   7.726  2.4038 -0.0993 -0.6585
  124OSM    H7G13252   3.607   5.663   7.658  1.7264  3.3208 -2.5105
  124OSM    C8F13253   3.393   5.620   7.679  0.7549 -0.4367  0.2733
  124OSM    H8F13254   3.419   5.560   7.769 -2.5129  1.3343  2.5816
  124OSM    H8G13255   3.380   5.556   7.589  1.7207  1.5147 -1.3333
  124OSM    C9F13256   3.268   5.705   7.719 -0.4937 -0.1861  0.4702
  124OSM    H9F13257   3.199   5.724   7.635  0.1699 -0.1120 -0.0707
  124OSM   C10F13258   3.236   5.766   7.837  0.7656  1.0556 -0.4241
  124OSM   H10F13259   3.136   5.808   7.851 -0.1397 -0.6919 -1.2388
  124OSM   C11F13260   3.318   5.757   7.959  0.4847 -0.6941  0.1747
  124OSM   H11F13261   3.361   5.856   7.986 -1.0906  0.1260 -0.2456
  124OSM   H11G13262   3.417   5.707   7.947  1.3300  0.6190  1.2923
  124OSM   C12F13263   3.250   5.684   8.078  0.5888 -0.2484  0.6935
  124OSM   H12F13264   3.197   5.598   8.031  0.6529  0.5767 -0.9323
  124OSM   H12G13265   3.164   5.742   8.117 -0.2754 -1.4009  0.5788
  124OSM   C13F13266   3.343   5.646   8.198 -0.0964  0.0818 -0.6680
  124OSM   H13F13267   3.403   5.734   8.230 -0.7033 -0.3242  1.7972
  124OSM   H13G13268   3.417   5.580   8.148 -1.6446 -2.0203 -0.3035
  124OSM   C14F13269   3.278   5.577   8.313  0.7245 -0.6959 -0.0713
  124OSM   H14F13270   3.190   5.526   8.268  0.1604  0.1874  0.0123
  124OSM   H14G13271   3.236   5.645   8.391  1.9907  2.4789 -1.9596
  124OSM   C15F13272   3.359   5.454   8.372  0.3599  0.0935  0.1956
  124OSM   H15F13273   3.449   5.504   8.413 -0.4988  2.4972 -0.6674
  124OSM   H15G13274   3.389   5.395   8.283  0.8779  0.5236  0.0826
  124OSM   C16F13275   3.276   5.366   8.473 -0.3361  0.8525 -0.6618
  124OSM   H16F13276   3.182   5.331   8.427  0.6925  0.9369 -2.9337
  124OSM   H16G13277   3.248   5.430   8.560 -2.9538  0.6317 -1.2596
  124OSM   C17F13278   3.362   5.249   8.515 -0.0076 -0.5757  0.3000
  124OSM   H17F13279   3.465   5.283   8.539 -0.0522 -1.3520  1.6532
  124OSM   H17G13280   3.377   5.179   8.430 -0.5191  0.7837 -0.9521
  124OSM   C18F13281   3.311   5.170   8.634 -0.1660 -0.2986 -0.0845
  124OSM   H18F13282   3.289   5.244   8.713  1.5644 -0.3328  0.4579
  124OSM   H18G13283   3.384   5.110   8.692 -1.3080  0.9469  2.8821
  124OSM   H18H13284   3.223   5.103   8.619  0.9254 -1.9801  0.6965
  125OSM      N13285   1.686   0.724   6.431 -0.3966  0.0985  0.1546
  125OSM    C1513286   1.600   0.826   6.370  0.5239  0.7736 -0.3900
  125OSM   H15A13287   1.646   0.866   6.281 -0.0320  0.9890 -0.5865
  125OSM   H15B13288   1.575   0.911   6.431 -0.1458  0.0732  0.3471
  125OSM   H15C13289   1.502   0.790   6.341  0.0771  0.1865  1.7061
  125OSM    C1413290   1.692   0.605   6.328  0.0852 -0.6623  0.0028
  125OSM   H14A13291   1.589   0.588   6.301 -0.3993  2.0730 -0.1481
  125OSM   H14B13292   1.746   0.519   6.365  0.0816 -0.1809  1.1686
  125OSM   H14C13293   1.744   0.641   6.240 -1.6986  0.0538 -0.8136
  125OSM    C1313294   1.818   0.784   6.466  0.2400 -0.1762  0.0730
  125OSM   H13A13295   1.848   0.868   6.406 -2.3409  0.1931 -0.8168
  125OSM   H13B13296   1.898   0.711   6.455  2.0293  1.2138  2.8252
  125OSM   H13C13297   1.811   0.822   6.566 -1.0520  0.7285 -0.3379
  125OSM    C1213298   1.620   0.685   6.560  0.0689 -0.4781  0.1434
  125OSM   H12A13299   1.525   0.635   6.548 -0.3635  0.5984 -1.0713
  125OSM   H12B13300   1.614   0.771   6.625  1.8341 -1.7950  2.1962
  125OSM    C1113301   1.706   0.579   6.643  0.2164 -0.2917 -0.4214
  125OSM   H11A13302   1.647   0.551   6.733 -1.9755  0.9999 -1.3550
  125OSM   H11B13303   1.799   0.624   6.684 -1.3400  1.4301  1.4242
  125OSM      P13304   1.682   0.316   6.594 -0.1195 -0.1068 -0.1654
  125OSM    O1313305   1.536   0.325   6.561 -0.4634 -0.4927 -0.2596
  125OSM    O1413306   1.762   0.225   6.509 -0.1834  0.4480  0.4646
  125OSM    O1113307   1.708   0.296   6.756  0.6503  0.1373 -0.0632
  125OSM    O1213308   1.743   0.459   6.570 -0.2590 -0.0325  0.3488
  125OSM    C1S13309   1.845   0.295   6.811  0.5432 -0.2738 -0.2226
  125OSM    H1S13310   1.905   0.356   6.740 -0.5736  0.9074 -0.2084
  125OSM    H1T13311   1.882   0.192   6.829  0.7393  0.1174  1.8146
  125OSM     NF13312   1.988   0.374   6.999  0.5605  0.1139  0.4216
  125OSM    HNF13313   2.019   0.301   7.060  0.6453  0.6644  1.0512
  125OSM    C2S13314   1.845   0.364   6.954 -0.2054  0.0073  0.0194
  125OSM    H2S13315   1.806   0.464   6.924  2.9189  2.0424  2.1580
  125OSM    C3S13316   1.753   0.293   7.050 -0.6290 -0.7325 -0.2282
  125OSM    H3S13317   1.789   0.188   7.056  0.1069 -0.4722 -0.0313
  125OSM     O313318   1.622   0.284   6.989  0.2688  0.3756 -0.3741
  125OSM    HO313319   1.641   0.317   6.900  0.2910 -2.4529 -1.5191
  125OSM    C4S13320   1.744   0.366   7.182 -0.2890  0.8332 -0.0118
  125OSM    H4S13321   1.676   0.453   7.187 -1.7526 -0.3016  0.4215
  125OSM    C5S13322   1.797   0.325   7.300  0.2228  0.1807  0.5306
  125OSM    H5S13323   1.854   0.231   7.309  0.8184  0.5389  0.4757
  125OSM    C6S13324   1.781   0.392   7.436 -0.6175  0.0166 -0.0925
  125OSM    H6S13325   1.753   0.499   7.425  1.3719  0.3552 -2.9826
  125OSM    H6T13326   1.879   0.390   7.487  0.3295  1.1043 -1.7865
  125OSM    C7S13327   1.666   0.320   7.507 -0.4020  0.0700  0.6955
  125OSM    H7S13328   1.688   0.213   7.523  2.0558  0.4821  0.4875
  125OSM    H7T13329   1.581   0.340   7.439 -1.4480 -1.8988  1.3513
  125OSM    C8S13330   1.633   0.397   7.634  0.6955  0.7405  0.8733
  125OSM    H8S13331   1.534   0.366   7.674  0.6802 -0.7779 -0.2702
  125OSM    H8T13332   1.627   0.508   7.626 -0.3917  0.6234 -0.3134
  125OSM    C9S13333   1.730   0.357   7.743  0.3755  0.2271 -0.3209
  125OSM    H9S13334   1.827   0.408   7.724  1.3319 -0.9946  1.0015
  125OSM    H9T13335   1.750   0.247   7.744  0.3243  0.2200  0.2377
  125OSM   C10S13336   1.697   0.383   7.894  0.8897 -0.4844  0.0247
  125OSM   H10S13337   1.598   0.337   7.915  1.2887 -1.2671  0.2515
  125OSM   H10T13338   1.693   0.492   7.915 -3.6308 -0.5013  0.3415
  125OSM   C11S13339   1.788   0.308   7.990 -0.4298  0.3052  0.5315
  125OSM   H11S13340   1.893   0.334   7.965 -0.3843 -0.7502 -0.4851
  125OSM   H11T13341   1.769   0.199   7.977 -5.5423  1.0147  0.3100
  125OSM   C12S13342   1.774   0.350   8.135  0.1003  1.3503 -0.1297
  125OSM   H12S13343   1.819   0.272   8.201  0.8569  1.5900 -0.3547
  125OSM   H12T13344   1.666   0.353   8.159  0.0806 -1.5750  0.5622
  125OSM   C13S13345   1.852   0.475   8.168  0.2328  0.4841 -0.1876
  125OSM   H13S13346   1.820   0.566   8.114 -0.3013 -0.0467 -0.7899
  125OSM   H13T13347   1.957   0.449   8.142  0.2809 -1.4422  1.6133
  125OSM   C14S13348   1.853   0.508   8.318  0.4550  0.5750 -0.0411
  125OSM   H14S13349   1.756   0.561   8.329  0.6086  1.1516 -1.2734
  125OSM   H14T13350   1.937   0.581   8.320  0.3558  0.9356 -3.2037
  125OSM   C15S13351   1.887   0.395   8.410  0.3861  0.2808  0.0087
  125OSM   H15S13352   1.984   0.345   8.388  0.5025  1.7753 -3.4802
  125OSM   H15T13353   1.817   0.310   8.397  0.8925  0.2387 -3.1925
  125OSM   C16S13354   1.875   0.439   8.553  0.1772  1.4592  0.2180
  125OSM   H16S13355   1.937   0.529   8.574 -0.9366  2.0244  1.2297
  125OSM   H16T13356   1.914   0.355   8.615 -0.8073 -1.4689 -2.8262
  125OSM   C17S13357   1.730   0.457   8.601  0.0670 -0.9387 -0.1510
  125OSM   H17S13358   1.668   0.365   8.613 -1.0729 -0.0562  0.9473
  125OSM   H17T13359   1.664   0.516   8.534  2.3157  1.9972  0.0449
  125OSM   C18S13360   1.731   0.536   8.737  0.6399 -0.1241 -0.0617
  125OSM   H18S13361   1.774   0.472   8.816  1.1099  2.4434  1.8816
  125OSM   H18T13362   1.626   0.565   8.763  0.0712 -0.8664 -1.4237
  125OSM   H18U13363   1.801   0.621   8.720  0.2603  0.1346 -0.3822
  125OSM    C1F13364   2.067   0.461   6.928 -0.0999 -0.0625 -0.5131
  125OSM     OF13365   2.020   0.558   6.866  0.1506 -0.4026  0.2876
  125OSM    C2F13366   2.217   0.419   6.921  0.6228 -0.2952  0.5483
  125OSM    H2F13367   2.217   0.372   6.821 -1.2102  0.2625  0.2598
  125OSM    H2G13368   2.246   0.347   7.001  1.6922 -1.2327 -0.6477
  125OSM    C3F13369   2.305   0.546   6.940  0.1942 -0.1931  0.1382
  125OSM    H3F13370   2.280   0.580   7.043 -1.7445 -0.2975 -0.2652
  125OSM    H3G13371   2.274   0.633   6.877 -3.9178 -0.4806  1.4467
  125OSM    C4F13372   2.457   0.534   6.931 -0.5709  0.4161  0.1601
  125OSM    H4F13373   2.482   0.487   6.833  1.8963  0.4104  0.7272
  125OSM    H4G13374   2.495   0.471   7.015  0.9538 -0.5596 -1.1954
  125OSM    C5F13375   2.533   0.667   6.945  0.5887  0.0318  0.1360
  125OSM    H5F13376   2.506   0.727   6.855 -0.2687  0.9018  0.9514
  125OSM    H5G13377   2.642   0.646   6.941  1.1365  2.4823  0.4806
  125OSM    C6F13378   2.496   0.738   7.074  0.6535 -0.0405 -0.8369
  125OSM    H6F13379   2.394   0.782   7.067  0.4625 -0.1574  0.8356
  125OSM    H6G13380   2.561   0.824   7.101  2.2576 -1.6028  0.5206
  125OSM    C7F13381   2.501   0.651   7.197  0.1908 -0.4503 -0.0306
  125OSM    H7F13382   2.597   0.596   7.195  0.2391 -0.4492 -2.8808
  125OSM    H7G13383   2.418   0.578   7.195  0.6686 -0.9832 -0.8590
  125OSM    C8F13384   2.515   0.720   7.340  0.1384 -0.7430 -0.1492
  125OSM    H8F13385   2.603   0.786   7.357 -0.1109 -0.5172  0.2663
  125OSM    H8G13386   2.531   0.632   7.406  0.5473 -2.2632 -2.1981
  125OSM    C9F13387   2.385   0.791   7.383  0.2772 -0.8769 -0.1341
  125OSM    H9F13388   2.309   0.796   7.303  0.7012 -0.4943 -0.5135
  125OSM   C10F13389   2.344   0.828   7.505 -0.7568 -0.3076  0.0251
  125OSM   H10F13390   2.245   0.875   7.516 -1.4680 -1.6992 -0.1792
  125OSM   C11F13391   2.424   0.813   7.630  0.0574  0.0306 -0.3929
  125OSM   H11F13392   2.471   0.910   7.657 -1.0961  1.4471 -3.0489
  125OSM   H11G13393   2.505   0.737   7.618 -1.8385 -1.7008 -4.5099
  125OSM   C12F13394   2.334   0.753   7.735  0.2407 -0.0935 -0.1233
  125OSM   H12F13395   2.275   0.669   7.693 -1.5933  0.9577  0.1918
  125OSM   H12G13396   2.269   0.832   7.781  3.1316  0.7160  2.9505
  125OSM   C13F13397   2.404   0.692   7.853  0.1184  0.6549  0.9337
  125OSM   H13F13398   2.486   0.758   7.890  1.1343  0.0955 -0.2569
  125OSM   H13G13399   2.449   0.596   7.821 -1.6705  0.8770 -2.6962
  125OSM   C14F13400   2.314   0.658   7.975  0.2462 -0.3196 -0.0213
  125OSM   H14F13401   2.253   0.567   7.956 -1.9346  1.1971 -0.6630
  125OSM   H14G13402   2.239   0.739   7.979 -0.8833 -0.9761 -3.8248
  125OSM   C15F13403   2.382   0.677   8.120  0.0363 -0.6421 -0.3929
  125OSM   H15F13404   2.430   0.777   8.124  2.2948 -1.6923  0.2827
  125OSM   H15G13405   2.466   0.606   8.137 -0.9691 -1.4284  1.7171
  125OSM   C16F13406   2.269   0.658   8.228 -0.2990  0.5546 -0.0260
  125OSM   H16F13407   2.236   0.555   8.203  0.4146  0.7913 -2.1187
  125OSM   H16G13408   2.183   0.728   8.216 -0.6433 -0.0690 -1.3523
  125OSM   C17F13409   2.325   0.658   8.366  0.3490 -0.6722 -0.0309
  125OSM   H17F13410   2.384   0.750   8.387 -0.2488 -0.3969  0.4703
  125OSM   H17G13411   2.400   0.578   8.379  0.0305 -0.8721  0.6254
  125OSM   C18F13412   2.217   0.645   8.479 -0.5723 -0.0816  1.1824
  125OSM   H18F13413   2.165   0.547   8.485 -1.7745  0.3068 -1.3924
  125OSM   H18G13414   2.128   0.710   8.466  0.2540  1.1112  1.3665
  125OSM   H18H13415   2.272   0.662   8.574  1.0193  1.6529  0.0143
  126OSM      N13416   6.603   0.492   6.451  0.8373  0.5754 -0.1271
  126OSM    C1513417   6.499   0.383   6.423  1.1401  0.0921 -0.2126
  126OSM   H15A13418   6.419   0.379   6.495 -0.1041 -1.9826 -1.5802
  126OSM   H15B13419   6.539   0.283   6.420 -1.4473 -1.0124 -0.2258
  126OSM   H15C13420   6.457   0.401   6.325 -0.7939  0.2235  0.6042
  126OSM    C1413421   6.697   0.493   6.334 -0.1339  0.2276  0.2645
  126OSM   H14A13422   6.756   0.582   6.348  0.0939  0.0971  0.1377
  126OSM   H14B13423   6.651   0.499   6.237  1.6252 -1.0311 -0.7039
  126OSM   H14C13424   6.764   0.408   6.332 -1.0198 -0.4843 -1.0298
  126OSM    C1313425   6.514   0.610   6.444  0.4281 -0.1470 -0.3393
  126OSM   H13A13426   6.461   0.637   6.354  0.9300  1.1890 -0.2549
  126OSM   H13B13427   6.578   0.696   6.455 -0.5699  0.4030  1.6211
  126OSM   H13C13428   6.445   0.606   6.527 -0.5798 -1.9685 -1.2033
  126OSM    C1213429   6.663   0.493   6.589 -0.0621 -0.7297 -0.0936
  126OSM   H12A13430   6.586   0.484   6.663  0.9324  2.7229  1.5827
  126OSM   H12B13431   6.703   0.593   6.605 -1.3840 -0.3980  1.2878
  126OSM    C1113432   6.777   0.400   6.613 -0.1765  0.7720  0.0249
  126OSM   H11A13433   6.754   0.309   6.554 -0.1711  1.6016 -1.2901
  126OSM   H11B13434   6.792   0.368   6.718 -1.6772  1.6191  0.5351
  126OSM      P13435   6.947   0.595   6.612  0.0663 -0.4792  0.1599
  126OSM    O1313436   7.097   0.590   6.609  0.0225 -0.3273 -0.5831
  126OSM    O1413437   6.868   0.706   6.557 -0.3253 -0.9634 -0.0577
  126OSM    O1113438   6.913   0.576   6.762 -0.4928 -0.6307  0.0551
  126OSM    O1213439   6.897   0.452   6.559  0.0520  0.0501 -0.2453
  126OSM    C1S13440   6.868   0.687   6.843  0.8289 -0.2235  0.1060
  126OSM    H1S13441   6.763   0.706   6.814  0.4566 -0.9874  0.9305
  126OSM    H1T13442   6.923   0.782   6.823  1.3922 -0.5409  0.1241
  126OSM     NF13443   6.811   0.767   7.062  0.2539  0.5051  1.0016
  126OSM    HNF13444   6.863   0.832   7.115 -0.7439  1.8819  0.3602
  126OSM    C2S13445   6.879   0.660   6.992 -0.5334 -0.1444  0.3589
  126OSM    H2S13446   6.821   0.571   7.022 -3.7057  1.3985 -0.7385
  126OSM    C3S13447   7.031   0.638   7.030  0.5189  0.0434 -0.0263
  126OSM    H3S13448   7.071   0.741   7.044 -0.1198  0.4233 -0.8489
  126OSM     O313449   7.105   0.552   6.945  0.3190  0.0988  0.3038
  126OSM    HO313450   7.046   0.545   6.869  1.7185  1.0786 -0.9158
  126OSM    C4S13451   7.022   0.587   7.176  0.8934 -0.9945  0.6338
  126OSM    H4S13452   7.031   0.671   7.246 -0.5634  1.6636 -2.1182
  126OSM    C5S13453   7.012   0.457   7.217 -0.7509 -0.9421 -0.4059
  126OSM    H5S13454   7.004   0.375   7.144  0.2441 -2.7851  1.4510
  126OSM    C6S13455   7.018   0.405   7.358 -0.4500  0.5410  0.6931
  126OSM    H6S13456   7.113   0.349   7.368  0.2044  1.2214 -1.3241
  126OSM    H6T13457   6.937   0.330   7.372  0.1595  0.0777  1.9226
  126OSM    C7S13458   6.991   0.518   7.464 -0.4931 -0.4003  0.3206
  126OSM    H7S13459   6.889   0.560   7.457 -0.2314  0.0351 -1.1961
  126OSM    H7T13460   7.069   0.595   7.449 -0.3842 -0.9558 -2.6317
  126OSM    C8S13461   7.001   0.471   7.606  0.1804  0.0185  0.0177
  126OSM    H8S13462   7.109   0.447   7.617  0.5871  0.1046 -2.8866
  126OSM    H8T13463   6.929   0.388   7.617 -0.3108  0.6072  1.4244
  126OSM    C9S13464   6.961   0.564   7.726 -0.0136  0.0438 -0.0835
  126OSM    H9S13465   6.857   0.601   7.715 -0.4248 -1.3666 -1.2605
  126OSM    H9T13466   7.017   0.660   7.727  0.3202 -0.1495 -0.2856
  126OSM   C10S13467   6.971   0.496   7.861 -0.7029  0.0274  0.2723
  126OSM   H10S13468   7.067   0.443   7.878 -1.6109 -1.4506  1.0141
  126OSM   H10T13469   6.900   0.411   7.856 -1.9030  0.9390  0.9804
  126OSM   C11S13470   6.951   0.575   7.989  0.1249 -1.2517 -0.1791
  126OSM   H11S13471   6.855   0.630   7.973  1.3167  0.4556 -2.0194
  126OSM   H11T13472   7.035   0.647   8.003 -1.6492  0.7457  0.7103
  126OSM   C12S13473   6.935   0.496   8.116 -0.2379  0.2912 -0.4839
  126OSM   H12S13474   7.025   0.432   8.130 -0.4942  0.2135  0.9143
  126OSM   H12T13475   6.854   0.420   8.122  1.7754 -2.1266 -1.7887
  126OSM   C13S13476   6.931   0.596   8.235  0.5377  0.8375  0.0907
  126OSM   H13S13477   6.875   0.685   8.201 -0.1467 -0.1115 -1.3649
  126OSM   H13T13478   7.026   0.648   8.255  0.9692 -0.2282  0.9772
  126OSM   C14S13479   6.860   0.535   8.366 -0.7518 -0.2231 -1.0281
  126OSM   H14S13480   6.916   0.447   8.403 -0.1246  0.4882 -0.2524
  126OSM   H14T13481   6.766   0.496   8.323 -1.2381  0.8869 -1.0060
  126OSM   C15S13482   6.880   0.630   8.479  0.3327  0.2042 -0.2846
  126OSM   H15S13483   6.842   0.730   8.451 -1.7547 -0.4417  0.0757
  126OSM   H15T13484   6.986   0.639   8.511 -0.2594 -1.3912  2.4392
  126OSM   C16S13485   6.801   0.599   8.604 -0.1433 -0.0924 -0.0333
  126OSM   H16S13486   6.693   0.600   8.578 -0.1221  2.6574 -0.3462
  126OSM   H16T13487   6.819   0.687   8.671 -0.9705 -0.9902  1.4240
  126OSM   C17S13488   6.849   0.473   8.681  0.2690 -0.3228 -0.0300
  126OSM   H17S13489   6.957   0.474   8.658  0.2224  0.7678 -0.2111
  126OSM   H17T13490   6.803   0.378   8.644  0.9860 -0.4189 -0.6913
  126OSM   C18S13491   6.826   0.476   8.836  0.0437 -0.3554 -0.5810
  126OSM   H18S13492   6.868   0.386   8.885  1.1993  1.0346  1.0901
  126OSM   H18T13493   6.718   0.483   8.860  0.2947 -2.0851  1.2942
  126OSM   H18U13494   6.886   0.560   8.877 -0.6400 -1.7603  3.6944
  126OSM    C1F13495   6.681   0.787   7.042 -0.6453 -0.3378  0.5152
  126OSM     OF13496   6.607   0.699   6.996 -0.5168  0.1214  0.3750
  126OSM    C2F13497   6.632   0.920   7.081  0.5358  0.1202  0.8408
  126OSM    H2F13498   6.656   0.993   7.000 -1.7983  1.5431  1.3367
  126OSM    H2G13499   6.679   0.950   7.177 -0.5313  1.2499  1.0312
  126OSM    C3F13500   6.474   0.917   7.104 -0.0370  0.0795  0.7996
  126OSM    H3F13501   6.451   0.870   7.202  2.6189 -2.7862  0.2154
  126OSM    H3G13502   6.414   0.868   7.024  1.7844  1.4985 -1.5616
  126OSM    C4F13503   6.413   1.062   7.118 -0.7204 -0.1710 -0.0362
  126OSM    H4F13504   6.303   1.064   7.125 -0.6530 -0.5542  1.5411
  126OSM    H4G13505   6.439   1.109   7.021 -0.5586  1.4922  0.7794
  126OSM    C5F13506   6.481   1.154   7.223 -0.4924  0.3854 -0.0251
  126OSM    H5F13507   6.431   1.252   7.214 -1.1456  0.2796  2.0031
  126OSM    H5G13508   6.592   1.155   7.230 -0.5221 -0.6869  1.1698
  126OSM    C6F13509   6.456   1.100   7.361 -0.4401 -0.4347  0.6172
  126OSM    H6F13510   6.512   1.006   7.378  1.4800  0.4862 -0.2446
  126OSM    H6G13511   6.349   1.070   7.371 -1.2277  2.4205  1.8366
  126OSM    C7F13512   6.495   1.192   7.477  0.1415 -0.0038 -0.0856
  126OSM    H7F13513   6.456   1.293   7.453 -1.7523 -1.0837 -1.8709
  126OSM    H7G13514   6.605   1.198   7.485  0.2183 -1.7849  0.8699
  126OSM    C8F13515   6.434   1.145   7.611  0.8160  0.0238 -0.4084
  126OSM    H8F13516   6.492   1.058   7.649  0.8556 -0.2100 -0.9993
  126OSM    H8G13517   6.334   1.103   7.587 -0.2587  1.2445  1.6602
  126OSM    C9F13518   6.423   1.258   7.702  0.0566  0.2569 -0.2476
  126OSM    H9F13519   6.412   1.358   7.658  1.3320  1.4557  1.9699
  126OSM   C10F13520   6.440   1.250   7.839  0.7873 -0.7681 -0.2162
  126OSM   H10F13521   6.438   1.346   7.894 -0.6950 -0.1297 -1.3016
  126OSM   C11F13522   6.461   1.131   7.923 -0.1549 -1.1733  0.3088
  126OSM   H11F13523   6.546   1.078   7.874  2.6778  1.6019  1.8140
  126OSM   H11G13524   6.365   1.077   7.935 -0.6759 -0.1956  0.7326
  126OSM   C12F13525   6.503   1.164   8.067 -0.1589  0.2955  0.0412
  126OSM   H12F13526   6.454   1.256   8.107  2.1977  1.1914  1.1020
  126OSM   H12G13527   6.609   1.199   8.068 -1.0389  3.2684  0.9525
  126OSM   C13F13528   6.496   1.042   8.163 -0.2500  0.2688 -0.1017
  126OSM   H13F13529   6.546   0.964   8.102  2.0842  1.6727 -0.1078
  126OSM   H13G13530   6.390   1.016   8.181 -0.2881  0.8380  0.5390
  126OSM   C14F13531   6.567   1.067   8.298  0.3192 -0.4488  0.4546
  126OSM   H14F13532   6.666   1.112   8.275 -0.0512 -0.2367 -0.7761
  126OSM   H14G13533   6.586   0.979   8.364 -1.4212 -0.8992  0.4058
  126OSM   C15F13534   6.487   1.158   8.395  1.2821 -0.7707 -0.4138
  126OSM   H15F13535   6.474   1.257   8.346 -1.7489 -1.7170 -1.7479
  126OSM   H15G13536   6.539   1.184   8.490 -0.7744 -1.9160  1.1357
  126OSM   C16F13537   6.347   1.110   8.444  0.1729 -0.3552 -0.0798
  126OSM   H16F13538   6.357   1.049   8.536  0.1907 -1.1821 -0.6223
  126OSM   H16G13539   6.306   1.041   8.367  0.5051 -1.7769  0.9863
  126OSM   C17F13540   6.239   1.217   8.473  0.0090 -0.6803  0.0654
  126OSM   H17F13541   6.219   1.269   8.377  0.2676 -0.3554  0.1849
  126OSM   H17G13542   6.297   1.286   8.538 -0.9264 -0.1057  0.3145
  126OSM   C18F13543   6.116   1.169   8.553  0.6690  0.0098  0.0039
  126OSM   H18F13544   6.138   1.172   8.662  0.2686 -0.6116  0.1092
  126OSM   H18G13545   6.081   1.070   8.516  1.5520  0.2354 -1.5485
  126OSM   H18H13546   6.033   1.241   8.542 -0.7817 -1.4845  0.6418
  127OSM      N13547   2.209   5.167   5.935 -0.1269 -0.3334 -0.4961
  127OSM    C1513548   2.296   5.242   5.834  0.0883 -0.3752 -0.2468
  127OSM   H15A13549   2.281   5.214   5.731  3.3620 -0.7292 -0.7291
  127OSM   H15B13550   2.397   5.238   5.872  0.0689  4.3875  0.9195
  127OSM   H15C13551   2.272   5.347   5.829  2.8489  0.5408  2.6000
  127OSM    C1413552   2.060   5.197   5.908  0.2063 -0.2114  0.5667
  127OSM   H14A13553   2.003   5.157   5.990  0.1528 -0.1946  0.5368
  127OSM   H14B13554   2.037   5.150   5.813  1.5899 -0.0111  0.1070
  127OSM   H14C13555   2.039   5.302   5.913 -1.3405 -0.4785  0.2172
  127OSM    C1313556   2.236   5.020   5.920 -0.5453  0.1869 -0.1520
  127OSM   H13A13557   2.158   4.968   5.973 -0.1015  1.3987  1.8204
  127OSM   H13B13558   2.333   5.001   5.964  0.6715 -0.6451 -2.9769
  127OSM   H13C13559   2.236   4.987   5.817  1.3755  1.5609 -0.6474
  127OSM    C1213560   2.243   5.216   6.074  0.1729 -0.6180  0.4804
  127OSM   H12A13561   2.348   5.205   6.099 -0.1109 -1.5344  1.3270
  127OSM   H12B13562   2.193   5.159   6.150  0.1111  0.7522  1.4989
  127OSM    C1113563   2.217   5.365   6.112  0.4011  0.3739 -0.8452
  127OSM   H11A13564   2.269   5.425   6.033  0.3418 -1.2548 -2.1801
  127OSM   H11B13565   2.262   5.388   6.211 -0.4059 -0.0611 -0.3698
  127OSM      P13566   1.981   5.361   6.240 -0.0846  0.1052 -0.0498
  127OSM    O1313567   1.848   5.413   6.215  0.6692  0.5617  0.5423
  127OSM    O1413568   1.988   5.221   6.268  0.5784 -0.3845 -0.2355
  127OSM    O1113569   2.060   5.437   6.358 -0.3185  0.2101  0.3978
  127OSM    O1213570   2.076   5.391   6.113  0.1860  0.0134  0.0633
  127OSM    C1S13571   2.017   5.486   6.483  0.5396 -0.1198  0.8105
  127OSM    H1S13572   1.906   5.495   6.480  0.4937 -0.6230  0.9875
  127OSM    H1T13573   2.048   5.592   6.500 -0.8141  0.2964  0.8049
  127OSM     NF13574   1.972   5.434   6.713 -0.2631  0.3559  0.2892
  127OSM    HNF13575   2.010   5.493   6.784 -0.0866  0.1215  0.3947
  127OSM    C2S13576   2.056   5.401   6.602  0.5320 -0.2064  0.2353
  127OSM    H2S13577   2.034   5.299   6.565  3.2981 -0.5859 -0.5627
  127OSM    C3S13578   2.208   5.420   6.622  0.3223 -0.8920 -0.3365
  127OSM    H3S13579   2.213   5.529   6.644 -1.9481 -0.4036 -1.9365
  127OSM     O313580   2.302   5.408   6.514  0.3588  0.2210 -0.8676
  127OSM    HO313581   2.241   5.414   6.441 -3.6315  0.5844  2.1902
  127OSM    C4S13582   2.248   5.340   6.736  0.4181 -0.0205  0.0165
  127OSM    H4S13583   2.242   5.233   6.711  2.3554 -0.4823  1.3065
  127OSM    C5S13584   2.305   5.380   6.855 -0.0096  0.5221  0.4979
  127OSM    H5S13585   2.328   5.486   6.873  2.0753  0.8669 -3.2371
  127OSM    C6S13586   2.344   5.282   6.965 -0.1671  0.4863 -0.1277
  127OSM    H6S13587   2.348   5.337   7.061  1.2338 -0.0681  0.1481
  127OSM    H6T13588   2.451   5.258   6.951  0.6171  2.8967  1.2052
  127OSM    C7S13589   2.264   5.148   6.978 -0.5311 -0.3764 -0.2830
  127OSM    H7S13590   2.276   5.101   6.878  2.2444 -1.1597  0.3176
  127OSM    H7T13591   2.157   5.169   6.998 -0.5607 -0.8775  0.1240
  127OSM    C8S13592   2.326   5.055   7.078  0.2368 -0.4372  0.5021
  127OSM    H8S13593   2.435   5.044   7.060  0.2143  0.6590 -0.3808
  127OSM    H8T13594   2.269   4.960   7.075 -1.1384  0.2614  2.3808
  127OSM    C9S13595   2.320   5.098   7.228  0.0062  0.2537  0.6172
  127OSM    H9S13596   2.214   5.093   7.262 -0.2627 -0.6099 -0.2947
  127OSM    H9T13597   2.355   5.203   7.238  1.3004 -0.0299 -0.5936
  127OSM   C10S13598   2.413   5.016   7.320 -0.1982 -0.7496  0.1212
  127OSM   H10S13599   2.516   5.016   7.278  0.0283 -0.3483  0.6596
  127OSM   H10T13600   2.379   4.911   7.326 -0.7350 -0.5079  1.8516
  127OSM   C11S13601   2.425   5.085   7.455  0.3718 -0.0175 -0.1052
  127OSM   H11S13602   2.324   5.071   7.501 -0.0553  0.6246 -0.8262
  127OSM   H11T13603   2.455   5.191   7.442  0.3807 -0.0593 -0.4284
  127OSM   C12S13604   2.533   5.015   7.544  0.2379 -0.5245 -0.1591
  127OSM   H12S13605   2.638   5.023   7.507  0.3524 -0.5233  0.1641
  127OSM   H12T13606   2.515   4.905   7.543 -3.3056 -0.0484 -0.3952
  127OSM   C13S13607   2.516   5.058   7.693  0.6302 -0.5525  0.9012
  127OSM   H13S13608   2.407   5.057   7.718 -0.2771  2.2188 -2.1162
  127OSM   H13T13609   2.534   5.168   7.696 -1.5119 -0.0805 -0.7399
  127OSM   C14S13610   2.607   4.991   7.789 -0.0900 -0.3289  0.5653
  127OSM   H14S13611   2.707   5.006   7.743 -0.1977  2.3582  1.0194
  127OSM   H14T13612   2.589   4.884   7.812 -2.6632  0.4609  2.7850
  127OSM   C15S13613   2.612   5.064   7.920 -0.1199  0.0676 -0.0506
  127OSM   H15S13614   2.595   5.171   7.896 -1.7316 -0.2547 -0.4162
  127OSM   H15T13615   2.719   5.050   7.948  1.1548  1.6058 -3.5660
  127OSM   C16S13616   2.503   5.013   8.016 -0.8641 -0.0722  0.7435
  127OSM   H16S13617   2.541   4.910   8.031 -0.2974 -0.2867 -1.6417
  127OSM   H16T13618   2.406   5.019   7.961 -0.1880  1.9300 -0.3415
  127OSM   C17S13619   2.489   5.084   8.151  1.1568 -0.1363  0.6869
  127OSM   H17S13620   2.581   5.068   8.211  1.5131 -0.1199  0.1514
  127OSM   H17T13621   2.400   5.053   8.209 -0.2598 -0.0170 -1.3106
  127OSM   C18S13622   2.477   5.236   8.144  0.0682 -0.8407 -0.7728
  127OSM   H18S13623   2.561   5.285   8.092 -1.0042  0.2399 -1.5369
  127OSM   H18T13624   2.474   5.285   8.243  0.1538 -0.8407 -0.7704
  127OSM   H18U13625   2.385   5.264   8.088  0.9582 -0.5197 -2.1114
  127OSM    C1F13626   1.841   5.403   6.729  0.9135 -0.2708  1.1796
  127OSM     OF13627   1.783   5.356   6.629  0.0096 -0.4049  0.6463
  127OSM    C2F13628   1.764   5.436   6.853  0.3181  0.4474 -0.2077
  127OSM    H2F13629   1.671   5.484   6.817 -1.2578 -1.7311  0.7233
  127OSM    H2G13630   1.822   5.502   6.922 -0.8321  0.4407  0.8060
  127OSM    C3F13631   1.725   5.305   6.929 -0.1774  0.1456  0.2039
  127OSM    H3F13632   1.668   5.246   6.854 -0.2334  1.0418 -0.4852
  127OSM    H3G13633   1.654   5.337   7.008 -0.8791 -0.5611 -0.1237
  127OSM    C4F13634   1.839   5.223   6.980  0.0122  0.4924  0.2726
  127OSM    H4F13635   1.932   5.281   6.961  0.5487 -0.4470 -0.0513
  127OSM    H4G13636   1.837   5.125   6.928  0.8400  0.8335 -0.4357
  127OSM    C5F13637   1.825   5.182   7.130 -0.0604 -0.4472  0.0742
  127OSM    H5F13638   1.855   5.077   7.149  0.1858 -0.4293 -0.2258
  127OSM    H5G13639   1.715   5.186   7.148 -0.1744  1.4373 -0.8371
  127OSM    C6F13640   1.902   5.278   7.225 -0.2129  0.4859 -0.4296
  127OSM    H6F13641   1.889   5.382   7.187  2.8507  0.0656 -2.9834
  127OSM    H6G13642   2.011   5.265   7.210 -0.2271 -0.7179  0.3586
  127OSM    C7F13643   1.873   5.248   7.364 -0.2161  0.5412 -0.5045
  127OSM    H7F13644   1.906   5.143   7.373  0.8155  0.6344 -2.6119
  127OSM    H7G13645   1.764   5.243   7.387 -0.3245  0.8771 -0.9300
  127OSM    C8F13646   1.943   5.343   7.466 -0.1638 -0.6630 -0.0258
  127OSM    H8F13647   1.889   5.342   7.563 -1.7348 -2.9604 -0.8230
  127OSM    H8G13648   1.927   5.445   7.426  0.2561 -0.3823  0.5156
  127OSM    C9F13649   2.090   5.315   7.481  0.8327 -0.5457  0.5772
  127OSM    H9F13650   2.156   5.289   7.397 -2.0945 -1.9099 -1.4510
  127OSM   C10F13651   2.146   5.332   7.598  0.5949 -0.5815 -0.1072
  127OSM   H10F13652   2.255   5.317   7.604  0.7840  0.3552 -1.0317
  127OSM   C11F13653   2.086   5.368   7.735  0.3479  0.2538 -0.3750
  127OSM   H11F13654   2.013   5.451   7.731 -0.0618  0.0287  1.6890
  127OSM   H11G13655   2.167   5.401   7.804  0.7513  0.3430 -0.8802
  127OSM   C12F13656   2.013   5.248   7.795  0.2736  0.6962  0.5018
  127OSM   H12F13657   2.082   5.162   7.798 -1.4163 -0.7682 -0.7419
  127OSM   H12G13658   1.932   5.225   7.722  2.4030 -1.3873 -1.3648
  127OSM   C13F13659   1.954   5.274   7.942 -0.2323  0.6376  0.0004
  127OSM   H13F13660   1.915   5.171   7.959 -0.1261  0.4518 -0.8555
  127OSM   H13G13661   1.869   5.345   7.955 -0.1612  0.3444  2.6965
  127OSM   C14F13662   2.069   5.298   8.044 -0.2783 -0.9246  0.4753
  127OSM   H14F13663   2.132   5.387   8.020 -1.2392 -0.6945 -1.4005
  127OSM   H14G13664   2.139   5.213   8.029  1.8372  0.8131  0.0834
  127OSM   C15F13665   2.024   5.296   8.188 -0.1171  0.1229  0.0699
  127OSM   H15F13666   1.959   5.209   8.208  2.1181 -1.8767 -0.7847
  127OSM   H15G13667   1.963   5.384   8.214 -0.3453 -0.0541  0.1342
  127OSM   C16F13668   2.139   5.295   8.292  0.1048 -0.4358 -0.3398
  127OSM   H16F13669   2.187   5.394   8.310  1.4700 -1.3703  1.5125
  127OSM   H16G13670   2.219   5.228   8.255 -0.6645 -1.8757  0.5350
  127OSM   C17F13671   2.091   5.224   8.426  0.0778 -0.9091  0.0417
  127OSM   H17F13672   2.182   5.200   8.484  1.0353 -0.0633 -1.0575
  127OSM   H17G13673   2.046   5.128   8.392  1.1618 -1.2732 -0.4068
  127OSM   C18F13674   1.994   5.307   8.506  0.4731  1.0381  0.9212
  127OSM   H18F13675   2.041   5.395   8.555  0.5054  1.4398  0.1885
  127OSM   H18G13676   1.941   5.243   8.579  0.1313  1.5387  1.1211
  127OSM   H18H13677   1.909   5.346   8.446 -1.4202 -0.2780  2.6151
  128OSM      N13678   3.636   1.146   6.012  0.5129  0.6695  0.0090
  128OSM    C1513679   3.546   1.111   5.902  0.3556  0.5040  0.6394
  128OSM   H15A13680   3.513   1.203   5.855 -1.3798  0.1805  1.1529
  128OSM   H15B13681   3.464   1.052   5.940 -0.7557  0.2399 -1.9140
  128OSM   H15C13682   3.600   1.053   5.829 -0.1808  2.5634 -1.5420
  128OSM    C1413683   3.684   1.017   6.072 -0.4441 -0.0246  0.3539
  128OSM   H14A13684   3.718   0.946   5.998 -1.8075 -0.9152  0.5539
  128OSM   H14B13685   3.601   0.976   6.127 -0.6831  1.8693  1.4973
  128OSM   H14C13686   3.761   1.038   6.145 -2.2265  1.8772  1.7902
  128OSM    C1313687   3.750   1.227   5.960  0.0602  0.1588 -0.3031
  128OSM   H13A13688   3.731   1.305   5.888  0.4021 -1.4368 -2.2190
  128OSM   H13B13689   3.823   1.160   5.917  0.0603 -0.9653  1.3613
  128OSM   H13C13690   3.812   1.267   6.039  1.3593  1.4164 -1.8836
  128OSM    C1213691   3.570   1.238   6.111 -0.3453  0.3660  0.2351
  128OSM   H12A13692   3.476   1.192   6.136 -0.5616  1.0134  0.6570
  128OSM   H12B13693   3.558   1.328   6.053  2.7940  0.4960 -0.3809
  128OSM    C1113694   3.645   1.281   6.237  0.0856  0.5419 -0.5291
  128OSM   H11A13695   3.672   1.188   6.292  0.8360  0.9162 -0.2431
  128OSM   H11B13696   3.580   1.337   6.307  0.9587 -2.0539  2.6362
  128OSM      P13697   3.761   1.520   6.218  0.4023  0.2889  0.3401
  128OSM    O1313698   3.867   1.571   6.132  0.4260 -0.0447  0.2678
  128OSM    O1413699   3.626   1.582   6.198  0.0179  0.1513  0.2730
  128OSM    O1113700   3.807   1.540   6.373  0.1349 -0.3206 -0.0790
  128OSM    O1213701   3.755   1.366   6.205  0.2112  0.2820 -0.6686
  128OSM    C1S13702   3.916   1.465   6.422 -0.6558 -0.0835  0.2092
  128OSM    H1S13703   4.004   1.533   6.434 -0.6556 -0.3837  2.1577
  128OSM    H1T13704   3.948   1.386   6.351  0.6924 -1.4124  2.2015
  128OSM     NF13705   4.038   1.342   6.584 -0.2082  0.3657  0.6717
  128OSM    HNF13706   4.033   1.247   6.555 -0.7080  1.1171 -2.0659
  128OSM    C2S13707   3.908   1.412   6.560  0.3711  0.2134  0.3998
  128OSM    H2S13708   3.897   1.493   6.635  0.2094 -1.3313  2.1324
  128OSM    C3S13709   3.779   1.321   6.572 -0.5977 -0.7133  0.0052
  128OSM    H3S13710   3.788   1.240   6.497 -1.1392  1.0612 -2.0786
  128OSM     O313711   3.655   1.385   6.548 -0.8276 -0.0453  0.4361
  128OSM    HO313712   3.683   1.461   6.498  0.5806 -0.1775  0.9943
  128OSM    C4S13713   3.766   1.267   6.709  0.3657  0.5169  0.3027
  128OSM    H4S13714   3.766   1.337   6.793 -0.7697  1.5413 -0.5263
  128OSM    C5S13715   3.779   1.138   6.742  0.6320 -0.6825  0.1253
  128OSM    H5S13716   3.792   1.073   6.654  3.7765 -0.1747  0.1140
  128OSM    C6S13717   3.768   1.072   6.881 -0.0530  0.0980  0.5073
  128OSM    H6S13718   3.870   1.036   6.902 -0.5529 -1.9206 -0.2790
  128OSM    H6T13719   3.708   0.979   6.884  1.2350 -0.7666  0.0542
  128OSM    C7S13720   3.739   1.170   6.993 -0.4421 -0.3933 -0.4108
  128OSM    H7S13721   3.635   1.208   6.999 -0.0417  0.5590  1.1059
  128OSM    H7T13722   3.804   1.260   6.991  1.6349 -1.8236 -0.8451
  128OSM    C8S13723   3.754   1.085   7.124  0.2838  0.2737  0.4118
  128OSM    H8S13724   3.852   1.033   7.134 -0.4193 -1.5353 -1.4411
  128OSM    H8T13725   3.680   1.003   7.117  0.1811  0.4480 -0.6639
  128OSM    C9S13726   3.714   1.167   7.245  0.0525  0.2808 -0.2488
  128OSM    H9S13727   3.618   1.220   7.227 -0.4315  0.1012  1.5713
  128OSM    H9T13728   3.797   1.240   7.259  0.4201  0.1502 -1.5953
  128OSM   C10S13729   3.696   1.070   7.368 -0.2246 -0.3939  0.3060
  128OSM   H10S13730   3.786   1.006   7.380  0.1118  0.2233  1.1183
  128OSM   H10T13731   3.609   1.003   7.352 -2.7862  2.5080  1.1018
  128OSM   C11S13732   3.706   1.148   7.498  0.2789  0.9086 -0.2063
  128OSM   H11S13733   3.624   1.222   7.509 -0.5456 -0.1311  0.9385
  128OSM   H11T13734   3.796   1.214   7.494 -0.0566  1.5526  1.8495
  128OSM   C12S13735   3.716   1.051   7.623 -0.2374 -0.2543 -0.0281
  128OSM   H12S13736   3.816   1.003   7.615  0.5754  1.5980 -1.8697
  128OSM   H12T13737   3.636   0.981   7.592  0.3893 -0.7423 -0.5582
  128OSM   C13S13738   3.695   1.123   7.748 -0.1099  0.2826 -0.3646
  128OSM   H13S13739   3.617   1.201   7.737  0.3856  0.5168 -2.6434
  128OSM   H13T13740   3.793   1.174   7.766 -1.0789  1.6591  1.3422
  128OSM   C14S13741   3.670   1.036   7.873  0.7127  0.1903 -0.2679
  128OSM   H14S13742   3.742   0.951   7.878  0.4963  0.0822  1.7903
  128OSM   H14T13743   3.567   0.997   7.864  1.4908 -1.8454 -1.0171
  128OSM   C15S13744   3.683   1.100   8.013  0.3189 -0.5513  0.2703
  128OSM   H15S13745   3.599   1.171   8.028 -0.7029 -1.2665 -1.7190
  128OSM   H15T13746   3.775   1.161   8.025  0.6347 -0.1473 -3.0897
  128OSM   C16S13747   3.655   1.001   8.133 -0.6364  0.3110  0.2666
  128OSM   H16S13748   3.735   0.925   8.120  0.4719  1.4012  0.4747
  128OSM   H16T13749   3.555   0.956   8.121 -0.9042  0.0780  2.7869
  128OSM   C17S13750   3.657   1.069   8.267 -0.1962 -0.3740  0.6042
  128OSM   H17S13751   3.617   1.171   8.251 -1.3273 -0.6050  1.7696
  128OSM   H17T13752   3.766   1.078   8.287 -0.0705  2.5908 -0.9178
  128OSM   C18S13753   3.587   0.987   8.377 -0.1649 -0.1188 -0.2980
  128OSM   H18S13754   3.480   0.971   8.349  0.3712 -2.3127 -1.2940
  128OSM   H18T13755   3.598   1.037   8.476 -0.6819 -0.2742 -0.1577
  128OSM   H18U13756   3.638   0.890   8.397  0.1361  0.3658  1.3998
  128OSM    C1F13757   4.155   1.405   6.605 -0.0003 -0.2620  0.3588
  128OSM     OF13758   4.161   1.525   6.594  0.2364  0.1463 -0.4544
  128OSM    C2F13759   4.271   1.326   6.644 -0.7759 -0.5533  0.2805
  128OSM    H2F13760   4.355   1.342   6.573  0.0908 -2.4927  0.7938
  128OSM    H2G13761   4.245   1.223   6.612 -2.2420  0.0646 -0.5811
  128OSM    C3F13762   4.304   1.332   6.795 -0.4079  0.0424 -0.6537
  128OSM    H3F13763   4.294   1.437   6.831 -0.5155  0.3875 -1.6533
  128OSM    H3G13764   4.404   1.289   6.815 -0.8689 -1.5773 -1.6485
  128OSM    C4F13765   4.214   1.257   6.890  0.6334  0.6059 -0.0624
  128OSM    H4F13766   4.196   1.152   6.859  0.1848  0.3779  0.9529
  128OSM    H4G13767   4.116   1.309   6.886 -0.0386 -0.5585  0.6866
  128OSM    C5F13768   4.267   1.263   7.036  0.2559 -0.2447 -0.0889
  128OSM    H5F13769   4.228   1.354   7.087  1.0355 -0.1838  0.4126
  128OSM    H5G13770   4.374   1.294   7.031 -0.1880  2.1080  2.3989
  128OSM    C6F13771   4.237   1.139   7.118  0.4021  0.5526 -0.1027
  128OSM    H6F13772   4.280   1.059   7.054 -0.5365 -1.3699  1.5349
  128OSM    H6G13773   4.130   1.131   7.148  0.4255  3.0684  0.8725
  128OSM    C7F13774   4.318   1.143   7.248 -0.0475  0.0093  0.8514
  128OSM    H7F13775   4.422   1.163   7.213 -0.4165  1.8419  0.7466
  128OSM    H7G13776   4.311   1.045   7.300  1.2313 -0.3944  0.3063
  128OSM    C8F13777   4.291   1.244   7.362  0.0946  0.7127  0.3882
  128OSM    H8F13778   4.300   1.348   7.324 -1.1926  0.0642 -1.9266
  128OSM    H8G13779   4.375   1.217   7.429  1.2507  0.7556 -0.9939
  128OSM    C9F13780   4.158   1.221   7.421 -0.2156  0.3893 -0.3429
  128OSM    H9F13781   4.081   1.239   7.345 -1.3528 -0.4212  0.5918
  128OSM   C10F13782   4.123   1.178   7.539 -0.0459  0.4622  0.0511
  128OSM   H10F13783   4.017   1.159   7.559  0.1706  0.0380  0.8130
  128OSM   C11F13784   4.216   1.142   7.645  0.3653  0.3472  0.0121
  128OSM   H11F13785   4.320   1.132   7.607  0.1223  0.6371 -0.7696
  128OSM   H11G13786   4.184   1.043   7.685 -1.1770  1.4306  1.5986
  128OSM   C12F13787   4.206   1.247   7.763  0.1480  0.5325  0.9266
  128OSM   H12F13788   4.098   1.257   7.786 -0.3614 -2.4431  0.1467
  128OSM   H12G13789   4.238   1.347   7.726 -0.0227  0.4946  0.6753
  128OSM   C13F13790   4.290   1.203   7.882 -0.1369 -0.1398 -0.0906
  128OSM   H13F13791   4.394   1.199   7.843  1.0189 -0.2617  2.7806
  128OSM   H13G13792   4.261   1.103   7.921 -1.8033 -0.5844 -2.2383
  128OSM   C14F13793   4.274   1.325   7.980  0.3653  0.1906 -0.0679
  128OSM   H14F13794   4.167   1.329   8.009  0.7851  1.0674  1.4740
  128OSM   H14G13795   4.311   1.416   7.929  1.4831 -1.0132 -1.5114
  128OSM   C15F13796   4.363   1.303   8.103  0.2720 -0.6978  0.9494
  128OSM   H15F13797   4.394   1.397   8.153  0.0856 -1.7766  3.2256
  128OSM   H15G13798   4.455   1.243   8.085  0.1782 -0.9867  1.4174
  128OSM   C16F13799   4.281   1.242   8.215  0.0919  0.4985 -0.3920
  128OSM   H16F13800   4.234   1.148   8.180 -3.2999  1.6304  0.7184
  128OSM   H16G13801   4.194   1.305   8.243  0.8722  1.1640  0.6231
  128OSM   C17F13802   4.361   1.223   8.343 -0.0054 -0.0622  0.8713
  128OSM   H17F13803   4.456   1.167   8.329  0.4318 -0.2480  3.8836
  128OSM   H17G13804   4.298   1.157   8.407 -3.8363 -0.4369 -2.8265
  128OSM   C18F13805   4.387   1.353   8.418  0.3897  0.6266  0.1204
  128OSM   H18F13806   4.443   1.424   8.355  0.8503  0.2209  0.0641
  128OSM   H18G13807   4.434   1.338   8.518 -1.4943 -0.0288  0.9545
  128OSM   H18H13808   4.288   1.403   8.426 -0.1477 -0.0945 -1.5150
  129OSM      N13809   1.106   3.099   6.091 -0.1935 -0.0658  0.4814
  129OSM    C1513810   1.038   3.216   6.027 -0.5500 -0.1584  0.3725
  129OSM   H15A13811   0.933   3.218   6.053 -0.6259 -0.2876  0.0905
  129OSM   H15B13812   1.039   3.204   5.919 -1.8994  1.0764  0.1778
  129OSM   H15C13813   1.085   3.311   6.047  3.7246 -1.4204 -2.2536
  129OSM    C1413814   1.038   2.986   6.028  0.8477 -0.3564  0.3363
  129OSM   H14A13815   0.932   2.994   6.048  1.2821 -0.4475  3.1296
  129OSM   H14B13816   1.064   2.894   6.077  0.8466 -0.0184  0.9948
  129OSM   H14C13817   1.050   2.971   5.922 -1.8287  4.2187 -0.9244
  129OSM    C1313818   1.256   3.096   6.047 -0.1020 -0.5111 -0.1905
  129OSM   H13A13819   1.314   3.023   6.101  0.2201  1.0526  1.7042
  129OSM   H13B13820   1.315   3.185   6.065  1.7635 -2.0205  1.7278
  129OSM   H13C13821   1.263   3.073   5.941  0.3859 -0.0764 -0.2574
  129OSM    C1213822   1.082   3.098   6.233 -0.0898  0.2350 -0.2181
  129OSM   H12A13823   1.121   3.004   6.269  0.8564 -0.0091 -1.7870
  129OSM   H12B13824   0.980   3.112   6.263  0.3829  2.1314  0.6512
  129OSM    C1113825   1.160   3.212   6.306  0.6854 -0.3600 -0.2177
  129OSM   H11A13826   1.266   3.188   6.280 -0.1623 -1.1512 -3.5069
  129OSM   H11B13827   1.147   3.182   6.412 -0.9632  0.7115 -0.0918
  129OSM      P13828   1.242   3.449   6.237  0.3554  0.3820 -0.2634
  129OSM    O1313829   1.323   3.401   6.124 -0.2267  0.0704 -0.1970
  129OSM    O1413830   1.167   3.576   6.219  0.8481  0.9032  0.5720
  129OSM    O1113831   1.335   3.453   6.357  0.2077 -0.4024 -0.1303
  129OSM    O1213832   1.124   3.350   6.279  0.5427 -0.0210  0.1296
  129OSM    C1S13833   1.277   3.474   6.489  0.0295  0.5306 -0.5558
  129OSM    H1S13834   1.229   3.378   6.516 -0.0924  0.1282 -2.0827
  129OSM    H1T13835   1.188   3.541   6.490 -2.1139 -2.1273  1.2506
  129OSM     NF13836   1.289   3.549   6.721  0.0756  0.2782  0.5028
  129OSM    HNF13837   1.278   3.647   6.737 -0.6630  0.1672  0.6759
  129OSM    C2S13838   1.371   3.510   6.603 -1.3117 -0.4763  0.3450
  129OSM    H2S13839   1.425   3.418   6.635 -0.1611 -0.6262 -1.8479
  129OSM    C3S13840   1.472   3.621   6.553 -0.1713 -0.0810 -0.2021
  129OSM    H3S13841   1.408   3.707   6.526 -1.7208 -0.6065  1.5469
  129OSM     O313842   1.548   3.584   6.437  0.1263  0.4742 -0.1663
  129OSM    HO313843   1.478   3.534   6.394  0.7436  0.5219 -1.2693
  129OSM    C4S13844   1.570   3.674   6.650  0.2120  0.5851 -1.5685
  129OSM    H4S13845   1.632   3.596   6.697 -0.8743  0.7793  0.3152
  129OSM    C5S13846   1.586   3.807   6.694 -0.0095 -0.1586 -1.1738
  129OSM    H5S13847   1.521   3.885   6.652 -1.4851  0.5461  2.0450
  129OSM    C6S13848   1.678   3.843   6.812 -0.4735  0.8444 -0.1443
  129OSM    H6S13849   1.713   3.949   6.805 -1.8968  1.2481 -1.6929
  129OSM    H6T13850   1.769   3.779   6.809 -0.7467  0.4411  0.0788
  129OSM    C7S13851   1.616   3.813   6.952  1.0007 -0.4131 -0.1054
  129OSM    H7S13852   1.577   3.710   6.939  4.1323 -1.5841 -1.0972
  129OSM    H7T13853   1.526   3.878   6.962  1.2222  0.1797 -1.6960
  129OSM    C8S13854   1.714   3.841   7.069  0.0657  0.7019  0.0772
  129OSM    H8S13855   1.709   3.947   7.102 -0.8983  0.4614  0.7611
  129OSM    H8T13856   1.823   3.819   7.065 -0.2586 -0.8931 -0.5317
  129OSM    C9S13857   1.664   3.764   7.188  0.4266  0.3978 -0.9193
  129OSM    H9S13858   1.689   3.656   7.181  0.4840  0.4337 -1.2775
  129OSM    H9T13859   1.554   3.772   7.176  0.3773 -1.6376 -2.2232
  129OSM   C10S13860   1.713   3.831   7.318 -0.2070 -0.4008  0.0155
  129OSM   H10S13861   1.645   3.914   7.345 -2.1128 -1.3489 -1.5956
  129OSM   H10T13862   1.815   3.867   7.296 -0.4337 -0.2273 -0.7858
  129OSM   C11S13863   1.708   3.728   7.430  0.2296  0.4581 -0.1449
  129OSM   H11S13864   1.802   3.670   7.441 -0.0903 -0.3129 -1.3126
  129OSM   H11T13865   1.625   3.656   7.415  2.2811 -2.0443 -0.0363
  129OSM   C12S13866   1.684   3.794   7.570 -0.2481  0.2495  0.0747
  129OSM   H12S13867   1.600   3.866   7.569 -0.6102 -0.1573  0.6340
  129OSM   H12T13868   1.775   3.854   7.589  1.3344 -1.2584 -2.1576
  129OSM   C13S13869   1.690   3.691   7.688 -0.1986  0.6461  0.5726
  129OSM   H13S13870   1.782   3.631   7.674 -1.1710 -0.4322 -1.5989
  129OSM   H13T13871   1.599   3.628   7.693 -0.4019  0.8324 -0.5732
  129OSM   C14S13872   1.688   3.772   7.820 -0.4238  0.3889  0.0624
  129OSM   H14S13873   1.773   3.841   7.803 -0.1592  0.1479  0.3822
  129OSM   H14T13874   1.712   3.701   7.903  0.0686 -2.1497 -2.1020
  129OSM   C15S13875   1.568   3.864   7.850 -0.6971  0.3397  0.0883
  129OSM   H15S13876   1.523   3.899   7.755 -0.7272 -1.5810 -0.6638
  129OSM   H15T13877   1.602   3.949   7.912 -0.1406  0.0436  0.1943
  129OSM   C16S13878   1.455   3.780   7.923 -0.5075  0.0264 -0.3197
  129OSM   H16S13879   1.489   3.755   8.026 -0.3562 -1.7833 -0.7656
  129OSM   H16T13880   1.425   3.694   7.860 -1.4250  0.3953 -0.3979
  129OSM   C17S13881   1.326   3.864   7.928 -0.4716 -0.0320 -0.1320
  129OSM   H17S13882   1.296   3.905   7.830 -0.2879 -0.9477 -0.5752
  129OSM   H17T13883   1.337   3.949   7.999 -4.0035  2.5665 -2.4016
  129OSM   C18S13884   1.200   3.795   7.987 -0.2022 -0.2817 -1.2769
  129OSM   H18S13885   1.107   3.854   7.973 -0.8229 -0.7797  0.4888
  129OSM   H18T13886   1.205   3.771   8.095  0.6360  3.1845 -0.3920
  129OSM   H18U13887   1.189   3.715   7.911  1.2187 -1.1867 -0.5629
  129OSM    C1F13888   1.237   3.462   6.817  0.1934 -0.0142 -0.0134
  129OSM     OF13889   1.236   3.342   6.793 -0.2817  0.4079  0.1759
  129OSM    C2F13890   1.175   3.526   6.931 -0.0327 -0.4232 -0.4550
  129OSM    H2F13891   1.139   3.448   7.001  2.4807 -1.7451 -0.5508
  129OSM    H2G13892   1.086   3.579   6.892 -1.0917 -0.9571  1.1161
  129OSM    C3F13893   1.268   3.620   7.019  0.3310 -0.6362  0.2866
  129OSM    H3F13894   1.307   3.706   6.960 -0.8229 -1.1811 -1.3305
  129OSM    H3G13895   1.354   3.559   7.053  0.2561 -0.4249  0.8697
  129OSM    C4F13896   1.208   3.685   7.140  0.3789  0.0397 -0.5789
  129OSM    H4F13897   1.121   3.753   7.125 -0.5708 -1.3808 -1.8060
  129OSM    H4G13898   1.285   3.748   7.190  1.4178 -0.9969 -0.8586
  129OSM    C5F13899   1.178   3.576   7.248 -0.6327  0.1414 -0.5424
  129OSM    H5F13900   1.271   3.517   7.256 -0.2643  0.5764 -1.5730
  129OSM    H5G13901   1.092   3.516   7.212 -1.0058 -0.1445  0.7591
  129OSM    C6F13902   1.148   3.628   7.391  0.6733  0.0041 -0.3493
  129OSM    H6F13903   1.119   3.543   7.455  0.2379 -0.5469 -1.2611
  129OSM    H6G13904   1.063   3.699   7.381  2.1832  1.7011 -2.0378
  129OSM    C7F13905   1.269   3.704   7.449 -0.0273 -0.2434 -0.6879
  129OSM    H7F13906   1.304   3.797   7.398 -0.9422  0.6905  0.3513
  129OSM    H7G13907   1.355   3.635   7.461 -0.5453 -0.7402  0.2230
  129OSM    C8F13908   1.228   3.767   7.589 -1.0093  0.3615  0.2066
  129OSM    H8F13909   1.317   3.807   7.641 -2.4857  2.6723  1.1230
  129OSM    H8G13910   1.180   3.688   7.650 -1.4341  0.6271  0.2258
  129OSM    C9F13911   1.145   3.890   7.580  0.3616 -0.2226  0.0629
  129OSM    H9F13912   1.187   3.976   7.526 -0.4115  1.2265  1.6708
  129OSM   C10F13913   1.023   3.906   7.613  0.8673  0.0352 -0.5584
  129OSM   H10F13914   0.970   3.999   7.585  0.0566  0.1567  1.2349
  129OSM   C11F13915   0.926   3.807   7.671 -0.1860  1.0484  0.2498
  129OSM   H11F13916   0.964   3.799   7.775 -0.2992  1.8142  0.3548
  129OSM   H11G13917   0.931   3.716   7.608 -1.2287  1.6810 -0.8000
  129OSM   C12F13918   0.787   3.869   7.670  0.3162 -0.4053  1.2026
  129OSM   H12F13919   0.758   3.887   7.564 -0.8007 -1.1856  1.3625
  129OSM   H12G13920   0.784   3.969   7.720 -0.2473  0.6954 -0.9035
  129OSM   C13F13921   0.678   3.767   7.727 -0.6230 -1.0949  0.0745
  129OSM   H13F13922   0.687   3.670   7.673  1.2953 -0.4172 -0.9001
  129OSM   H13G13923   0.582   3.817   7.701  0.0741 -0.2569 -0.9573
  129OSM   C14F13924   0.685   3.749   7.882 -0.0619 -0.5527  0.2490
  129OSM   H14F13925   0.684   3.850   7.927  0.4078 -0.4583  0.0569
  129OSM   H14G13926   0.788   3.710   7.898 -0.2137 -1.5508 -1.0187
  129OSM   C15F13927   0.588   3.656   7.947 -0.3396  0.3108 -0.9690
  129OSM   H15F13928   0.579   3.565   7.883 -1.2292  1.0115 -1.8648
  129OSM   H15G13929   0.487   3.702   7.951 -0.5338 -0.1879  0.5461
  129OSM   C16F13930   0.635   3.602   8.088  0.4141 -0.5072  0.6941
  129OSM   H16F13931   0.746   3.608   8.093  0.3598  1.5242  0.3489
  129OSM   H16G13932   0.610   3.495   8.101  0.4372 -1.1654 -3.2602
  129OSM   C17F13933   0.568   3.678   8.203 -0.1479  0.5599  0.1095
  129OSM   H17F13934   0.528   3.775   8.165 -0.1601  1.0064  1.2178
  129OSM   H17G13935   0.637   3.688   8.289  1.8708 -0.9833 -1.2577
  129OSM   C18F13936   0.445   3.599   8.262 -0.6088  1.0746  0.4422
  129OSM   H18F13937   0.419   3.637   8.363  2.2543  1.2008  1.2357
  129OSM   H18G13938   0.461   3.490   8.282 -2.2962  0.8727  0.8408
  129OSM   H18H13939   0.354   3.614   8.201 -1.2552 -1.2436  0.7177
  130OSM      N13940   4.160   0.825   6.044 -0.0297  0.3537  0.3337
  130OSM    C1513941   4.026   0.899   6.061  0.3536  0.4572  0.5001
  130OSM   H15A13942   3.971   0.881   5.970 -1.6667  0.0915  1.7416
  130OSM   H15B13943   4.041   1.006   6.052  0.0148  0.5162  0.6162
  130OSM   H15C13944   3.985   0.864   6.154  0.0038  1.0336  0.5683
  130OSM    C1413945   4.125   0.683   6.034  1.0250  0.2132  0.1444
  130OSM   H14A13946   4.043   0.652   5.971 -0.1261  1.1416  1.1099
  130OSM   H14B13947   4.106   0.653   6.136  0.8193 -1.2787 -0.3124
  130OSM   H14C13948   4.207   0.627   5.993  0.7134  0.7781 -1.3091
  130OSM    C1313949   4.221   0.869   5.915  0.1780  0.2716 -0.1600
  130OSM   H13A13950   4.262   0.968   5.925  0.7729  0.2128 -1.7590
  130OSM   H13B13951   4.144   0.869   5.839  0.9496 -1.6218 -0.9880
  130OSM   H13C13952   4.294   0.803   5.872 -0.5625 -0.0983 -0.8800
  130OSM    C1213953   4.256   0.853   6.163  0.0651 -0.5471  1.2275
  130OSM   H12A13954   4.270   0.960   6.163 -1.1861 -0.3288 -0.9681
  130OSM   H12B13955   4.354   0.811   6.145  0.4475  1.3912 -1.8873
  130OSM    C1113956   4.203   0.814   6.296  0.1999  0.2561  0.1084
  130OSM   H11A13957   4.101   0.855   6.304 -0.1498 -0.6832  0.6101
  130OSM   H11B13958   4.270   0.854   6.376 -1.0927 -0.3076  1.5220
  130OSM      P13959   4.314   0.578   6.308 -0.7138 -0.0389  0.0513
  130OSM    O1313960   4.287   0.459   6.232 -0.1346  0.0446 -0.0623
  130OSM    O1413961   4.435   0.657   6.273  0.1005 -0.0661 -0.0163
  130OSM    O1113962   4.333   0.530   6.459  0.0579 -0.6904 -0.0888
  130OSM    O1213963   4.186   0.671   6.307  0.8091  0.1579  0.3027
  130OSM    C1S13964   4.319   0.622   6.569 -0.2466 -0.3694 -0.5283
  130OSM    H1S13965   4.224   0.676   6.551  0.6088  1.2334 -0.3487
  130OSM    H1T13966   4.404   0.693   6.575  0.2790 -1.0782  1.1554
  130OSM     NF13967   4.300   0.645   6.823  0.2711  0.2471  0.1673
  130OSM    HNF13968   4.379   0.693   6.860  1.0586 -2.6830  2.6582
  130OSM    C2S13969   4.335   0.554   6.716 -0.0491  0.1789  0.3072
  130OSM    H2S13970   4.271   0.464   6.721 -1.4129  1.0949 -0.2230
  130OSM    C3S13971   4.478   0.495   6.719  0.1218  0.7942  0.3281
  130OSM    H3S13972   4.547   0.581   6.710  1.1315 -0.1519 -1.9382
  130OSM     O313973   4.513   0.399   6.619 -0.0342  0.1128  0.3896
  130OSM    HO313974   4.437   0.403   6.560  0.9813 -3.0261 -1.3344
  130OSM    C4S13975   4.491   0.431   6.860 -0.3595 -0.6120  0.1562
  130OSM    H4S13976   4.530   0.498   6.938  0.0496 -0.1513 -0.4371
  130OSM    C5S13977   4.473   0.299   6.901  0.5620 -0.7468  0.2944
  130OSM    H5S13978   4.443   0.222   6.828 -2.6603  0.9914 -0.4054
  130OSM    C6S13979   4.502   0.234   7.040 -0.1487 -0.0113  0.4717
  130OSM    H6S13980   4.591   0.167   7.045 -0.9654 -1.0666  2.0591
  130OSM    H6T13981   4.416   0.169   7.068 -0.2582 -0.4760 -0.8766
  130OSM    C7S13982   4.536   0.329   7.158 -0.0979  0.2123 -0.5653
  130OSM    H7S13983   4.556   0.437   7.136 -1.2047  0.6281  0.3574
  130OSM    H7T13984   4.643   0.305   7.175 -0.0083 -1.3893 -2.9758
  130OSM    C8S13985   4.430   0.306   7.273  0.4148  0.1762  0.3269
  130OSM    H8S13986   4.415   0.199   7.302 -3.2337  0.4973  0.0974
  130OSM    H8T13987   4.331   0.332   7.231 -1.3594 -2.1442  2.6698
  130OSM    C9S13988   4.463   0.387   7.400 -0.4693 -0.1927 -0.3225
  130OSM    H9S13989   4.453   0.493   7.370  0.4050 -0.2545 -0.8682
  130OSM    H9T13990   4.558   0.350   7.445 -0.2159 -1.0892 -1.5564
  130OSM   C10S13991   4.358   0.356   7.502 -0.1792 -0.4592  0.8034
  130OSM   H10S13992   4.364   0.251   7.538 -2.0131 -0.7843  0.2232
  130OSM   H10T13993   4.260   0.362   7.451 -2.1053 -3.1726  3.8054
  130OSM   C11S13994   4.370   0.455   7.621  0.4788  0.2302  0.1303
  130OSM   H11S13995   4.280   0.434   7.682 -1.4732  0.6201 -2.4929
  130OSM   H11T13996   4.371   0.556   7.574  1.7424 -0.5166 -1.5366
  130OSM   C12S13997   4.487   0.428   7.718 -0.1139  0.3226  0.1554
  130OSM   H12S13998   4.588   0.440   7.672 -0.3565  1.4367 -0.1362
  130OSM   H12T13999   4.468   0.326   7.758 -4.0438  1.3933  1.5279
  130OSM   C13S14000   4.486   0.513   7.851 -0.3690  0.4376 -1.0374
  130OSM   H13S14001   4.378   0.514   7.881 -0.6193  3.4571 -1.7863
  130OSM   H13T14002   4.511   0.618   7.828 -1.9214  0.8324 -1.0586
  130OSM   C14S14003   4.578   0.448   7.963 -0.4100  0.2937  0.5532
  130OSM   H14S14004   4.672   0.414   7.915 -1.0813 -1.5658  0.4676
  130OSM   H14T14005   4.520   0.362   8.004 -1.9937  1.0327 -0.0599
  130OSM   C15S14006   4.620   0.527   8.080  0.2431 -0.3820 -0.1314
  130OSM   H15S14007   4.535   0.595   8.105 -0.9050 -1.2495 -1.5566
  130OSM   H15T14008   4.701   0.598   8.053  0.7061 -0.8458  0.0114
  130OSM   C16S14009   4.668   0.448   8.206  0.5963  0.4730 -0.3407
  130OSM   H16S14010   4.763   0.395   8.188  1.0498  2.0700 -3.2036
  130OSM   H16T14011   4.591   0.368   8.217  1.4633 -0.6729 -2.1332
  130OSM   C17S14012   4.678   0.533   8.331 -0.2402  0.6155 -0.7043
  130OSM   H17S14013   4.724   0.630   8.303 -0.8324  0.9411 -0.5477
  130OSM   H17T14014   4.754   0.485   8.397  1.1478  1.0119 -1.9419
  130OSM   C18S14015   4.549   0.562   8.407 -0.2403  0.3620 -0.4716
  130OSM   H18S14016   4.498   0.636   8.342  2.7295  2.3100 -0.7756
  130OSM   H18T14017   4.575   0.603   8.507 -2.0093  0.1159  0.1322
  130OSM   H18U14018   4.496   0.468   8.437  0.9370  0.2006  1.2597
  130OSM    C1F14019   4.173   0.687   6.848  0.1631  0.0094 -0.2802
  130OSM     OF14020   4.080   0.648   6.773  0.5501 -0.6414  0.0834
  130OSM    C2F14021   4.156   0.785   6.963 -0.2691 -0.0801  0.3729
  130OSM    H2F14022   4.075   0.857   6.934  1.5941  1.8975 -0.1683
  130OSM    H2G14023   4.251   0.840   6.980  0.2814 -1.3670  1.6186
  130OSM    C3F14024   4.090   0.723   7.087 -0.0226  0.2655  0.3841
  130OSM    H3F14025   4.141   0.626   7.107 -0.7408 -0.1561  0.2276
  130OSM    H3G14026   3.988   0.694   7.054  1.3385 -1.6978 -2.5368
  130OSM    C4F14027   4.100   0.796   7.222  0.7491 -0.0962 -0.3856
  130OSM    H4F14028   4.015   0.868   7.228  0.1225 -0.9220  0.8457
  130OSM    H4G14029   4.189   0.861   7.240 -1.6144  3.7500 -1.2944
  130OSM    C5F14030   4.081   0.698   7.341 -0.2490 -0.2703 -0.4875
  130OSM    H5F14031   4.172   0.636   7.342  1.3321  1.9234  0.4433
  130OSM    H5G14032   3.990   0.640   7.314 -1.2086  1.3965 -1.0602
  130OSM    C6F14033   4.072   0.767   7.477  0.7674 -0.8517 -0.1594
  130OSM    H6F14034   4.009   0.858   7.479  2.9514  0.7296  0.8007
  130OSM    H6G14035   4.173   0.810   7.493  0.4557  0.8859 -2.3607
  130OSM    C7F14036   4.042   0.664   7.579  0.6204 -0.4021  0.0293
  130OSM    H7F14037   4.078   0.565   7.547 -0.1640 -0.5606 -0.3936
  130OSM    H7G14038   3.931   0.653   7.574  0.5865  0.2724 -1.2306
  130OSM    C8F14039   4.087   0.696   7.718  0.1175  0.6531  0.3502
  130OSM    H8F14040   4.198   0.694   7.712  0.0960 -1.4260 -0.2248
  130OSM    H8G14041   4.062   0.606   7.779 -1.6839  0.1124 -1.1029
  130OSM    C9F14042   4.034   0.825   7.780  0.0694 -0.0620 -0.5417
  130OSM    H9F14043   3.970   0.894   7.723  2.5308  2.7255 -0.1489
  130OSM   C10F14044   4.051   0.851   7.912  0.0717  0.2360 -0.1304
  130OSM   H10F14045   3.994   0.933   7.957  1.3261  1.8335 -1.3464
  130OSM   C11F14046   4.133   0.766   8.014  0.2259 -0.1833  0.4357
  130OSM   H11F14047   4.190   0.684   7.965 -0.9331 -0.1000 -1.1222
  130OSM   H11G14048   4.057   0.715   8.077  0.2920 -0.3644  0.3708
  130OSM   C12F14049   4.228   0.850   8.100 -0.1870  1.0408 -0.4448
  130OSM   H12F14050   4.160   0.929   8.140 -2.0779  1.3493 -3.8554
  130OSM   H12G14051   4.303   0.896   8.033 -0.2401  1.1004 -0.4632
  130OSM   C13F14052   4.286   0.761   8.214  0.0257  0.0330  0.3276
  130OSM   H13F14053   4.367   0.810   8.272 -0.4921  0.1987  0.9197
  130OSM   H13G14054   4.349   0.684   8.165  0.4626  0.5514  0.0624
  130OSM   C14F14055   4.180   0.690   8.305  0.2102 -0.2006  0.5616
  130OSM   H14F14056   4.239   0.627   8.374 -0.4249 -0.4377  0.8989
  130OSM   H14G14057   4.124   0.608   8.254 -2.5547  1.6592  0.3471
  130OSM   C15F14058   4.086   0.778   8.392 -0.1217  0.1596  0.4395
  130OSM   H15F14059   4.038   0.705   8.461  3.0353 -1.7431  0.8336
  130OSM   H15G14060   4.018   0.826   8.319  0.2216  0.9667  0.6427
  130OSM   C16F14061   4.158   0.885   8.478  0.8676 -0.5298  0.3056
  130OSM   H16F14062   4.223   0.954   8.421  1.0501 -0.5569  0.4830
  130OSM   H16G14063   4.224   0.839   8.554 -0.4477 -1.8293  0.7181
  130OSM   C17F14064   4.046   0.967   8.555 -0.7972  0.3442 -0.0933
  130OSM   H17F14065   3.976   0.899   8.608 -1.4243  0.5131 -0.6864
  130OSM   H17G14066   3.982   1.024   8.485  1.2380 -0.1382 -2.5025
  130OSM   C18F14067   4.097   1.058   8.659  0.8041 -0.3369  0.5611
  130OSM   H18F14068   4.178   1.127   8.629  0.4112 -0.8551 -1.9100
  130OSM   H18G14069   4.151   0.991   8.730 -0.2820 -1.7575  0.1141
  130OSM   H18H14070   4.011   1.111   8.705  1.2320  1.0747 -0.2409
  131OSM      N14071   1.580   1.876   6.167 -0.5597  0.0134 -0.1808
  131OSM    C1514072   1.576   1.731   6.140  0.4958 -0.1415 -0.4530
  131OSM   H15A14073   1.657   1.711   6.071  0.5938 -2.0591  0.1481
  131OSM   H15B14074   1.482   1.711   6.091 -1.0395  4.6966 -0.0164
  131OSM   H15C14075   1.580   1.666   6.226  0.3089  0.3128 -0.1025
  131OSM    C1414076   1.582   1.954   6.043  0.3893 -0.0230  0.1701
  131OSM   H14A14077   1.564   2.058   6.067  0.0325  0.3098 -1.4787
  131OSM   H14B14078   1.502   1.924   5.978 -0.9881  2.8586  0.3876
  131OSM   H14C14079   1.677   1.955   5.992 -0.3965 -1.7193 -1.4469
  131OSM    C1314080   1.458   1.918   6.235 -0.5487 -0.8017  0.4414
  131OSM   H13A14081   1.450   2.023   6.260  0.8151 -0.4018 -0.6583
  131OSM   H13B14082   1.438   1.847   6.313  1.2415 -1.2280  0.5565
  131OSM   H13C14083   1.375   1.898   6.168 -0.0124  0.1427 -0.5367
  131OSM    C1214084   1.702   1.907   6.246 -0.1674 -0.3822  0.3525
  131OSM   H12A14085   1.792   1.893   6.187  0.1159  1.1340  0.3940
  131OSM   H12B14086   1.725   1.838   6.327  2.4498 -2.4545 -1.9455
  131OSM    C1114087   1.715   2.048   6.315  1.4334  0.6829 -0.2685
  131OSM   H11A14088   1.814   2.048   6.365  2.7446  1.3330 -2.6913
  131OSM   H11B14089   1.637   2.051   6.394  2.2592 -0.0200  0.6081
  131OSM      P14090   1.811   2.201   6.123 -0.1044 -0.2479 -0.0592
  131OSM    O1314091   1.828   2.098   6.016  0.4665 -0.1023 -0.0044
  131OSM    O1414092   1.776   2.333   6.078  0.0858 -0.4639  0.0812
  131OSM    O1114093   1.945   2.216   6.205 -0.0090 -0.5313 -0.2495
  131OSM    O1214094   1.698   2.159   6.224 -0.2232  0.1188  0.0621
  131OSM    C1S14095   1.946   2.305   6.320 -0.6850  0.0558 -0.0447
  131OSM    H1S14096   1.841   2.337   6.339 -1.2025 -1.4437 -0.2334
  131OSM    H1T14097   2.007   2.392   6.287  0.5568 -1.3513 -1.6750
  131OSM     NF14098   1.993   2.334   6.569  0.1541  0.0381 -0.5362
  131OSM    HNF14099   2.085   2.362   6.597  1.2439 -2.6634 -1.1193
  131OSM    C2S14100   1.995   2.240   6.459  0.0407 -0.4588 -0.3190
  131OSM    H2S14101   1.934   2.152   6.489 -1.2074  0.0782 -1.1853
  131OSM    C3S14102   2.136   2.175   6.428 -0.4504  0.1216  0.9008
  131OSM    H3S14103   2.209   2.247   6.384 -0.3680 -0.6348 -0.2599
  131OSM     O314104   2.124   2.074   6.326  0.0230 -0.6473 -0.2069
  131OSM    HO314105   2.056   2.104   6.266 -0.6767 -1.6290  0.0748
  131OSM    C4S14106   2.203   2.116   6.546 -0.4755 -1.1033 -0.0665
  131OSM    H4S14107   2.278   2.189   6.580 -0.0185 -1.1587 -0.9259
  131OSM    C5S14108   2.175   2.007   6.620 -0.1708  1.3023  0.0643
  131OSM    H5S14109   2.112   1.926   6.582  1.9628 -0.0127 -0.8725
  131OSM    C6S14110   2.253   1.962   6.737 -1.0419 -0.1939  0.3457
  131OSM    H6S14111   2.268   1.853   6.725  1.4722  0.1194  0.0366
  131OSM    H6T14112   2.172   1.968   6.812 -0.4862 -0.3892  0.9622
  131OSM    C7S14113   2.379   2.045   6.784 -0.0717 -0.3484  0.4688
  131OSM    H7S14114   2.379   2.156   6.772  1.0319 -0.1688  1.8476
  131OSM    H7T14115   2.461   2.014   6.716  0.4373  0.8201  0.5149
  131OSM    C8S14116   2.416   2.028   6.933  0.1199 -0.2101  0.8107
  131OSM    H8S14117   2.512   2.079   6.956  1.0207 -1.4201 -0.1784
  131OSM    H8T14118   2.417   1.918   6.945  1.8977 -0.6829 -2.5801
  131OSM    C9S14119   2.309   2.091   7.024 -0.1825 -0.3440 -0.1243
  131OSM    H9S14120   2.216   2.031   7.015 -0.3894  0.1563 -1.6570
  131OSM    H9T14121   2.279   2.193   6.991 -2.8016 -1.2912 -1.0095
  131OSM   C10S14122   2.362   2.107   7.165  0.5993  0.0649  0.2165
  131OSM   H10S14123   2.457   2.163   7.158  1.9426 -2.2085 -0.8464
  131OSM   H10T14124   2.391   2.007   7.202  0.9004 -0.9729 -2.5886
  131OSM   C11S14125   2.261   2.187   7.250 -0.4663  0.2792 -0.0458
  131OSM   H11S14126   2.159   2.144   7.237 -0.7925  1.3293 -1.1582
  131OSM   H11T14127   2.258   2.295   7.225  2.2943 -0.0607 -2.4648
  131OSM   C12S14128   2.311   2.171   7.393 -0.3327  0.1537  0.7131
  131OSM   H12S14129   2.417   2.202   7.401  0.3852 -1.6987 -0.7536
  131OSM   H12T14130   2.291   2.068   7.432 -1.1124  0.2611  0.6052
  131OSM   C13S14131   2.229   2.272   7.475  0.4004  0.6068  0.2623
  131OSM   H13S14132   2.126   2.237   7.452  1.0679 -1.5684  0.4214
  131OSM   H13T14133   2.240   2.375   7.434  0.3520  1.0001  1.1994
  131OSM   C14S14134   2.258   2.261   7.618 -0.1956  0.0711 -0.1910
  131OSM   H14S14135   2.225   2.348   7.678  0.5350 -0.4570  1.0344
  131OSM   H14T14136   2.368   2.274   7.627  0.0720 -1.2740 -1.1864
  131OSM   C15S14137   2.216   2.127   7.699 -0.4393  0.3234 -0.0287
  131OSM   H15S14138   2.268   2.040   7.654 -0.1895  0.0211  0.8389
  131OSM   H15T14139   2.108   2.109   7.678  0.0840 -1.7574 -1.1756
  131OSM   C16S14140   2.234   2.140   7.853 -0.2592  0.1172  0.0865
  131OSM   H16S14141   2.179   2.225   7.898  0.4408 -1.0857  3.5117
  131OSM   H16T14142   2.337   2.174   7.874 -0.6656  1.5689 -0.1946
  131OSM   C17S14143   2.196   2.022   7.935 -0.2247  0.2417 -0.3047
  131OSM   H17S14144   2.247   1.927   7.906  0.2587 -0.4997  2.6649
  131OSM   H17T14145   2.086   2.007   7.931 -0.1549 -0.6132  0.5244
  131OSM   C18S14146   2.228   2.056   8.084 -0.1951 -0.6246 -0.2702
  131OSM   H18S14147   2.334   2.080   8.105  0.3907 -3.1373 -0.0165
  131OSM   H18T14148   2.200   1.971   8.151 -1.9920  2.1043  2.7396
  131OSM   H18U14149   2.161   2.142   8.102  1.0952  0.5800 -1.0546
  131OSM    C1F14150   1.878   2.385   6.626  0.2079  0.3942  0.4067
  131OSM     OF14151   1.770   2.357   6.580  0.4852  0.1238  0.6579
  131OSM    C2F14152   1.899   2.470   6.740 -0.2398 -0.8537  0.2793
  131OSM    H2F14153   1.958   2.559   6.709 -1.3001 -0.9830 -2.3964
  131OSM    H2G14154   1.944   2.415   6.825  1.2975  0.8910  0.6557
  131OSM    C3F14155   1.767   2.546   6.781 -0.3089  0.3580 -0.2411
  131OSM    H3F14156   1.684   2.479   6.813 -0.1613  0.1606 -0.2681
  131OSM    H3G14157   1.720   2.596   6.693  0.5827  1.8251  0.0796
  131OSM    C4F14158   1.803   2.644   6.892 -0.1136  0.1634 -0.1314
  131OSM    H4F14159   1.719   2.711   6.918 -0.6817 -0.7454  0.4642
  131OSM    H4G14160   1.894   2.702   6.868  0.7607 -2.3306 -3.6456
  131OSM    C5F14161   1.832   2.570   7.024  0.0850 -0.0087  0.1418
  131OSM    H5F14162   1.928   2.517   7.006 -0.7124 -1.4171 -0.1438
  131OSM    H5G14163   1.751   2.494   7.023 -0.4678  0.5344 -1.7623
  131OSM    C6F14164   1.839   2.657   7.143 -0.1408  0.2348  0.1921
  131OSM    H6F14165   1.739   2.700   7.164 -0.4592 -1.2710  1.9467
  131OSM    H6G14166   1.924   2.727   7.125 -0.6296  0.7618 -0.1252
  131OSM    C7F14167   1.886   2.592   7.274 -0.4703 -0.1892 -0.6007
  131OSM    H7F14168   1.958   2.514   7.241  0.3906  1.2612 -2.3760
  131OSM    H7G14169   1.803   2.538   7.323 -0.5572 -1.0220 -1.6199
  131OSM    C8F14170   1.949   2.699   7.372  0.3605 -0.8051  0.0226
  131OSM    H8F14171   2.039   2.739   7.321  0.6460 -0.3506  0.8806
  131OSM    H8G14172   1.980   2.654   7.468  1.7762  1.1074  0.5052
  131OSM    C9F14173   1.854   2.808   7.404  0.0221 -0.7576  0.2646
  131OSM    H9F14174   1.779   2.816   7.324  1.4687 -0.3365 -1.0832
  131OSM   C10F14175   1.846   2.897   7.509 -0.3154 -0.0084 -0.4141
  131OSM   H10F14176   1.759   2.964   7.516  0.4062  0.7636  1.7959
  131OSM   C11F14177   1.939   2.905   7.629  1.2882  0.2621 -0.0119
  131OSM   H11F14178   1.984   3.005   7.650 -0.4016  1.1547 -0.4497
  131OSM   H11G14179   2.005   2.816   7.634 -1.2974 -1.6920  1.5964
  131OSM   C12F14180   1.840   2.890   7.742 -0.0441  0.2878 -0.6801
  131OSM   H12F14181   1.803   2.786   7.753  1.7174 -0.2611  0.7010
  131OSM   H12G14182   1.749   2.953   7.747 -0.4715 -0.4066  0.8557
  131OSM   C13F14183   1.917   2.922   7.879 -0.6819  0.5157  1.4537
  131OSM   H13F14184   1.925   3.032   7.883 -0.2362  0.5789 -0.4183
  131OSM   H13G14185   2.019   2.879   7.880 -0.3189  1.3707  1.8647
  131OSM   C14F14186   1.850   2.874   8.009  0.2732 -1.0665  0.0254
  131OSM   H14F14187   1.849   2.763   8.012  2.9094 -1.1385  0.1556
  131OSM   H14G14188   1.747   2.916   8.003  0.2679 -1.1984 -1.1742
  131OSM   C15F14189   1.920   2.936   8.136  0.5201 -0.0610 -0.6742
  131OSM   H15F14190   1.924   3.045   8.116  2.7365 -0.1261 -0.7737
  131OSM   H15G14191   2.024   2.900   8.144  0.3644 -0.3377  0.1714
  131OSM   C16F14192   1.852   2.906   8.274  0.6089  0.5415 -0.3979
  131OSM   H16F14193   1.860   2.796   8.286  0.2474  0.6001  0.4842
  131OSM   H16G14194   1.743   2.929   8.269  1.1346  3.6631  0.5535
  131OSM   C17F14195   1.922   2.975   8.394  0.9701 -0.5258  0.3746
  131OSM   H17F14196   2.028   2.943   8.393  1.1389 -0.0097 -1.3891
  131OSM   H17G14197   1.879   2.919   8.479 -2.8291  0.7384 -0.5050
  131OSM   C18F14198   1.898   3.124   8.407  0.4309  0.1488 -0.2170
  131OSM   H18F14199   1.793   3.159   8.393  0.2751  1.0745  2.7255
  131OSM   H18G14200   1.951   3.181   8.328 -0.1871 -1.3938 -1.8135
  131OSM   H18H14201   1.932   3.159   8.506  0.1730 -1.2353  0.3754
  132OSM      N14202   4.466   5.183   6.077  0.1082  0.4250 -0.5378
  132OSM    C1514203   4.393   5.296   6.030  0.1983  0.1947  0.0841
  132OSM   H15A14204   4.391   5.283   5.923 -0.5637 -0.6115  0.1849
  132OSM   H15B14205   4.445   5.388   6.051 -1.3516  0.8997  1.0341
  132OSM   H15C14206   4.294   5.326   6.062  0.5715  1.2480  0.3159
  132OSM    C1414207   4.385   5.060   6.048  0.1667 -1.1950  0.2275
  132OSM   H14A14208   4.424   4.983   6.112  1.1035 -0.4952  0.5314
  132OSM   H14B14209   4.393   5.020   5.948  0.4930  1.3921 -0.8552
  132OSM   H14C14210   4.280   5.074   6.070  0.7842  0.9171  2.2240
  132OSM    C1314211   4.603   5.165   6.026  0.8852 -0.5487  0.3141
  132OSM   H13A14212   4.597   5.128   5.924  0.0376  1.8488 -0.5664
  132OSM   H13B14213   4.659   5.095   6.086  1.1405 -1.3083 -0.7608
  132OSM   H13C14214   4.663   5.254   6.019  0.5256 -0.1172  2.3505
  132OSM    C1214215   4.473   5.197   6.228 -0.4687 -0.1952  0.6005
  132OSM   H12A14216   4.369   5.200   6.257 -0.2638 -2.4633  1.8146
  132OSM   H12B14217   4.523   5.289   6.253 -0.3998  0.1469 -0.7286
  132OSM    C1114218   4.544   5.089   6.313  0.5333  0.1592  0.1019
  132OSM   H11A14219   4.565   5.123   6.417  0.8946 -1.3261  0.5370
  132OSM   H11B14220   4.644   5.061   6.275  1.6249  0.3697  2.6262
  132OSM      P14221   4.329   4.956   6.398  0.1967 -0.1877 -0.4375
  132OSM    O1314222   4.241   5.076   6.378 -0.1377 -0.0966  0.1032
  132OSM    O1414223   4.274   4.826   6.353 -0.2967  0.1489 -0.3288
  132OSM    O1114224   4.365   4.946   6.546 -0.2796  0.1647 -0.2416
  132OSM    O1214225   4.459   4.974   6.315  0.2636  0.0119 -0.0503
  132OSM    C1S14226   4.488   4.897   6.592 -0.4424  0.6042  0.3428
  132OSM    H1S14227   4.568   4.961   6.548 -0.8797 -0.2336 -1.7814
  132OSM    H1T14228   4.504   4.793   6.556 -0.8437  1.2188 -1.7426
  132OSM     NF14229   4.631   4.892   6.802 -0.1326  0.2933  0.3891
  132OSM    HNF14230   4.661   4.806   6.843  2.4276  0.6389 -0.6002
  132OSM    C2S14231   4.493   4.900   6.753  0.6035  0.2880 -0.1880
  132OSM    H2S14232   4.447   4.998   6.777 -0.2584 -0.4175  1.1419
  132OSM    C3S14233   4.398   4.786   6.809  0.3213  0.3056 -0.3888
  132OSM    H3S14234   4.445   4.693   6.772 -1.0504 -0.0860 -1.2362
  132OSM     O314235   4.262   4.786   6.759  0.0953 -0.1356 -0.8155
  132OSM    HO314236   4.266   4.847   6.686 -0.8800  0.4245 -0.4249
  132OSM    C4S14237   4.390   4.782   6.960  0.4606 -0.4330  0.9095
  132OSM    H4S14238   4.311   4.838   7.014 -0.3611 -0.8606  0.1749
  132OSM    C5S14239   4.469   4.705   7.043  0.2824  0.0982 -0.5993
  132OSM    H5S14240   4.540   4.632   7.001 -0.6640 -0.6274 -0.9819
  132OSM    C6S14241   4.460   4.700   7.194  0.5296  0.2028  0.7408
  132OSM    H6S14242   4.565   4.719   7.225  2.5514 -1.5300 -4.0914
  132OSM    H6T14243   4.444   4.594   7.224 -2.5328  0.1112 -0.8237
  132OSM    C7S14244   4.347   4.773   7.259  0.4017 -0.3918 -0.1416
  132OSM    H7S14245   4.252   4.743   7.210 -0.0376 -1.6756  1.3885
  132OSM    H7T14246   4.368   4.882   7.253 -1.2917  0.1434  2.0859
  132OSM    C8S14247   4.332   4.739   7.409  1.0752 -0.6056  0.4223
  132OSM    H8S14248   4.428   4.765   7.458  0.1613  0.6976  1.5868
  132OSM    H8T14249   4.306   4.631   7.418 -2.6365 -0.1474 -2.3653
  132OSM    C9S14250   4.223   4.813   7.471 -0.0234 -0.6686 -0.1105
  132OSM    H9S14251   4.126   4.766   7.443 -0.5504  0.8343 -0.9098
  132OSM    H9T14252   4.220   4.919   7.439 -1.0110 -0.3753  0.8729
  132OSM   C10S14253   4.233   4.819   7.620  0.2324  0.7707 -0.1700
  132OSM   H10S14254   4.309   4.893   7.654 -0.3206  1.9412 -1.3493
  132OSM   H10T14255   4.244   4.718   7.663  0.3695  0.7345 -0.2881
  132OSM   C11S14256   4.108   4.865   7.700  0.5623  0.4225  0.1574
  132OSM   H11S14257   4.020   4.810   7.660 -0.6056  1.2053  1.5448
  132OSM   H11T14258   4.082   4.971   7.679  1.0347  0.6920  0.8806
  132OSM   C12S14259   4.110   4.846   7.850 -0.1030  0.0624 -0.8138
  132OSM   H12S14260   4.211   4.853   7.896 -0.4513 -2.6602  0.5584
  132OSM   H12T14261   4.072   4.745   7.878  0.0129  0.8728  2.6758
  132OSM   C13S14262   4.013   4.940   7.916  0.1021 -0.3046  0.7003
  132OSM   H13S14263   3.924   4.953   7.850  1.4639 -0.1410 -1.1840
  132OSM   H13T14264   4.061   5.040   7.921  0.4169 -0.3813 -0.4825
  132OSM   C14S14265   3.968   4.892   8.056  0.2588 -0.0352 -0.2956
  132OSM   H14S14266   4.061   4.880   8.117 -0.9902 -1.8263  1.4154
  132OSM   H14T14267   3.923   4.790   8.053 -0.6999  0.2759  1.6676
  132OSM   C15S14268   3.866   4.989   8.119  0.2135  0.0635  0.0417
  132OSM   H15S14269   3.771   4.992   8.061  0.9506  1.7249 -1.1348
  132OSM   H15T14270   3.904   5.092   8.106 -1.4148  0.7884  0.7223
  132OSM   C16S14271   3.853   4.947   8.262  0.1833 -0.2964 -0.0291
  132OSM   H16S14272   3.830   4.839   8.275 -0.2076 -0.1391  0.6168
  132OSM   H16T14273   3.774   5.005   8.313 -0.9173 -1.0205 -0.8823
  132OSM   C17S14274   3.976   4.956   8.358 -0.1774 -0.1532  0.0727
  132OSM   H17S14275   4.057   4.883   8.335 -0.8724 -0.9013 -0.0665
  132OSM   H17T14276   3.947   4.915   8.458 -1.6216 -0.9053 -0.6184
  132OSM   C18S14277   4.030   5.102   8.367 -0.1842 -0.3053  0.0937
  132OSM   H18S14278   4.069   5.136   8.268  0.4033 -1.1864  0.0098
  132OSM   H18T14279   4.101   5.104   8.452 -3.8745  0.6595  3.4260
  132OSM   H18U14280   3.958   5.180   8.401 -0.1879 -0.2957  0.0659
  132OSM    C1F14281   4.725   4.981   6.778 -0.6622  0.0418  0.6739
  132OSM     OF14282   4.707   5.080   6.703  0.2904 -0.2457 -0.3325
  132OSM    C2F14283   4.849   4.962   6.846  0.0412  0.3641 -0.0368
  132OSM    H2F14284   4.933   4.978   6.775 -0.1031 -0.4116 -0.3972
  132OSM    H2G14285   4.854   4.857   6.884  0.3020 -0.9812 -3.4105
  132OSM    C3F14286   4.867   5.053   6.970  0.1345 -0.1526 -0.6932
  132OSM    H3F14287   4.886   5.158   6.937  0.2635  0.0112 -0.1084
  132OSM    H3G14288   4.957   5.014   7.022  1.4463  2.7909 -0.5334
  132OSM    C4F14289   4.751   5.046   7.073  0.0749  0.6810 -0.5790
  132OSM    H4F14290   4.749   4.945   7.120 -2.7258  0.7273 -0.4288
  132OSM    H4G14291   4.649   5.060   7.030  0.0190 -0.3965 -0.8199
  132OSM    C5F14292   4.768   5.139   7.191  0.0314  0.1914 -0.5372
  132OSM    H5F14293   4.746   5.236   7.141  1.7058  0.9364  0.0907
  132OSM    H5G14294   4.877   5.133   7.209 -0.2718 -1.8134  0.9696
  132OSM    C6F14295   4.701   5.102   7.319  0.3806  0.2987 -0.1063
  132OSM    H6F14296   4.759   5.019   7.365 -0.4648  0.0466  0.5282
  132OSM    H6G14297   4.595   5.073   7.304  0.7848 -2.0145  1.1504
  132OSM    C7F14298   4.696   5.217   7.421  0.0561  0.5576 -0.1188
  132OSM    H7F14299   4.636   5.301   7.381 -0.1711 -0.5179 -2.2128
  132OSM    H7G14300   4.802   5.248   7.436  0.0574  0.3444  0.3480
  132OSM    C8F14301   4.641   5.166   7.559  0.4598 -0.0522  0.0609
  132OSM    H8F14302   4.699   5.081   7.600 -0.8531 -0.2107  1.6471
  132OSM    H8G14303   4.537   5.135   7.536  1.4430 -1.0423 -3.9232
  132OSM    C9F14304   4.661   5.282   7.652 -0.4609 -0.4673  0.7407
  132OSM    H9F14305   4.743   5.349   7.624  1.2012 -2.3240  0.9941
  132OSM   C10F14306   4.590   5.300   7.765  0.1304  0.0140 -0.5923
  132OSM   H10F14307   4.591   5.400   7.810 -1.1857 -1.0068  1.9148
  132OSM   C11F14308   4.479   5.213   7.813  0.3689  0.5418  0.1370
  132OSM   H11F14309   4.485   5.109   7.775  0.5150  1.2326 -1.8157
  132OSM   H11G14310   4.381   5.256   7.782 -0.4859 -1.4721 -0.1433
  132OSM   C12F14311   4.483   5.208   7.963 -0.8886  0.0727  0.9408
  132OSM   H12F14312   4.467   5.313   7.995 -1.3683  0.0364  0.8311
  132OSM   H12G14313   4.583   5.169   7.991  0.4542 -0.4846 -3.7783
  132OSM   C13F14314   4.372   5.121   8.030 -0.3424 -0.0474  0.5702
  132OSM   H13F14315   4.381   5.023   7.979  1.2846 -0.6420  1.8624
  132OSM   H13G14316   4.274   5.169   8.011 -0.6729 -0.6906  0.6121
  132OSM   C14F14317   4.372   5.095   8.182 -1.0319 -0.0687 -0.1029
  132OSM   H14F14318   4.272   5.051   8.201 -1.3618  0.4441 -0.6376
  132OSM   H14G14319   4.377   5.190   8.239 -2.6510 -1.2069  2.1165
  132OSM   C15F14320   4.489   4.994   8.220 -0.4827  0.0194  0.0404
  132OSM   H15F14321   4.584   5.043   8.188  0.4259 -1.2755  0.6693
  132OSM   H15G14322   4.481   4.905   8.155  2.2739 -0.9382  0.8841
  132OSM   C16F14323   4.495   4.970   8.373 -0.2683  0.3054 -0.0997
  132OSM   H16F14324   4.398   4.935   8.413 -0.4295  0.5679 -0.2593
  132OSM   H16G14325   4.515   5.063   8.429  2.5339 -0.3387  0.1538
  132OSM   C17F14326   4.612   4.873   8.420 -0.5255  0.2508 -0.0286
  132OSM   H17F14327   4.592   4.772   8.379 -1.4939  0.4325 -0.0356
  132OSM   H17G14328   4.608   4.855   8.529  1.9410  1.3313  0.2900
  132OSM   C18F14329   4.753   4.912   8.395 -0.1134  0.2222 -0.5271
  132OSM   H18F14330   4.760   5.014   8.438 -1.6748  0.3907 -0.6143
  132OSM   H18G14331   4.791   4.902   8.291  0.5475  1.2540 -0.4039
  132OSM   H18H14332   4.827   4.849   8.450  0.0382 -1.3682 -2.4199
  133OSM      N14333   4.653   6.024   6.280 -0.2632 -0.0620  0.0718
  133OSM    C1514334   4.720   5.934   6.183 -0.2856  0.6916  0.5696
  133OSM   H15A14335   4.805   5.984   6.139 -0.3973  1.3519  1.0772
  133OSM   H15B14336   4.644   5.920   6.107 -1.5489  0.2588  1.8631
  133OSM   H15C14337   4.743   5.838   6.225 -1.7873  0.8262  1.7790
  133OSM    C1414338   4.737   6.040   6.400  0.3791 -0.1749  0.1255
  133OSM   H14A14339   4.737   5.946   6.453 -1.1427  0.5795  1.5434
  133OSM   H14B14340   4.699   6.116   6.467 -0.1790 -0.5634  0.2510
  133OSM   H14C14341   4.836   6.060   6.362 -0.5535  0.5758 -2.0514
  133OSM    C1314342   4.621   6.149   6.218 -0.2788 -0.2886 -0.3014
  133OSM   H13A14343   4.701   6.218   6.197  0.9899 -2.3041 -2.5432
  133OSM   H13B14344   4.559   6.202   6.289  1.1214  0.7156  0.2217
  133OSM   H13C14345   4.564   6.144   6.127 -0.3160  2.7535 -0.5369
  133OSM    C1214346   4.531   5.954   6.334  0.9459 -0.2237 -0.5131
  133OSM   H12A14347   4.444   5.943   6.272 -1.0571  0.9466  1.8818
  133OSM   H12B14348   4.492   6.019   6.411  0.1214 -2.5868  1.1728
  133OSM    C1114349   4.543   5.810   6.394 -0.3795  0.6145  0.1830
  133OSM   H11A14350   4.447   5.781   6.441  1.3775 -2.5064  2.1507
  133OSM   H11B14351   4.624   5.816   6.469 -0.4240  1.8574  0.1516
  133OSM      P14352   4.515   5.590   6.259  0.2220 -0.1110  0.3008
  133OSM    O1314353   4.386   5.633   6.205  0.2632 -0.6342 -0.4409
  133OSM    O1414354   4.595   5.506   6.163  0.3037 -0.0727 -0.4646
  133OSM    O1114355   4.504   5.512   6.392  0.5871 -0.0269 -0.2072
  133OSM    O1214356   4.595   5.715   6.297  0.5994  0.3934 -0.3647
  133OSM    C1S14357   4.625   5.455   6.444  0.8270 -1.1222 -0.7949
  133OSM    H1S14358   4.713   5.522   6.438  1.7971 -2.0248  1.8770
  133OSM    H1T14359   4.646   5.359   6.393  1.1621 -1.9568  0.8447
  133OSM     NF14360   4.723   5.346   6.633  0.2985  0.2890 -0.7568
  133OSM    HNF14361   4.708   5.248   6.623 -0.0483  0.4324 -1.7257
  133OSM    C2S14362   4.612   5.424   6.604  0.2662  0.1011  0.1781
  133OSM    H2S14363   4.615   5.528   6.645  1.3429  0.0130  0.3426
  133OSM    C3S14364   4.478   5.354   6.646 -0.0690 -0.9044  0.0925
  133OSM    H3S14365   4.460   5.265   6.581 -0.4678  1.1939 -2.8530
  133OSM     O314366   4.360   5.436   6.618 -0.2745 -0.1328  0.2983
  133OSM    HO314367   4.408   5.488   6.553  0.3564 -1.2873 -0.1787
  133OSM    C4S14368   4.482   5.313   6.796 -0.6289  0.3258 -0.0945
  133OSM    H4S14369   4.519   5.211   6.817 -2.4638 -0.1920  0.7678
  133OSM    C5S14370   4.429   5.383   6.896 -0.2110 -0.7096 -0.8702
  133OSM    H5S14371   4.387   5.477   6.860  1.2773  0.7855  1.0611
  133OSM    C6S14372   4.419   5.356   7.047  0.1378  0.1502 -0.2004
  133OSM    H6S14373   4.367   5.440   7.098  0.3924 -1.1418  2.3568
  133OSM    H6T14374   4.518   5.344   7.097  0.8576  2.4509 -0.9752
  133OSM    C7S14375   4.335   5.224   7.064 -0.0381 -0.6584  0.0274
  133OSM    H7S14376   4.407   5.142   7.043 -0.4716 -1.1536  0.4858
  133OSM    H7T14377   4.238   5.224   7.011 -1.5280 -0.6084  2.6068
  133OSM    C8S14378   4.295   5.209   7.218  1.3003  0.3894  0.4907
  133OSM    H8S14379   4.369   5.260   7.282 -0.3320 -0.7020  3.4374
  133OSM    H8T14380   4.306   5.101   7.244  0.6854 -0.0028 -0.7893
  133OSM    C9S14381   4.152   5.254   7.251  0.4756  0.2811 -0.0497
  133OSM    H9S14382   4.084   5.219   7.171  0.5601 -0.2564  0.1076
  133OSM    H9T14383   4.143   5.364   7.258  0.4752  0.2076  1.3261
  133OSM   C10S14384   4.100   5.210   7.391  0.0629  0.3305 -0.5779
  133OSM   H10S14385   4.181   5.238   7.461  1.6201 -1.5805 -1.5369
  133OSM   H10T14386   4.093   5.101   7.412  2.6457  0.0290 -1.0047
  133OSM   C11S14387   3.974   5.285   7.436 -0.3082  0.6693  0.2014
  133OSM   H11S14388   3.904   5.268   7.351  0.9193 -1.1766 -0.4998
  133OSM   H11T14389   3.989   5.395   7.446 -2.0715  0.7361  3.0405
  133OSM   C12S14390   3.907   5.241   7.566  0.5273 -0.0474  0.1141
  133OSM   H12S14391   3.987   5.259   7.641 -0.6795  3.2599  0.8178
  133OSM   H12T14392   3.872   5.139   7.542 -3.1745  0.9013  0.7830
  133OSM   C13S14393   3.771   5.309   7.597 -0.1316 -0.5564 -0.5044
  133OSM   H13S14394   3.695   5.278   7.522 -2.3492 -1.4058  1.9617
  133OSM   H13T14395   3.765   5.420   7.598  0.4542 -0.5262 -0.4891
  133OSM   C14S14396   3.715   5.269   7.738  0.1388 -0.6365 -0.0693
  133OSM   H14S14397   3.767   5.174   7.759  0.7105 -0.0189  1.5253
  133OSM   H14T14398   3.606   5.254   7.721  0.3689 -0.2004 -2.1163
  133OSM   C15S14399   3.746   5.380   7.851 -0.6993  0.4725  0.3247
  133OSM   H15S14400   3.699   5.480   7.840 -0.0547  1.1989  3.2001
  133OSM   H15T14401   3.853   5.398   7.829 -1.3575  2.0654 -1.9487
  133OSM   C16S14402   3.750   5.338   7.995 -0.4576  0.3360  0.2098
  133OSM   H16S14403   3.832   5.388   8.049 -0.5882  1.4059 -0.5545
  133OSM   H16T14404   3.774   5.230   7.984  1.3549  0.7891 -0.6137
  133OSM   C17S14405   3.620   5.346   8.072  1.0003 -0.5379  0.7265
  133OSM   H17S14406   3.545   5.275   8.031  0.0709  0.3087  0.9249
  133OSM   H17T14407   3.580   5.449   8.073  0.9573 -0.5514  0.3562
  133OSM   C18S14408   3.634   5.311   8.219  0.2207  0.3216 -0.1623
  133OSM   H18S14409   3.683   5.391   8.278  1.3630  1.3205 -2.3608
  133OSM   H18T14410   3.713   5.236   8.240  1.5589  1.4317 -1.0874
  133OSM   H18U14411   3.533   5.285   8.260 -0.4303 -0.1285 -1.9650
  133OSM    C1F14412   4.844   5.395   6.638 -0.3036 -0.2318  0.7794
  133OSM     OF14413   4.859   5.517   6.636  0.0639 -0.5251  0.0684
  133OSM    C2F14414   4.957   5.290   6.628  0.3049  0.4313  0.2674
  133OSM    H2F14415   4.954   5.242   6.528 -0.5720 -0.6580  0.7989
  133OSM    H2G14416   4.949   5.211   6.705  1.8029  0.1646  0.1855
  133OSM    C3F14417   5.088   5.364   6.651  0.4837  0.6088  0.1009
  133OSM    H3F14418   5.085   5.410   6.752  0.6731  2.1445 -0.5603
  133OSM    H3G14419   5.101   5.446   6.577 -0.5266  0.3748 -0.3552
  133OSM    C4F14420   5.212   5.271   6.657  0.3976  0.5604  0.2910
  133OSM    H4F14421   5.303   5.328   6.628 -0.5012  0.8287 -2.3569
  133OSM    H4G14422   5.203   5.202   6.571  1.9906 -1.6274  1.7948
  133OSM    C5F14423   5.227   5.194   6.790 -0.0411 -0.0506  0.0701
  133OSM    H5F14424   5.294   5.112   6.756  0.2929  0.5765 -0.8213
  133OSM    H5G14425   5.135   5.141   6.823 -0.9609 -0.9447 -3.4475
  133OSM    C6F14426   5.293   5.274   6.897 -0.0234  0.7813 -0.0816
  133OSM    H6F14427   5.221   5.355   6.923  0.1136  0.6296  0.7981
  133OSM    H6G14428   5.385   5.323   6.860  1.4691 -1.9768 -0.2877
  133OSM    C7F14429   5.350   5.192   7.014 -0.3918  0.2244 -0.7401
  133OSM    H7F14430   5.412   5.265   7.070  0.7875 -1.8840  0.8484
  133OSM    H7G14431   5.426   5.122   6.973 -1.4683 -1.2685 -0.2625
  133OSM    C8F14432   5.240   5.126   7.100  0.4210  0.0207 -0.3050
  133OSM    H8F14433   5.275   5.055   7.178 -1.8327 -2.0947 -1.0891
  133OSM    H8G14434   5.183   5.052   7.040  1.6285  0.6107 -2.2641
  133OSM    C9F14435   5.149   5.229   7.163  0.0506  0.4823  0.1829
  133OSM    H9F14436   5.065   5.266   7.103 -0.5940  1.3166  1.5785
  133OSM   C10F14437   5.157   5.271   7.290  0.4067  0.1969 -0.1009
  133OSM   H10F14438   5.075   5.334   7.329 -0.2771 -1.1534  0.6998
  133OSM   C11F14439   5.257   5.228   7.393  0.2779  0.2240  0.4554
  133OSM   H11F14440   5.277   5.316   7.457 -0.9850  1.3332 -0.6158
  133OSM   H11G14441   5.356   5.202   7.350  0.8810  0.4235  1.6795
  133OSM   C12F14442   5.207   5.114   7.481 -0.3598  0.0255 -0.5516
  133OSM   H12F14443   5.294   5.104   7.550  0.1029  0.6034 -1.0385
  133OSM   H12G14444   5.204   5.023   7.418 -1.1932 -0.2099 -0.1843
  133OSM   C13F14445   5.073   5.132   7.548  0.2590  0.2815  0.0836
  133OSM   H13F14446   4.993   5.108   7.474  2.5816 -0.5308 -2.3631
  133OSM   H13G14447   5.060   5.237   7.582 -0.5937  0.5246 -0.9230
  133OSM   C14F14448   5.059   5.052   7.674  0.0013 -0.3569 -0.0869
  133OSM   H14F14449   5.152   5.045   7.733 -1.4377  1.7218  2.6745
  133OSM   H14G14450   5.031   4.947   7.651 -1.0086 -0.3276  0.9081
  133OSM   C15F14451   4.967   5.120   7.776 -0.2384  0.1763 -0.5618
  133OSM   H15F14452   4.868   5.137   7.728 -1.5590  0.7547  2.1733
  133OSM   H15G14453   5.015   5.211   7.818 -2.3704 -0.3806  3.5415
  133OSM   C16F14454   4.944   5.027   7.901  0.1627  0.5281 -0.1307
  133OSM   H16F14455   4.897   4.927   7.892  0.3403 -0.0766  3.7522
  133OSM   H16G14456   4.890   5.090   7.975  0.3355  0.7768 -0.2165
  133OSM   C17F14457   5.077   4.994   7.977  0.1059 -0.3097  0.4544
  133OSM   H17F14458   5.141   5.084   7.973 -2.1787  1.3834 -0.9871
  133OSM   H17G14459   5.128   4.911   7.924 -1.1339 -0.0296 -1.2745
  133OSM   C18F14460   5.053   4.951   8.121 -0.9649  0.0148  0.2167
  133OSM   H18F14461   5.008   4.850   8.134  0.6779 -0.5934  1.4708
  133OSM   H18G14462   4.998   5.027   8.180  0.2174 -0.8199  2.4937
  133OSM   H18H14463   5.152   4.939   8.170 -0.3249  0.2103 -0.9877
  134OSM      N14464   6.001   1.028   6.372  0.5229  0.9150 -0.2805
  134OSM    C1514465   6.011   1.055   6.226 -0.6030 -0.5267 -0.2177
  134OSM   H15A14466   6.099   1.116   6.208 -1.9840  1.3166 -1.0282
  134OSM   H15B14467   5.925   1.110   6.190 -2.0799 -0.6840  2.7846
  134OSM   H15C14468   6.021   0.966   6.166  2.6963 -0.8805  0.6324
  134OSM    C1414469   6.131   0.968   6.413  0.0928  0.1595 -0.1437
  134OSM   H14A14470   6.212   1.037   6.392 -0.6750  1.0240 -0.3057
  134OSM   H14B14471   6.160   0.880   6.357 -1.2467 -0.3391 -0.0847
  134OSM   H14C14472   6.138   0.956   6.520  0.5544  3.3613  0.2898
  134OSM    C1314473   5.973   1.154   6.443 -0.5333 -0.7793 -0.3222
  134OSM   H13A14474   5.960   1.143   6.550 -1.4476  0.0464 -0.3440
  134OSM   H13B14475   5.881   1.200   6.410 -0.3910 -0.7676 -0.7088
  134OSM   H13C14476   6.047   1.232   6.429  0.0239 -0.8542  1.8130
  134OSM    C1214477   5.879   0.940   6.385  0.5626 -0.0637  0.0747
  134OSM   H12A14478   5.898   0.849   6.329  0.5286 -0.3811  0.5764
  134OSM   H12B14479   5.795   0.991   6.341  0.1676 -1.2954 -0.6731
  134OSM    C1114480   5.827   0.894   6.518 -0.2771  0.3324  0.4643
  134OSM   H11A14481   5.902   0.833   6.573 -0.7732  1.2851  2.3123
  134OSM   H11B14482   5.739   0.826   6.508 -0.4177  0.6207 -0.2945
  134OSM      P14483   5.645   1.035   6.639  0.2982  0.3701  0.4050
  134OSM    O1314484   5.650   1.147   6.735  0.3339  0.3244  0.4484
  134OSM    O1414485   5.583   1.068   6.506 -0.2827  0.3444 -0.1173
  134OSM    O1114486   5.580   0.907   6.699 -0.2117  0.6144 -0.0963
  134OSM    O1214487   5.792   0.996   6.606 -0.0799  0.2757  0.1531
  134OSM    C1S14488   5.639   0.857   6.829 -0.1610 -0.4437  0.1110
  134OSM    H1S14489   5.608   0.925   6.911 -2.6455  0.9525 -1.8063
  134OSM    H1T14490   5.750   0.860   6.826 -0.1721 -0.7815 -1.3067
  134OSM     NF14491   5.665   0.682   6.986 -0.2897 -0.0234  0.3044
  134OSM    HNF14492   5.760   0.654   6.976 -0.3541  0.2805 -1.3743
  134OSM    C2S14493   5.598   0.711   6.860  0.1467  0.2990  0.7294
  134OSM    H2S14494   5.488   0.708   6.879 -0.4777 -0.0807 -2.4679
  134OSM    C3S14495   5.629   0.621   6.739 -0.3498 -0.0933 -0.2811
  134OSM    H3S14496   5.730   0.633   6.696  0.1252 -0.9485  0.5586
  134OSM     O314497   5.531   0.649   6.640  0.0409  0.1119 -0.4210
  134OSM    HO314498   5.501   0.736   6.669  3.6021  1.8301 -1.3332
  134OSM    C4S14499   5.612   0.472   6.770  0.2060 -0.0205  0.3384
  134OSM    H4S14500   5.513   0.465   6.819 -2.0199  3.1342 -3.1089
  134OSM    C5S14501   5.690   0.366   6.752 -1.0988 -0.3664  0.3413
  134OSM    H5S14502   5.789   0.379   6.707 -1.8211  0.7686 -0.9702
  134OSM    C6S14503   5.657   0.224   6.794 -0.1123  0.1116  0.2025
  134OSM    H6S14504   5.726   0.189   6.874  2.0688  2.5203 -0.5077
  134OSM    H6T14505   5.679   0.156   6.708 -0.1936  1.3338 -0.8118
  134OSM    C7S14506   5.515   0.187   6.840 -0.4562  0.4139  0.7872
  134OSM    H7S14507   5.444   0.219   6.761  0.9748  0.6692 -0.4554
  134OSM    H7T14508   5.486   0.264   6.915 -1.0466  1.8164 -0.7981
  134OSM    C8S14509   5.499   0.037   6.875 -0.0643  0.6123 -0.0493
  134OSM    H8S14510   5.542  -0.019   6.790 -0.1861 -0.6970  0.7269
  134OSM    H8T14511   5.392   0.007   6.881  0.1966 -0.5288 -0.8863
  134OSM    C9S14512   5.569   0.003   7.009 -0.3772 -0.6890 -0.7710
  134OSM    H9S14513   5.678   0.022   7.004 -0.2982 -1.4980 -3.2136
  134OSM    H9T14514   5.574  -0.108   7.018  3.9499 -0.5295  1.1443
  134OSM   C10S14515   5.492   0.047   7.133 -0.4803 -0.1639 -0.3452
  134OSM   H10S14516   5.389   0.005   7.127 -0.5672  0.0915 -0.6885
  134OSM   H10T14517   5.493   0.158   7.144  1.4984 -0.3078  1.7818
  134OSM   C11S14518   5.558  -0.001   7.261  0.5727 -0.8535  0.1682
  134OSM   H11S14519   5.655   0.051   7.269  0.2098 -0.0731 -0.4175
  134OSM   H11T14520   5.582  -0.109   7.251 -0.0444 -1.2095  2.0890
  134OSM   C12S14521   5.477   0.033   7.387 -0.3617 -0.2963 -0.1723
  134OSM   H12S14522   5.368   0.018   7.374 -0.4574 -1.6944  1.7737
  134OSM   H12T14523   5.500   0.141   7.401 -0.1445 -0.3343 -0.2283
  134OSM   C13S14524   5.515  -0.040   7.515  0.3116  0.0131 -0.4729
  134OSM   H13S14525   5.622  -0.015   7.535  0.6253 -2.3554  1.3781
  134OSM   H13T14526   5.495  -0.149   7.502  0.1057  0.0581 -0.5325
  134OSM   C14S14527   5.441  -0.002   7.643  0.6402 -0.0195  0.5938
  134OSM   H14S14528   5.334  -0.026   7.624  0.9550 -0.0854 -1.3322
  134OSM   H14T14529   5.449   0.109   7.651 -1.3016  0.3114 -1.1015
  134OSM   C15S14530   5.495  -0.076   7.767 -0.1728  0.1379  0.5298
  134OSM   H15S14531   5.603  -0.057   7.785  0.0450 -1.5837  1.2154
  134OSM   H15T14532   5.486  -0.186   7.751  3.2817  0.2598 -4.3020
  134OSM   C16S14533   5.405  -0.030   7.889  0.6266 -0.1075 -0.3930
  134OSM   H16S14534   5.427  -0.101   7.971 -1.9757  0.4289  0.8596
  134OSM   H16T14535   5.298  -0.044   7.863  0.0556  0.4838  1.4892
  134OSM   C17S14536   5.436   0.109   7.932  0.0911  0.3967  0.0738
  134OSM   H17S14537   5.407   0.180   7.852 -2.4626  1.1002  1.5094
  134OSM   H17T14538   5.544   0.122   7.955 -0.7361  1.2809  4.4152
  134OSM   C18S14539   5.346   0.156   8.041 -0.0376  0.1113  1.1323
  134OSM   H18S14540   5.243   0.143   8.001  0.8236  1.8218 -2.0444
  134OSM   H18T14541   5.363   0.265   8.054 -0.0535 -0.0658  2.9001
  134OSM   H18U14542   5.352   0.095   8.133  1.1435 -0.8059  0.4706
  134OSM    C1F14543   5.623   0.725   7.101  0.6441 -0.0869  0.0770
  134OSM     OF14544   5.513   0.784   7.108 -0.1595  0.3275  0.1040
  134OSM    C2F14545   5.702   0.709   7.229 -0.4553 -0.7703  0.5836
  134OSM    H2F14546   5.706   0.807   7.283  0.5165 -1.0406  1.0342
  134OSM    H2G14547   5.803   0.671   7.204  0.2951  1.0054  0.7676
  134OSM    C3F14548   5.645   0.603   7.319  0.6527 -0.1071  1.0817
  134OSM    H3F14549   5.645   0.510   7.259 -1.2347  1.9503 -2.4031
  134OSM    H3G14550   5.536   0.616   7.335  0.2877 -1.0506 -0.4750
  134OSM    C4F14551   5.722   0.578   7.451  0.0458 -0.0140  0.2799
  134OSM    H4F14552   5.720   0.667   7.518  1.2544 -0.7171  1.2999
  134OSM    H4G14553   5.830   0.565   7.425 -0.2711  0.0275 -1.1285
  134OSM    C5F14554   5.679   0.451   7.524  0.2381  0.3602  0.2966
  134OSM    H5F14555   5.721   0.360   7.475  2.0082 -1.2899  4.4357
  134OSM    H5G14556   5.569   0.448   7.534  0.2373  0.0398  0.2248
  134OSM    C6F14557   5.727   0.435   7.669  0.2919 -0.0265  0.4684
  134OSM    H6F14558   5.837   0.440   7.674  0.4213 -0.1840 -1.5404
  134OSM    H6G14559   5.696   0.334   7.705  0.5795  0.3653  1.8677
  134OSM    C7F14560   5.670   0.554   7.752 -0.3061 -0.0712 -0.4989
  134OSM    H7F14561   5.560   0.552   7.736 -0.1904  0.7069 -1.4609
  134OSM    H7G14562   5.715   0.648   7.715  0.9725 -0.6659 -0.5116
  134OSM    C8F14563   5.706   0.556   7.909  0.3807 -0.0929  0.1503
  134OSM    H8F14564   5.816   0.555   7.920  0.5935  0.4400 -1.6272
  134OSM    H8G14565   5.659   0.462   7.947  2.3630 -1.6483 -1.0381
  134OSM    C9F14566   5.678   0.679   7.991 -0.0295 -0.4384 -0.0800
  134OSM    H9F14567   5.732   0.771   7.961 -2.4187  0.8313 -0.7068
  134OSM   C10F14568   5.602   0.689   8.108 -0.5055  0.0781 -0.2173
  134OSM   H10F14569   5.587   0.783   8.163 -2.9128 -0.2119 -0.3128
  134OSM   C11F14570   5.527   0.578   8.171  0.2277 -0.0475 -0.0083
  134OSM   H11F14571   5.492   0.517   8.086 -1.7967 -0.7169  1.2316
  134OSM   H11G14572   5.428   0.603   8.215  0.2387  1.0525 -0.5712
  134OSM   C12F14573   5.616   0.504   8.270  0.0384 -0.1516  0.0058
  134OSM   H12F14574   5.549   0.444   8.336  0.3946  1.5752  2.0492
  134OSM   H12G14575   5.660   0.582   8.336  0.9181 -1.2860  0.8083
  134OSM   C13F14576   5.721   0.421   8.196 -0.0975 -0.5291  0.0539
  134OSM   H13F14577   5.790   0.483   8.134 -1.5252 -0.2463 -1.3032
  134OSM   H13G14578   5.664   0.357   8.126  0.6559 -0.0786 -1.0063
  134OSM   C14F14579   5.805   0.334   8.282 -0.2408 -0.0675  0.4320
  134OSM   H14F14580   5.748   0.253   8.331 -0.3366 -0.4468 -0.2938
  134OSM   H14G14581   5.849   0.392   8.367  1.0028  1.2924 -1.0578
  134OSM   C15F14582   5.931   0.279   8.198  0.2502  0.2254 -0.4411
  134OSM   H15F14583   5.978   0.207   8.269 -0.1957  0.0757 -0.2978
  134OSM   H15G14584   6.010   0.357   8.187  1.3199 -0.7779 -0.1297
  134OSM   C16F14585   5.892   0.200   8.068  0.0475 -0.1581  0.4491
  134OSM   H16F14586   5.830   0.262   7.999  0.3255 -4.0974 -3.7945
  134OSM   H16G14587   5.828   0.116   8.104  0.6001 -0.1853  1.3848
  134OSM   C17F14588   6.011   0.146   7.998  0.4362 -0.0302 -0.5005
  134OSM   H17F14589   6.047   0.056   8.052  0.2998 -0.2794 -0.8211
  134OSM   H17G14590   6.095   0.220   7.994  1.8448 -1.5383  0.0411
  134OSM   C18F14591   5.974   0.110   7.857 -0.2736  0.2633 -0.0038
  134OSM   H18F14592   6.044   0.034   7.817 -0.3375 -0.4207  1.1279
  134OSM   H18G14593   5.995   0.193   7.786  0.7764  0.0087 -0.0082
  134OSM   H18H14594   5.871   0.071   7.845 -0.3270  0.1139  0.8306
  135OSM      N14595   5.164   0.627   6.367  0.1747  0.4380  0.5902
  135OSM    C1514596   5.024   0.606   6.416  0.9070 -0.0362 -0.3531
  135OSM   H15A14597   4.996   0.708   6.435 -3.5867 -1.3306  1.3276
  135OSM   H15B14598   5.017   0.553   6.511  2.0347  1.5393  0.6516
  135OSM   H15C14599   4.958   0.571   6.339 -0.1848 -1.1074  1.0054
  135OSM    C1414600   5.198   0.505   6.287  0.4079 -0.2893  0.1838
  135OSM   H14A14601   5.124   0.471   6.216 -0.3440  2.9441 -0.7060
  135OSM   H14B14602   5.214   0.418   6.350  1.9641 -1.7694 -2.1139
  135OSM   H14C14603   5.290   0.520   6.234  2.0161 -4.1103  1.5310
  135OSM    C1314604   5.173   0.740   6.275  0.7440  0.2135  0.3735
  135OSM   H13A14605   5.151   0.833   6.326 -1.0276 -1.0900  2.1413
  135OSM   H13B14606   5.120   0.722   6.183  0.9118 -1.5272  0.5835
  135OSM   H13C14607   5.273   0.751   6.236  0.8478 -0.4145  0.4601
  135OSM    C1214608   5.255   0.640   6.485  0.2309  0.4076 -0.1793
  135OSM   H12A14609   5.356   0.653   6.448  0.2088 -0.0801 -0.4088
  135OSM   H12B14610   5.271   0.543   6.528  0.6354  0.4099 -0.3154
  135OSM    C1114611   5.222   0.756   6.578  0.3391  0.3049 -0.1555
  135OSM   H11A14612   5.284   0.754   6.670  1.5755 -0.9482 -0.9694
  135OSM   H11B14613   5.119   0.741   6.617  0.8750  0.6049  1.4525
  135OSM      P14614   5.141   1.000   6.554  0.4379 -0.0471  0.4691
  135OSM    O1314615   5.192   1.126   6.498  0.1173 -0.1817  0.2401
  135OSM    O1414616   5.005   0.965   6.512 -0.2336  0.3916  0.0851
  135OSM    O1114617   5.135   1.000   6.713 -0.0951 -0.2066 -0.1739
  135OSM    O1214618   5.241   0.885   6.512  0.0275 -0.1241  0.1480
  135OSM    C1S14619   5.257   1.011   6.788 -0.7154  0.0713  0.0701
  135OSM    H1S14620   5.289   1.116   6.776 -1.8186  0.8398  3.1285
  135OSM    H1T14621   5.333   0.933   6.765 -1.4769 -0.8376  0.5696
  135OSM     NF14622   5.381   1.022   7.008  0.4878 -0.4999 -0.2657
  135OSM    HNF14623   5.418   0.954   7.071 -0.1868 -0.0264  0.6757
  135OSM    C2S14624   5.256   0.988   6.942  0.2354  0.1748 -0.2034
  135OSM    H2S14625   5.180   1.058   6.982  0.8616 -0.1282  1.5875
  135OSM    C3S14626   5.204   0.842   6.960  0.3297  0.2784 -0.2618
  135OSM    H3S14627   5.278   0.778   6.907  0.0997  0.7509 -1.1623
  135OSM     O314628   5.073   0.821   6.900  0.2601 -0.5436 -0.0672
  135OSM    HO314629   5.070   0.888   6.831 -0.5842  0.4454  0.8847
  135OSM    C4S14630   5.198   0.820   7.112 -0.3998  0.9232  0.2714
  135OSM    H4S14631   5.291   0.777   7.153  0.6667  0.7478 -2.1917
  135OSM    C5S14632   5.095   0.844   7.188  0.2366 -0.1084  0.3425
  135OSM    H5S14633   5.001   0.877   7.141 -0.6875 -0.3901  1.8856
  135OSM    C6S14634   5.089   0.821   7.333 -0.8289  0.6143 -0.9696
  135OSM    H6S14635   5.065   0.713   7.348  1.1373  0.1055 -1.1398
  135OSM    H6T14636   5.001   0.872   7.377  0.4787  0.8135  1.6492
  135OSM    C7S14637   5.206   0.849   7.424 -1.4796  0.2190  0.1940
  135OSM    H7S14638   5.227   0.958   7.428  0.6833 -0.1483  0.2468
  135OSM    H7T14639   5.303   0.798   7.403 -0.9182  0.9589  0.9162
  135OSM    C8S14640   5.161   0.812   7.571  0.1668 -0.1435 -0.4510
  135OSM    H8S14641   5.142   0.702   7.578 -1.8081  0.0571 -1.9814
  135OSM    H8T14642   5.064   0.857   7.601  1.3102  0.0512  3.4680
  135OSM    C9S14643   5.257   0.869   7.679 -0.2971  0.7270  0.7379
  135OSM    H9S14644   5.222   0.853   7.783 -3.1209  1.1286 -0.0654
  135OSM    H9T14645   5.269   0.978   7.660 -2.0029  0.9464  0.7746
  135OSM   C10S14646   5.402   0.815   7.663  0.3482  0.3891 -0.0585
  135OSM   H10S14647   5.456   0.817   7.567  1.1756  1.3025  0.4152
  135OSM   H10T14648   5.390   0.705   7.678 -1.4112  0.3009 -1.7487
  135OSM   C11S14649   5.491   0.871   7.773 -0.8553  0.8749  0.0630
  135OSM   H11S14650   5.596   0.839   7.757 -0.4240  2.1119  0.3093
  135OSM   H11T14651   5.462   0.829   7.871  1.6158  1.4941  1.1262
  135OSM   C12S14652   5.488   1.028   7.783  0.2919  0.3442  0.3659
  135OSM   H12S14653   5.383   1.053   7.808 -1.0078 -2.2809 -1.9826
  135OSM   H12T14654   5.513   1.065   7.682 -0.7633 -0.6434 -0.2790
  135OSM   C13S14655   5.597   1.082   7.886  1.0468 -0.3453  0.0960
  135OSM   H13S14656   5.693   1.034   7.858 -0.2019 -2.5353 -0.7332
  135OSM   H13T14657   5.572   1.058   7.991  0.5913  0.4829  0.1828
  135OSM   C14S14658   5.606   1.234   7.872 -0.1944  0.5056 -0.5443
  135OSM   H14S14659   5.505   1.277   7.887  0.1485  1.0066  0.4288
  135OSM   H14T14660   5.638   1.249   7.767 -0.0864 -1.7555 -0.8856
  135OSM   C15S14661   5.702   1.311   7.963 -0.7378  0.7944  0.3251
  135OSM   H15S14662   5.640   1.319   8.055 -1.7206  0.6459 -0.3017
  135OSM   H15T14663   5.726   1.410   7.921 -0.7293 -0.3196 -2.5440
  135OSM   C16S14664   5.836   1.243   7.975  0.3195  0.3454 -0.2993
  135OSM   H16S14665   5.869   1.219   7.871 -0.4233 -3.0428  0.1305
  135OSM   H16T14666   5.835   1.146   8.028  0.6891 -0.7925 -2.2641
  135OSM   C17S14667   5.935   1.336   8.046  0.8652  0.5159  0.4183
  135OSM   H17S14668   5.940   1.444   8.020  1.2016  0.3647 -0.1604
  135OSM   H17T14669   6.036   1.299   8.018 -0.2845 -2.6623  0.0639
  135OSM   C18S14670   5.929   1.322   8.203  0.5623  0.1611 -0.0923
  135OSM   H18S14671   5.826   1.343   8.239  1.0935 -0.1802  1.6819
  135OSM   H18T14672   5.986   1.403   8.254  1.4788 -0.2738 -0.4010
  135OSM   H18U14673   5.953   1.218   8.233 -0.3296 -0.3259 -0.9980
  135OSM    C1F14674   5.436   1.147   7.016  0.3695  0.8467  0.2796
  135OSM     OF14675   5.388   1.244   6.965 -0.3929  0.0203 -0.7927
  135OSM    C2F14676   5.564   1.164   7.095  0.1365  0.0880 -0.1431
  135OSM    H2F14677   5.640   1.214   7.032  0.0805  0.7260  0.2885
  135OSM    H2G14678   5.613   1.068   7.121  1.2914  0.9781  1.1397
  135OSM    C3F14679   5.553   1.240   7.229 -0.0111  0.0853  0.5280
  135OSM    H3F14680   5.527   1.346   7.210 -0.5154 -0.2441 -0.7493
  135OSM    H3G14681   5.652   1.242   7.279  0.4469  0.5189 -0.3794
  135OSM    C4F14682   5.448   1.185   7.324 -0.8462  0.1384 -0.6723
  135OSM    H4F14683   5.482   1.085   7.358 -0.2705  0.2115 -1.0347
  135OSM    H4G14684   5.353   1.176   7.266 -0.4273 -0.9531 -1.2045
  135OSM    C5F14685   5.431   1.274   7.447  0.9710  0.2053  0.2394
  135OSM    H5F14686   5.442   1.378   7.408 -0.8332  0.3278 -0.0342
  135OSM    H5G14687   5.514   1.257   7.519  2.1023 -0.0859 -1.0633
  135OSM    C6F14688   5.298   1.267   7.517  0.2577 -0.1938 -0.3907
  135OSM    H6F14689   5.270   1.161   7.540 -0.3706  0.2463  1.0074
  135OSM    H6G14690   5.219   1.303   7.447 -0.2623 -0.4467  0.0552
  135OSM    C7F14691   5.276   1.351   7.642  0.1951  0.3339 -0.2733
  135OSM    H7F14692   5.307   1.455   7.617  0.1240 -0.1978 -2.7326
  135OSM    H7G14693   5.331   1.311   7.731  1.9451 -1.7860 -2.1929
  135OSM    C8F14694   5.123   1.346   7.680 -0.0412 -0.8952 -0.6632
  135OSM    H8F14695   5.101   1.238   7.697 -0.3948 -0.6644  0.4907
  135OSM    H8G14696   5.055   1.365   7.594 -1.2542 -0.6489  0.3197
  135OSM    C9F14697   5.087   1.434   7.799 -0.5659  0.6563  0.5902
  135OSM    H9F14698   5.042   1.530   7.770 -0.3290 -0.0781 -2.5033
  135OSM   C10F14699   5.092   1.398   7.929  0.4946  0.0522  0.1840
  135OSM   H10F14700   5.060   1.471   8.006 -2.1699 -0.1310 -0.6311
  135OSM   C11F14701   5.146   1.271   7.997 -0.4740  0.7124 -0.0353
  135OSM   H11F14702   5.185   1.207   7.915 -1.4072 -0.0284  0.0774
  135OSM   H11G14703   5.063   1.218   8.048 -1.5336  2.5607  0.2296
  135OSM   C12F14704   5.270   1.300   8.095 -0.2151 -0.2675  0.0979
  135OSM   H12F14705   5.248   1.375   8.173  2.4832  0.5245  0.1902
  135OSM   H12G14706   5.348   1.352   8.035  0.0714 -0.9613 -0.1473
  135OSM   C13F14707   5.319   1.172   8.155  0.2870 -0.1880 -0.0006
  135OSM   H13F14708   5.362   1.116   8.070  1.7841  2.5502 -1.1766
  135OSM   H13G14709   5.235   1.111   8.195  0.3839 -0.3578 -0.0584
  135OSM   C14F14710   5.416   1.194   8.269  0.1983  0.8504 -0.3564
  135OSM   H14F14711   5.474   1.285   8.241  1.3888 -0.4923 -2.5444
  135OSM   H14G14712   5.488   1.110   8.270 -0.7674 -0.0031  1.1643
  135OSM   C15F14713   5.366   1.215   8.408 -0.7100 -0.3198 -0.8096
  135OSM   H15F14714   5.303   1.127   8.431 -0.7354 -0.4094 -1.2137
  135OSM   H15G14715   5.301   1.305   8.415  1.5554  1.3714 -0.2759
  135OSM   C16F14716   5.488   1.237   8.494 -0.4508 -0.2948 -1.0340
  135OSM   H16F14717   5.571   1.288   8.441  0.8854 -0.0805  1.1294
  135OSM   H16G14718   5.539   1.143   8.524 -0.3842 -0.5045 -1.7851
  135OSM   C17F14719   5.460   1.325   8.616 -0.6511  0.3093 -0.4729
  135OSM   H17F14720   5.379   1.277   8.676 -3.5996  0.5038 -3.9574
  135OSM   H17G14721   5.430   1.428   8.587 -1.9696 -0.1216 -0.7174
  135OSM   C18F14722   5.589   1.340   8.699  0.3779  0.6380 -0.6420
  135OSM   H18F14723   5.612   1.244   8.750  0.6540  1.3956  0.6941
  135OSM   H18G14724   5.574   1.430   8.762  0.5148  0.8882 -0.9639
  135OSM   H18H14725   5.671   1.366   8.628  0.3949  0.5848 -0.6419
  136OSM      N14726   4.161   1.864   6.315 -0.5346  0.2336  0.5152
  136OSM    C1514727   4.257   1.906   6.203  0.4872 -0.5638  0.1874
  136OSM   H15A14728   4.350   1.938   6.246 -0.7762  1.1089  1.8670
  136OSM   H15B14729   4.200   1.987   6.160  0.1712 -0.3433  0.9979
  136OSM   H15C14730   4.270   1.824   6.134  0.4812 -1.3877  1.1344
  136OSM    C1414731   4.036   1.835   6.243  0.8435  0.1300  0.4405
  136OSM   H14A14732   4.042   1.752   6.174  2.2925  1.3656 -0.9779
  136OSM   H14B14733   3.995   1.913   6.182  0.9635 -1.8475 -2.3500
  136OSM   H14C14734   3.952   1.797   6.299 -0.5965  0.7379 -1.2492
  136OSM    C1314735   4.221   1.734   6.368 -0.1042 -1.1509  0.2522
  136OSM   H13A14736   4.163   1.686   6.445 -0.7522 -0.8401 -0.0321
  136OSM   H13B14737   4.321   1.751   6.406 -0.0658 -2.2358  0.6644
  136OSM   H13C14738   4.230   1.660   6.290 -0.0337 -1.0107  0.1253
  136OSM    C1214739   4.141   1.971   6.417 -0.5935 -0.3756  0.6026
  136OSM   H12A14740   4.232   1.982   6.475  0.4219 -0.8574 -0.8163
  136OSM   H12B14741   4.063   1.932   6.480 -1.0696  0.1153  0.3289
  136OSM    C1114742   4.104   2.109   6.369  0.1040 -0.0265 -0.3616
  136OSM   H11A14743   4.190   2.154   6.316  0.7879  0.8962  1.4357
  136OSM   H11B14744   4.093   2.170   6.461 -1.0351 -0.9384  0.1321
  136OSM      P14745   3.924   2.255   6.261  0.0826 -0.0159  0.1030
  136OSM    O1314746   4.033   2.359   6.276  0.4278 -0.3445 -0.0013
  136OSM    O1414747   3.867   2.246   6.124 -0.0368 -0.1706  0.0919
  136OSM    O1114748   3.813   2.279   6.372  0.2086 -0.3847 -0.3629
  136OSM    O1214749   3.982   2.113   6.295  0.9967 -0.5466  0.4102
  136OSM    C1S14750   3.717   2.174   6.388 -0.5242 -0.0497  0.6208
  136OSM    H1S14751   3.763   2.076   6.411  3.2128  0.8538 -2.0241
  136OSM    H1T14752   3.653   2.172   6.297  2.7270  0.9960 -1.8767
  136OSM     NF14753   3.557   2.096   6.562  0.4047 -0.3938  0.2827
  136OSM    HNF14754   3.466   2.082   6.521  1.1387 -1.5563 -1.0682
  136OSM    C2S14755   3.625   2.211   6.512  0.1067  0.2891 -0.4384
  136OSM    H2S14756   3.692   2.249   6.592  1.6192 -3.2644  0.1622
  136OSM    C3S14757   3.521   2.323   6.468  0.4002 -0.2562 -0.5145
  136OSM    H3S14758   3.450   2.276   6.397 -0.7173 -1.6141  1.4163
  136OSM     O314759   3.568   2.431   6.393  0.1560 -0.0377 -0.8786
  136OSM    HO314760   3.657   2.397   6.378 -0.1394 -1.2053 -0.1386
  136OSM    C4S14761   3.452   2.383   6.588 -0.1481  0.0308  0.8745
  136OSM    H4S14762   3.525   2.398   6.669  2.1691 -0.8550 -0.9378
  136OSM    C5S14763   3.323   2.421   6.605 -0.0903  0.3069 -0.3584
  136OSM    H5S14764   3.246   2.414   6.526  1.0395 -0.1672 -1.4414
  136OSM    C6S14765   3.283   2.478   6.739  0.2171 -0.0236 -0.0635
  136OSM    H6S14766   3.173   2.458   6.744  0.2346  0.1871  2.5353
  136OSM    H6T14767   3.294   2.588   6.747 -0.2147  0.1047 -1.1103
  136OSM    C7S14768   3.335   2.414   6.866 -0.3123 -0.4723 -0.2945
  136OSM    H7S14769   3.444   2.435   6.877 -0.5672  0.1413  1.3670
  136OSM    H7T14770   3.325   2.304   6.850  0.8140 -0.9618  1.8777
  136OSM    C8S14771   3.279   2.447   7.003  0.1856  0.1739 -0.3805
  136OSM    H8S14772   3.168   2.437   7.003  0.1713  0.3385 -0.7322
  136OSM    H8T14773   3.314   2.549   7.033  0.6899 -0.0942 -0.0491
  136OSM    C9S14774   3.334   2.363   7.110  0.3262  0.4089 -0.6870
  136OSM    H9S14775   3.443   2.382   7.125  1.3807 -2.3200 -3.7159
  136OSM    H9T14776   3.326   2.257   7.078 -0.4121 -0.4337  2.0056
  136OSM   C10S14777   3.257   2.373   7.245 -0.2923 -0.3483 -0.6027
  136OSM   H10S14778   3.301   2.291   7.306 -0.9561  0.0283  0.4104
  136OSM   H10T14779   3.151   2.343   7.231 -1.0570  2.2507 -0.8764
  136OSM   C11S14780   3.260   2.511   7.323 -0.1753  0.4556  0.3973
  136OSM   H11S14781   3.202   2.579   7.256  0.4029  2.0726  1.4618
  136OSM   H11T14782   3.359   2.556   7.347 -0.5020  1.1617  0.4605
  136OSM   C12S14783   3.202   2.510   7.461  0.0171 -0.2970 -0.4953
  136OSM   H12S14784   3.092   2.494   7.456 -0.7895  1.8608  4.3347
  136OSM   H12T14785   3.210   2.614   7.499 -0.2833 -0.5743  0.3551
  136OSM   C13S14786   3.280   2.410   7.558  0.3169  0.7535  0.0463
  136OSM   H13S14787   3.389   2.427   7.542  0.5723 -1.6413 -1.2119
  136OSM   H13T14788   3.275   2.307   7.517 -0.4652  1.0048 -0.5128
  136OSM   C14S14789   3.236   2.407   7.710  0.6495 -0.0670 -0.1590
  136OSM   H14S14790   3.299   2.336   7.768 -0.8483  0.3754  2.1780
  136OSM   H14T14791   3.129   2.378   7.720  0.9692 -0.8849  1.1429
  136OSM   C15S14792   3.252   2.538   7.778 -0.0534 -0.1141 -0.1452
  136OSM   H15S14793   3.215   2.624   7.718  3.0016  0.8147 -0.8693
  136OSM   H15T14794   3.361   2.554   7.797 -0.6319  1.0850  2.7658
  136OSM   C16S14795   3.188   2.547   7.917  1.0746 -0.2577  0.3472
  136OSM   H16S14796   3.078   2.555   7.912  0.8781 -0.6824  2.5823
  136OSM   H16T14797   3.225   2.641   7.965 -0.6683  1.0288 -0.7427
  136OSM   C17S14798   3.234   2.430   8.004  0.1891  0.4724  0.4607
  136OSM   H17S14799   3.341   2.406   7.985 -0.6450 -3.1926 -0.4785
  136OSM   H17T14800   3.177   2.342   7.967 -0.3009  0.8596  0.2865
  136OSM   C18S14801   3.211   2.450   8.150 -0.2205 -0.1020  0.1805
  136OSM   H18S14802   3.275   2.379   8.206 -0.0405  1.0876  1.5492
  136OSM   H18T14803   3.109   2.426   8.187 -0.4306  0.7892  0.2049
  136OSM   H18U14804   3.231   2.555   8.178  0.4117 -0.2641  0.3495
  136OSM    C1F14805   3.607   2.003   6.642 -0.0458 -0.2275  0.4795
  136OSM     OF14806   3.721   2.017   6.680 -0.0410 -0.0277 -0.3462
  136OSM    C2F14807   3.523   1.888   6.685  0.8158  0.2323 -0.3846
  136OSM    H2F14808   3.476   1.832   6.601  1.2874  0.0275 -0.5198
  136OSM    H2G14809   3.439   1.926   6.746  0.3500  1.0881 -1.5276
  136OSM    C3F14810   3.599   1.781   6.777  0.4521 -0.4230 -0.0363
  136OSM    H3F14811   3.645   1.835   6.863 -0.2129 -2.0925  1.4329
  136OSM    H3G14812   3.682   1.729   6.723  1.2049 -0.7678  1.4054
  136OSM    C4F14813   3.501   1.678   6.838 -0.3251 -0.3057  0.4851
  136OSM    H4F14814   3.445   1.619   6.761 -0.3179 -2.2867  1.9179
  136OSM    H4G14815   3.434   1.725   6.913  1.1943 -1.9000  2.9904
  136OSM    C5F14816   3.583   1.574   6.911 -0.2559  0.7302  0.4587
  136OSM    H5F14817   3.629   1.630   6.994  0.9571  1.7325 -0.8370
  136OSM    H5G14818   3.652   1.522   6.839 -1.9767 -4.8621  2.3017
  136OSM    C6F14819   3.498   1.454   6.975  0.0219  0.4096 -0.3953
  136OSM    H6F14820   3.574   1.402   7.037  0.1816  2.0642  0.8816
  136OSM    H6G14821   3.457   1.374   6.911 -3.1705 -0.5858  2.6170
  136OSM    C7F14822   3.396   1.497   7.078  0.5523 -0.2705  0.2787
  136OSM    H7F14823   3.363   1.402   7.127  3.8253 -1.2361  0.8686
  136OSM    H7G14824   3.313   1.553   7.029  1.0974 -0.1291 -0.4809
  136OSM    C8F14825   3.449   1.590   7.186 -0.7900  0.1433  0.4132
  136OSM    H8F14826   3.495   1.681   7.142 -0.5057  0.2631  0.9513
  136OSM    H8G14827   3.535   1.546   7.240  1.6707  0.9416 -2.5573
  136OSM    C9F14828   3.344   1.630   7.289  0.9408  0.5673 -0.1813
  136OSM    H9F14829   3.282   1.718   7.264  0.5898  0.0946 -1.0115
  136OSM   C10F14830   3.334   1.575   7.415 -1.2239  0.1020  0.4431
  136OSM   H10F14831   3.249   1.608   7.477 -1.5073  1.0927 -0.4447
  136OSM   C11F14832   3.425   1.464   7.477  0.5798 -0.0563 -0.0173
  136OSM   H11F14833   3.517   1.510   7.520  0.8340 -1.3967  0.9289
  136OSM   H11G14834   3.467   1.393   7.403 -0.4025 -1.5509  0.8152
  136OSM   C12F14835   3.358   1.397   7.599 -0.2913  0.0002  0.0275
  136OSM   H12F14836   3.433   1.328   7.642 -0.1772  1.8560  3.1299
  136OSM   H12G14837   3.268   1.334   7.581  1.0175 -1.5881 -1.2564
  136OSM   C13F14838   3.331   1.495   7.714 -0.2619  0.5430  0.0007
  136OSM   H13F14839   3.237   1.551   7.696  0.3533  2.5036  2.3739
  136OSM   H13G14840   3.408   1.574   7.711 -0.8865  1.1330 -1.0342
  136OSM   C14F14841   3.328   1.427   7.843  0.3038 -0.2255  0.0813
  136OSM   H14F14842   3.423   1.372   7.864 -0.2436 -1.1165  0.2590
  136OSM   H14G14843   3.246   1.353   7.841 -0.1826  0.2986  0.3798
  136OSM   C15F14844   3.305   1.517   7.965  0.5522  0.4030  0.4360
  136OSM   H15F14845   3.211   1.577   7.966 -1.3124 -2.3590  0.1717
  136OSM   H15G14846   3.388   1.590   7.958  0.3056  0.7466  1.0292
  136OSM   C16F14847   3.311   1.451   8.100  0.2441  0.9973 -0.0336
  136OSM   H16F14848   3.400   1.385   8.098  1.1766  2.1275  2.0231
  136OSM   H16G14849   3.219   1.389   8.110  1.4186 -0.7387  0.3422
  136OSM   C17F14850   3.323   1.544   8.224 -0.6229 -0.6676 -0.2146
  136OSM   H17F14851   3.289   1.645   8.192 -1.4248 -1.3842 -1.7418
  136OSM   H17G14852   3.427   1.571   8.253 -1.1149 -1.7521  3.0057
  136OSM   C18F14853   3.248   1.509   8.350  0.6710  0.2705  0.4517
  136OSM   H18F14854   3.298   1.569   8.429 -1.8471  1.9498  0.8836
  136OSM   H18G14855   3.262   1.399   8.357 -0.1850  0.1083 -0.2151
  136OSM   H18H14856   3.140   1.534   8.349  0.5340 -0.2990  0.1830
  137OSM      N14857   0.146   5.716   6.518 -0.5558 -0.2417  0.3609
  137OSM    C1514858   0.260   5.748   6.417 -0.5866  0.1642  0.3092
  137OSM   H15A14859   0.351   5.700   6.448  0.2759  2.0772  0.9101
  137OSM   H15B14860   0.272   5.855   6.410 -0.1402  0.4006  3.4169
  137OSM   H15C14861   0.221   5.714   6.322 -2.2291  0.3693  0.8710
  137OSM    C1414862   0.124   5.570   6.522  0.0112 -0.4530 -0.1946
  137OSM   H14A14863   0.124   5.522   6.425 -1.9514 -0.5276 -0.2138
  137OSM   H14B14864   0.037   5.540   6.580 -0.5867 -0.3438 -1.0117
  137OSM   H14C14865   0.201   5.515   6.574 -0.6909 -1.5069 -0.2335
  137OSM    C1314866   0.173   5.763   6.655  0.3334 -0.4932  0.7690
  137OSM   H13A14867   0.106   5.727   6.732 -0.1242  1.9210  1.5850
  137OSM   H13B14868   0.154   5.869   6.663 -1.1762 -0.5466 -1.3794
  137OSM   H13C14869   0.271   5.739   6.694  0.2099  0.7828  1.9440
  137OSM    C1214870   0.014   5.783   6.478 -0.2997 -0.6809  0.3905
  137OSM   H12A14871  -0.019   5.748   6.381  0.7870  2.1305 -1.1212
  137OSM   H12B14872   0.031   5.890   6.470 -0.3846 -0.8014 -2.3716
  137OSM    C1114873  -0.102   5.769   6.580 -0.4259  0.3132 -0.1995
  137OSM   H11A14874  -0.082   5.683   6.647  3.0357  2.7636  2.2594
  137OSM   H11B14875  -0.191   5.758   6.515 -1.1051  4.9323 -0.4296
  137OSM      P14876  -0.155   6.022   6.593 -0.1328 -0.6156  0.3676
  137OSM    O1314877  -0.061   6.066   6.492 -0.0045  0.6861 -0.0008
  137OSM    O1414878  -0.296   6.019   6.550 -0.2706 -0.4095  0.4704
  137OSM    O1114879  -0.147   6.119   6.711 -0.7345 -0.3792  0.5852
  137OSM    O1214880  -0.117   5.886   6.659  0.4799  0.4938  0.2483
  137OSM    C1S14881  -0.192   6.098   6.847 -0.4781  0.3727 -0.0614
  137OSM    H1S14882  -0.208   5.991   6.868 -0.2072 -0.3461 -3.0495
  137OSM    H1T14883  -0.280   6.164   6.863  0.2909  1.7000 -1.0448
  137OSM     NF14884  -0.150   6.126   7.085  0.1718 -0.0116 -0.1757
  137OSM    HNF14885  -0.187   6.210   7.125  2.2663  0.5528  0.7088
  137OSM    C2S14886  -0.087   6.142   6.958  0.9152  0.1857 -0.5817
  137OSM    H2S14887  -0.008   6.066   6.943 -0.6663 -1.5657 -0.3392
  137OSM    C3S14888  -0.024   6.281   6.929 -0.2291  0.0263 -0.6714
  137OSM    H3S14889  -0.106   6.356   6.936  1.0942  1.3671  1.7187
  137OSM     O314890   0.035   6.288   6.799 -0.2019 -0.5276  0.0651
  137OSM    HO314891  -0.016   6.243   6.731  2.6276  0.7865 -3.2489
  137OSM    C4S14892   0.082   6.309   7.031  0.0330 -0.6730  0.2671
  137OSM    H4S14893   0.174   6.249   7.034  0.7079  0.3619  2.6532
  137OSM    C5S14894   0.071   6.390   7.136  0.8809  0.4315 -0.0116
  137OSM    H5S14895  -0.029   6.433   7.147  0.2375 -0.9171 -0.3878
  137OSM    C6S14896   0.180   6.400   7.244  0.3270 -0.0568 -0.8113
  137OSM    H6S14897   0.227   6.500   7.241 -0.1642  0.2555  0.8215
  137OSM    H6T14898   0.264   6.329   7.233 -0.3578 -0.7017 -2.1941
  137OSM    C7S14899   0.132   6.372   7.388  0.1162 -0.0564 -0.1648
  137OSM    H7S14900   0.071   6.279   7.386  2.0271 -1.3978  0.3507
  137OSM    H7T14901   0.051   6.443   7.416 -0.8174 -1.7438  1.6832
  137OSM    C8S14902   0.238   6.358   7.500  0.8888 -0.1075 -0.1121
  137OSM    H8S14903   0.313   6.441   7.504  1.8130 -0.9688  1.7103
  137OSM    H8T14904   0.296   6.264   7.496  1.4395  0.2272 -0.1820
  137OSM    C9S14905   0.176   6.354   7.642 -0.2079  0.0276 -0.0007
  137OSM    H9S14906   0.098   6.276   7.655 -0.9251  0.5109 -1.2588
  137OSM    H9T14907   0.117   6.449   7.649 -0.1047  0.2528 -1.6832
  137OSM   C10S14908   0.278   6.327   7.751 -0.2303  0.1916 -0.1740
  137OSM   H10S14909   0.363   6.397   7.734  1.9051 -2.7149 -2.5952
  137OSM   H10T14910   0.328   6.229   7.735 -1.3641 -0.8518  2.1362
  137OSM   C11S14911   0.222   6.337   7.897  0.3987  0.1939 -0.0469
  137OSM   H11S14912   0.152   6.251   7.906 -0.7873  0.8813 -2.0768
  137OSM   H11T14913   0.168   6.434   7.901  2.0091  1.0986  1.0990
  137OSM   C12S14914   0.325   6.346   8.014  0.6263 -0.3910 -0.0698
  137OSM   H12S14915   0.371   6.447   8.015  0.7636 -0.4464  1.5030
  137OSM   H12T14916   0.400   6.267   7.992 -0.0733 -1.2069  0.4097
  137OSM   C13S14917   0.276   6.307   8.151 -0.5179  0.1188  0.9593
  137OSM   H13S14918   0.366   6.315   8.215  0.6591  1.4999 -0.7906
  137OSM   H13T14919   0.231   6.205   8.156 -1.7939  0.6780  1.4552
  137OSM   C14S14920   0.189   6.406   8.219  0.5580 -0.4976  0.6987
  137OSM   H14S14921   0.092   6.396   8.168  0.5355 -1.3532  0.8931
  137OSM   H14T14922   0.218   6.513   8.208 -0.1096 -0.1439  2.0569
  137OSM   C15S14923   0.185   6.373   8.368  0.0152  0.7661 -0.1186
  137OSM   H15S14924   0.286   6.370   8.416  0.8100  0.5534 -1.7433
  137OSM   H15T14925   0.138   6.275   8.389  1.6936 -0.4866 -1.8468
  137OSM   C16S14926   0.105   6.472   8.447  0.2107  0.2624  0.0707
  137OSM   H16S14927   0.005   6.482   8.399  0.5256 -0.5424 -0.7908
  137OSM   H16T14928   0.155   6.571   8.444  1.9664 -0.6109 -0.4777
  137OSM   C17S14929   0.093   6.438   8.594  0.3770  0.8770  0.3195
  137OSM   H17S14930   0.192   6.460   8.639  0.7114  1.8204 -0.8215
  137OSM   H17T14931   0.065   6.332   8.605  2.2499  0.3082 -0.0815
  137OSM   C18S14932  -0.008   6.521   8.675 -0.1098  0.4956 -0.1251
  137OSM   H18S14933  -0.114   6.503   8.648 -0.5231  1.9847  0.3868
  137OSM   H18T14934   0.009   6.631   8.675 -2.3879  0.9024  0.8020
  137OSM   H18U14935  -0.009   6.480   8.778  1.5392 -0.0837 -0.2998
  137OSM    C1F14936  -0.162   6.005   7.145  0.1523 -0.5966  0.4556
  137OSM     OF14937  -0.139   5.903   7.086 -0.0900  0.3458 -0.4318
  137OSM    C2F14938  -0.204   6.002   7.290 -0.1309  0.2262  0.4917
  137OSM    H2F14939  -0.290   5.932   7.299 -0.6849  0.7692 -0.3517
  137OSM    H2G14940  -0.233   6.101   7.329  0.2750  1.0349 -1.1604
  137OSM    C3F14941  -0.100   5.944   7.381 -0.5081  0.3911 -0.3416
  137OSM    H3F14942   0.006   5.975   7.364 -0.0005 -1.2981 -0.4643
  137OSM    H3G14943  -0.095   5.836   7.355  2.4464  0.4011 -0.1793
  137OSM    C4F14944  -0.142   5.975   7.527 -0.5869  0.9690  0.2838
  137OSM    H4F14945  -0.248   5.947   7.544 -0.5411  2.2020  2.9909
  137OSM    H4G14946  -0.127   6.080   7.559 -2.7755  0.9537  1.5282
  137OSM    C5F14947  -0.048   5.890   7.625  0.2417 -1.0686 -0.8621
  137OSM    H5F14948   0.056   5.927   7.618  0.2724 -0.9770 -0.0743
  137OSM    H5G14949  -0.055   5.782   7.596  0.9283 -1.0088 -1.2772
  137OSM    C6F14950  -0.099   5.907   7.774  0.0506  0.7003  0.2776
  137OSM    H6F14951  -0.191   5.843   7.772  2.3234 -2.8662 -2.3992
  137OSM    H6G14952  -0.128   6.012   7.796  0.4773  1.1496 -1.2198
  137OSM    C7F14953  -0.004   5.848   7.871  0.3677 -0.3710  0.2255
  137OSM    H7F14954   0.081   5.917   7.888 -0.6900  1.1524 -0.4055
  137OSM    H7G14955   0.034   5.759   7.817  1.8241  0.2561  0.1673
  137OSM    C8F14956  -0.060   5.808   8.003  0.0200 -0.0229  0.1087
  137OSM    H8F14957   0.023   5.778   8.070  0.1543  2.9000  1.3636
  137OSM    H8G14958  -0.122   5.717   7.987 -1.3379  1.2553 -2.6431
  137OSM    C9F14959  -0.122   5.922   8.074  0.6276 -0.2602 -0.4855
  137OSM    H9F14960  -0.099   6.021   8.032  0.8146  0.1320  0.4996
  137OSM   C10F14961  -0.150   5.921   8.206 -0.6292 -0.1031 -0.9216
  137OSM   H10F14962  -0.201   6.009   8.248  0.6322  0.1947  0.0518
  137OSM   C11F14963  -0.135   5.812   8.318 -0.2811 -0.5738  0.2755
  137OSM   H11F14964  -0.084   5.861   8.404  2.1261 -1.2610 -0.6724
  137OSM   H11G14965  -0.063   5.734   8.285  0.6595 -0.1268  1.2126
  137OSM   C12F14966  -0.268   5.754   8.347 -0.0570 -0.7891 -0.0138
  137OSM   H12F14967  -0.289   5.664   8.286 -0.7609 -0.9234  0.4165
  137OSM   H12G14968  -0.349   5.830   8.338  1.6178  0.8940 -1.8725
  137OSM   C13F14969  -0.279   5.695   8.493 -0.0285  0.0872  0.0314
  137OSM   H13F14970  -0.295   5.776   8.567 -1.3423  0.0589 -0.2106
  137OSM   H13G14971  -0.186   5.639   8.519  0.3636  0.6601 -0.1153
  137OSM   C14F14972  -0.398   5.612   8.525 -0.1462 -0.1610 -0.1880
  137OSM   H14F14973  -0.411   5.576   8.629 -0.6149  2.7077  0.8244
  137OSM   H14G14974  -0.389   5.520   8.463 -1.2588 -0.1858 -0.3333
  137OSM   C15F14975  -0.541   5.665   8.486  0.8040 -0.7960  0.3203
  137OSM   H15F14976  -0.566   5.664   8.378 -1.4632  1.1379  0.7456
  137OSM   H15G14977  -0.544   5.774   8.506  0.2577 -0.5004 -1.2611
  137OSM   C16F14978  -0.660   5.605   8.555 -0.3559  0.4441  0.1629
  137OSM   H16F14979  -0.638   5.581   8.661 -1.5444 -0.1392  0.2975
  137OSM   H16G14980  -0.701   5.516   8.502 -2.7742  1.8709 -0.5168
  137OSM   C17F14981  -0.783   5.687   8.565  0.1069  0.0183 -0.0655
  137OSM   H17F14982  -0.867   5.633   8.613  0.4825  0.8826  1.6296
  137OSM   H17G14983  -0.828   5.712   8.466 -1.0936  1.0756  0.7062
  137OSM   C18F14984  -0.769   5.813   8.649 -0.4547 -0.0348  0.4573
  137OSM   H18F14985  -0.768   5.789   8.757 -1.1012  2.1434  0.9962
  137OSM   H18G14986  -0.847   5.886   8.620 -1.1365 -1.0567 -0.3212
  137OSM   H18H14987  -0.667   5.855   8.629 -0.2269  0.4419  2.4286
  138OSM      N14988   6.591   3.104   5.790  0.9118 -0.8070 -0.1066
  138OSM    C1514989   6.628   3.244   5.744 -0.3002 -0.0246  0.4790
  138OSM   H15A14990   6.675   3.295   5.827  1.0065 -2.5191  1.3645
  138OSM   H15B14991   6.541   3.303   5.718 -0.0317  0.1556 -0.0155
  138OSM   H15C14992   6.704   3.237   5.668 -2.4206 -2.4716 -1.6592
  138OSM    C1414993   6.514   3.033   5.675 -0.6390 -0.6491  0.1918
  138OSM   H14A14994   6.564   3.044   5.579  1.8396  1.3559  1.5849
  138OSM   H14B14995   6.421   3.087   5.666 -0.4535 -0.3806 -0.1469
  138OSM   H14C14996   6.491   2.930   5.697  0.5249 -1.5214 -2.2633
  138OSM    C1314997   6.718   3.027   5.827 -0.0762  0.9955  0.7658
  138OSM   H13A14998   6.763   3.059   5.920 -0.4570 -0.5266  1.4918
  138OSM   H13B14999   6.789   3.026   5.745  0.7770 -1.3881  1.4515
  138OSM   H13C15000   6.694   2.925   5.852 -0.6429  0.5219 -1.4912
  138OSM    C1215001   6.497   3.113   5.904  0.1327  0.4849 -0.2052
  138OSM   H12A15002   6.472   3.013   5.937 -0.5098  0.1448 -1.6103
  138OSM   H12B15003   6.402   3.153   5.872 -0.0713 -1.2263 -1.9714
  138OSM    C1115004   6.551   3.189   6.013 -0.1696 -0.8264  0.3260
  138OSM   H11A15005   6.568   3.295   5.983 -0.6477 -0.9343 -0.3265
  138OSM   H11B15006   6.652   3.159   6.049 -0.1450  0.6366  1.6074
  138OSM      P15007   6.345   3.304   6.127  0.3155  0.2363  0.1094
  138OSM    O1315008   6.407   3.441   6.121 -0.1346  0.2649 -0.3917
  138OSM    O1415009   6.249   3.269   6.025 -0.8236 -0.7896  0.4483
  138OSM    O1115010   6.276   3.292   6.269  0.4905 -0.5981  0.0041
  138OSM    O1215011   6.458   3.192   6.129  0.2761  0.0208 -0.0583
  138OSM    C1S15012   6.233   3.163   6.320 -0.0335  0.8795  1.2070
  138OSM    H1S15013   6.323   3.098   6.328  0.0349  0.8205  0.0400
  138OSM    H1T15014   6.170   3.110   6.246  1.6358 -1.8515  1.5888
  138OSM     NF15015   6.143   3.038   6.512 -0.5202  0.2629  0.8525
  138OSM    HNF15016   6.056   2.990   6.502  0.6727 -2.0592  1.0897
  138OSM    C2S15017   6.162   3.175   6.453 -0.4238  0.5830  0.7403
  138OSM    H2S15018   6.219   3.241   6.521 -0.3861  0.4816  0.8079
  138OSM    C3S15019   6.023   3.246   6.431 -0.3814  0.0521  0.1098
  138OSM    H3S15020   5.974   3.171   6.365  2.3293 -0.6956 -1.2069
  138OSM     O315021   6.028   3.372   6.358  0.2984  0.3709  0.3977
  138OSM    HO315022   6.114   3.366   6.317 -0.4004 -0.6700 -0.9677
  138OSM    C4S15023   5.950   3.258   6.558  0.1920 -0.0129  0.2572
  138OSM    H4S15024   5.881   3.174   6.573 -0.1707  0.3908  0.8782
  138OSM    C5S15025   5.945   3.363   6.644  0.1998  0.2566 -0.2614
  138OSM    H5S15026   6.010   3.447   6.617  1.7693 -1.0376 -0.6516
  138OSM    C6S15027   5.851   3.380   6.764  0.0400  0.1777 -0.1977
  138OSM    H6S15028   5.805   3.481   6.762 -2.0591 -0.7317 -1.0760
  138OSM    H6T15029   5.911   3.375   6.857 -0.0682 -2.2096 -0.1943
  138OSM    C7S15030   5.745   3.272   6.779  0.6954  0.2173 -0.1868
  138OSM    H7S15031   5.790   3.170   6.778 -2.8878 -1.5317 -0.7376
  138OSM    H7T15032   5.664   3.271   6.704 -0.0494 -2.2802  0.5277
  138OSM    C8S15033   5.671   3.281   6.914 -0.1453 -0.5887  0.4261
  138OSM    H8S15034   5.561   3.276   6.898 -0.2683  0.7165  0.8074
  138OSM    H8T15035   5.693   3.376   6.966 -2.2974  0.7309 -0.9540
  138OSM    C9S15036   5.706   3.170   7.011  0.0801 -0.6902 -0.3814
  138OSM    H9S15037   5.815   3.175   7.030  0.4517 -3.2700 -1.5217
  138OSM    H9T15038   5.698   3.070   6.964 -1.1187 -0.9385  0.2928
  138OSM   C10S15039   5.635   3.172   7.143  0.8325 -0.5588  0.5063
  138OSM   H10S15040   5.529   3.150   7.117  0.7900 -0.4380  0.5788
  138OSM   H10T15041   5.635   3.276   7.181  0.5896 -0.9778  1.6962
  138OSM   C11S15042   5.685   3.085   7.259 -0.3375 -0.5112  0.6792
  138OSM   H11S15043   5.793   3.106   7.269 -0.2357 -0.7824  0.1562
  138OSM   H11T15044   5.670   2.982   7.220 -1.4351 -0.1612  0.1120
  138OSM   C12S15045   5.598   3.122   7.380 -0.4031  0.8519 -0.0207
  138OSM   H12S15046   5.493   3.086   7.373  0.4638 -1.9958 -0.0220
  138OSM   H12T15047   5.594   3.232   7.372  2.2671  1.1265  1.4322
  138OSM   C13S15048   5.661   3.079   7.514 -0.0521 -0.7993  0.1317
  138OSM   H13S15049   5.760   3.130   7.515 -1.2834  1.8484 -1.2871
  138OSM   H13T15050   5.680   2.970   7.519  1.8622 -0.6300 -1.9052
  138OSM   C14S15051   5.577   3.130   7.629  0.4993  0.4745  0.3611
  138OSM   H14S15052   5.470   3.123   7.599  0.2660 -0.6503  1.3592
  138OSM   H14T15053   5.597   3.237   7.650 -1.4033  0.7588  0.8606
  138OSM   C15S15054   5.604   3.056   7.765  0.8371  0.1936 -0.4126
  138OSM   H15S15055   5.567   2.951   7.765 -2.0470  1.1021  1.4088
  138OSM   H15T15056   5.532   3.097   7.839  1.4010  0.7482 -0.1681
  138OSM   C16S15057   5.752   3.072   7.820  0.4947 -0.1328  0.3202
  138OSM   H16S15058   5.771   3.179   7.841  0.4915 -0.1835  0.5817
  138OSM   H16T15059   5.828   3.025   7.754  0.6754  0.6208 -0.0188
  138OSM   C17S15060   5.774   2.992   7.957  0.3532  0.0452  0.8782
  138OSM   H17S15061   5.748   2.886   7.938 -0.1273  0.5154 -1.3481
  138OSM   H17T15062   5.700   3.037   8.027 -0.2074 -2.8494  2.2904
  138OSM   C18S15063   5.917   2.995   8.005 -0.4960  0.3424 -0.1419
  138OSM   H18S15064   5.986   2.947   7.933 -0.5099 -0.4475  0.3586
  138OSM   H18T15065   5.936   2.948   8.104  2.8499 -0.1547 -0.9109
  138OSM   H18U15066   5.956   3.098   8.022  1.4036 -0.4640  0.6291
  138OSM    C1F15067   6.253   2.979   6.561  0.5500  0.4469 -1.0494
  138OSM     OF15068   6.366   3.029   6.557  0.0832 -0.8466 -0.4595
  138OSM    C2F15069   6.231   2.846   6.627  0.7506 -0.8684 -0.1409
  138OSM    H2F15070   6.165   2.785   6.562 -1.7313  0.3164  1.1098
  138OSM    H2G15071   6.185   2.869   6.726  1.3745  0.8707 -0.2137
  138OSM    C3F15072   6.358   2.767   6.640 -0.3576  0.7544  0.9678
  138OSM    H3F15073   6.444   2.827   6.675 -1.7646  2.2050  2.0807
  138OSM    H3G15074   6.399   2.731   6.543  0.3961  0.3757  1.4185
  138OSM    C4F15075   6.352   2.642   6.732  0.1092  0.0191 -0.1469
  138OSM    H4F15076   6.437   2.579   6.699  1.1320  1.2373  0.0803
  138OSM    H4G15077   6.253   2.594   6.720  0.4196 -0.7635  0.3930
  138OSM    C5F15078   6.372   2.681   6.878 -1.1937 -0.4314  0.0012
  138OSM    H5F15079   6.291   2.751   6.908 -0.5922  0.0596  0.5126
  138OSM    H5G15080   6.472   2.730   6.880 -1.0907 -0.6429  1.4167
  138OSM    C6F15081   6.385   2.575   6.994  0.1325  0.0897  0.1413
  138OSM    H6F15082   6.457   2.500   6.956  0.8508  0.0797  1.4597
  138OSM    H6G15083   6.287   2.523   7.007  0.7954 -1.1752  0.2092
  138OSM    C7F15084   6.425   2.627   7.130  0.8738 -0.0888 -0.1116
  138OSM    H7F15085   6.390   2.557   7.209 -0.0879  1.3933  0.8205
  138OSM    H7G15086   6.376   2.724   7.152  1.0854 -0.1979  0.8632
  138OSM    C8F15087   6.582   2.643   7.131 -0.0852 -0.6193  0.0678
  138OSM    H8F15088   6.614   2.692   7.036  1.5644  2.6695  2.1303
  138OSM    H8G15089   6.628   2.542   7.133  1.9995  0.1931 -1.9665
  138OSM    C9F15090   6.626   2.741   7.241 -1.0029 -0.5408  0.1864
  138OSM    H9F15091   6.599   2.846   7.223 -1.7582 -0.4345  1.7154
  138OSM   C10F15092   6.691   2.709   7.359 -0.7812  0.5293  0.1634
  138OSM   H10F15093   6.702   2.793   7.430  0.1777  0.8226 -0.3142
  138OSM   C11F15094   6.745   2.576   7.406  0.1977  0.3303 -0.4335
  138OSM   H11F15095   6.809   2.536   7.324  0.5322  0.0150 -0.0188
  138OSM   H11G15096   6.665   2.499   7.409 -0.4224  0.8918 -1.6564
  138OSM   C12F15097   6.822   2.572   7.535  0.4788  0.5263 -0.8802
  138OSM   H12F15098   6.916   2.631   7.528  0.1081  1.4396  1.0258
  138OSM   H12G15099   6.860   2.471   7.563  1.5564  1.7363  2.6546
  138OSM   C13F15100   6.748   2.612   7.670  0.4648  0.0254  0.0849
  138OSM   H13F15101   6.685   2.527   7.703 -0.6720  0.3603 -1.1121
  138OSM   H13G15102   6.688   2.706   7.662  1.1433  0.5973  1.4294
  138OSM   C14F15103   6.852   2.633   7.787  0.1084 -0.2634 -0.4838
  138OSM   H14F15104   6.913   2.722   7.762  1.6345 -1.9358 -3.2100
  138OSM   H14G15105   6.917   2.545   7.809 -2.3211 -1.6280  1.9163
  138OSM   C15F15106   6.781   2.643   7.923 -0.3924  0.1539  0.3024
  138OSM   H15F15107   6.752   2.540   7.952 -0.3369  0.3995  1.2923
  138OSM   H15G15108   6.693   2.711   7.924  0.0022  0.6675  0.5284
  138OSM   C16F15109   6.883   2.685   8.025  0.1599  0.3536  0.2361
  138OSM   H16F15110   6.937   2.773   7.982  0.5649 -0.8995 -2.0312
  138OSM   H16G15111   6.966   2.613   8.039 -0.4192 -0.4839 -0.5141
  138OSM   C17F15112   6.826   2.717   8.158 -0.2320 -0.3516  0.0154
  138OSM   H17F15113   6.745   2.789   8.135  0.9044  1.0768  0.3153
  138OSM   H17G15114   6.907   2.761   8.220 -0.3005  0.4833 -0.4726
  138OSM   C18F15115   6.777   2.591   8.240 -0.0885 -0.2508 -0.2136
  138OSM   H18F15116   6.737   2.614   8.341 -0.4475 -2.7869  0.2936
  138OSM   H18G15117   6.863   2.521   8.251  0.1023  0.0820  0.4862
  138OSM   H18H15118   6.694   2.550   8.179  0.5392 -2.4060  0.2824
  139OSM      N15119   4.893   2.765   6.097 -0.2707 -0.6833 -0.4691
  139OSM    C1515120   4.995   2.843   6.025  0.2752  0.5186  0.2480
  139OSM   H15A15121   5.093   2.802   6.041  0.1137  0.4520  1.1333
  139OSM   H15B15122   4.997   2.948   6.050  1.3288  0.2099  1.5408
  139OSM   H15C15123   4.971   2.836   5.920 -0.0702 -1.5293  0.4213
  139OSM    C1415124   4.764   2.838   6.097 -0.7337 -0.7212 -0.4548
  139OSM   H14A15125   4.729   2.847   5.995  1.6759 -2.0081 -1.5013
  139OSM   H14B15126   4.775   2.937   6.139 -0.5547 -1.2009  0.6422
  139OSM   H14C15127   4.687   2.787   6.153 -2.0824  1.5486 -0.1218
  139OSM    C1315128   4.873   2.629   6.034 -0.2957  0.7643  0.0781
  139OSM   H13A15129   4.969   2.583   6.015 -0.1552  0.7520  0.7806
  139OSM   H13B15130   4.826   2.639   5.938 -0.2628  0.3126  0.0123
  139OSM   H13C15131   4.814   2.561   6.093  0.8005  0.5823  1.0156
  139OSM    C1215132   4.940   2.742   6.240 -0.4278 -0.3433 -1.0689
  139OSM   H12A15133   5.042   2.708   6.230 -0.4009 -0.3439 -0.7922
  139OSM   H12B15134   4.892   2.649   6.267  1.1035 -0.8949 -0.1325
  139OSM    C1115135   4.924   2.853   6.349 -0.0877  0.3981 -0.6352
  139OSM   H11A15136   4.946   2.812   6.449 -0.3723  0.2468 -0.6344
  139OSM   H11B15137   4.817   2.883   6.356  0.2230  1.2794  0.5035
  139OSM      P15138   5.142   2.995   6.358 -0.1727  0.0227 -0.3506
  139OSM    O1315139   5.213   2.867   6.331  0.0137  0.7538 -0.1039
  139OSM    O1415140   5.203   3.120   6.307 -0.8302  0.2783  0.7766
  139OSM    O1115141   5.127   3.015   6.514 -0.1375  0.0173  0.5743
  139OSM    O1215142   4.990   2.975   6.321 -0.2095 -0.3981 -0.0976
  139OSM    C1S15143   5.046   3.110   6.585  0.3270 -0.1789  0.1599
  139OSM    H1S15144   4.998   3.187   6.521 -1.1043 -1.0762  0.0989
  139OSM    H1T15145   5.111   3.167   6.654  0.5454 -0.8932  0.5502
  139OSM     NF15146   4.860   3.134   6.744  0.1516 -0.2721 -0.8513
  139OSM    HNF15147   4.885   3.162   6.836  0.7895  0.0789 -1.1218
  139OSM    C2S15148   4.946   3.037   6.678  0.6646  0.4154 -0.3940
  139OSM    H2S15149   4.885   2.968   6.616 -0.8380 -1.0169  2.4709
  139OSM    C3S15150   5.026   2.946   6.774  0.1667 -0.1171 -0.4070
  139OSM    H3S15151   5.095   3.005   6.838 -1.6625  0.9597  0.6610
  139OSM     O315152   5.105   2.839   6.717  0.2557 -0.2463  0.1830
  139OSM    HO315153   5.130   2.882   6.634  1.8755  1.6026  1.5340
  139OSM    C4S15154   4.929   2.884   6.875 -0.5539  0.0962 -0.4584
  139OSM    H4S15155   4.834   2.837   6.846 -1.9567  1.4891  1.6190
  139OSM    C5S15156   4.943   2.900   7.009  0.1058  0.0297 -0.7323
  139OSM    H5S15157   5.029   2.954   7.053  0.0587  0.4741 -1.1771
  139OSM    C6S15158   4.843   2.843   7.105  0.1153  0.7181 -0.3626
  139OSM    H6S15159   4.781   2.768   7.053 -0.6853  0.9373  0.2488
  139OSM    H6T15160   4.770   2.926   7.116 -1.8160 -0.9048 -0.3793
  139OSM    C7S15161   4.897   2.782   7.241 -0.1356 -0.2510  0.0603
  139OSM    H7S15162   4.949   2.865   7.293  1.6265 -0.1864 -1.7023
  139OSM    H7T15163   4.973   2.703   7.230  0.9520  0.8609 -0.7321
  139OSM    C8S15164   4.785   2.735   7.340 -1.1672 -0.9347 -1.0045
  139OSM    H8S15165   4.741   2.639   7.305 -0.5269 -1.7173  0.2708
  139OSM    H8T15166   4.704   2.811   7.340 -0.1124  0.2158 -0.2341
  139OSM    C9S15167   4.830   2.724   7.487  0.6120  0.5594  0.5669
  139OSM    H9S15168   4.857   2.821   7.534  0.4962 -0.2518  2.3891
  139OSM    H9T15169   4.912   2.650   7.499 -0.6874 -0.7931  1.5176
  139OSM   C10S15170   4.707   2.669   7.559 -0.3670 -0.1601 -0.0000
  139OSM   H10S15171   4.659   2.604   7.483  0.1038  0.2660 -0.6675
  139OSM   H10T15172   4.623   2.740   7.576 -0.3317 -0.3274  0.9723
  139OSM   C11S15173   4.725   2.582   7.686  0.0893 -0.3990 -0.8458
  139OSM   H11S15174   4.798   2.498   7.683  3.2385  1.8549  2.8295
  139OSM   H11T15175   4.627   2.536   7.712  0.5548 -1.3942 -0.7978
  139OSM   C12S15176   4.759   2.675   7.803 -0.8795  0.2976  0.1724
  139OSM   H12S15177   4.679   2.751   7.798 -0.3419  0.8473 -0.3265
  139OSM   H12T15178   4.847   2.733   7.767 -1.3517 -0.2821 -2.0726
  139OSM   C13S15179   4.775   2.622   7.945  0.5015  0.5287 -0.6850
  139OSM   H13S15180   4.843   2.694   7.995  0.4469  0.1199 -0.0112
  139OSM   H13T15181   4.831   2.526   7.949  3.7047  2.3045  1.6506
  139OSM   C14S15182   4.647   2.620   8.034 -0.5044 -0.2726 -0.2415
  139OSM   H14S15183   4.573   2.544   8.002 -0.3626 -0.5448  0.0756
  139OSM   H14T15184   4.594   2.718   8.026  2.0097  1.1995  0.2571
  139OSM   C15S15185   4.676   2.603   8.185 -0.2450  0.0133 -0.5689
  139OSM   H15S15186   4.721   2.698   8.220  2.1026 -1.1052 -0.3819
  139OSM   H15T15187   4.745   2.517   8.195  0.3122  0.4098 -0.9076
  139OSM   C16S15188   4.543   2.590   8.258 -0.3897  0.6415  0.0352
  139OSM   H16S15189   4.490   2.495   8.237  1.0897 -0.3225  0.4763
  139OSM   H16T15190   4.488   2.676   8.215  1.1563  1.5954 -0.0988
  139OSM   C17S15191   4.549   2.586   8.415  0.0624 -0.0881  0.7126
  139OSM   H17S15192   4.605   2.672   8.457  2.4418 -0.5641 -1.2872
  139OSM   H17T15193   4.603   2.492   8.441  1.0376  0.2391 -0.0923
  139OSM   C18S15194   4.408   2.597   8.469  1.3468  0.5817 -0.4433
  139OSM   H18S15195   4.346   2.507   8.449 -0.7466  1.7743  0.3597
  139OSM   H18T15196   4.361   2.679   8.410  3.4594  0.6006 -2.2238
  139OSM   H18U15197   4.401   2.633   8.574  1.5255 -0.5023 -0.0422
  139OSM    C1F15198   4.780   3.215   6.681  0.2242  0.0471  0.3970
  139OSM     OF15199   4.756   3.201   6.563  0.8070 -0.4244  0.8994
  139OSM    C2F15200   4.717   3.326   6.756  0.5111  0.8920 -0.5438
  139OSM    H2F15201   4.728   3.420   6.697  0.7425  0.7728 -0.6912
  139OSM    H2G15202   4.755   3.347   6.859 -1.3910 -0.8521  0.5935
  139OSM    C3F15203   4.559   3.300   6.770  0.4616 -0.6634  0.6925
  139OSM    H3F15204   4.508   3.286   6.673 -1.4936 -0.7774  1.6821
  139OSM    H3G15205   4.516   3.392   6.816 -1.2895 -0.7295 -0.7258
  139OSM    C4F15206   4.523   3.180   6.855 -0.1538 -0.0160  0.4580
  139OSM    H4F15207   4.566   3.085   6.817  1.5174  1.3914 -1.3560
  139OSM    H4G15208   4.414   3.160   6.847  0.2708 -1.8589 -1.4835
  139OSM    C5F15209   4.556   3.200   7.003  0.6430 -0.2854 -0.3240
  139OSM    H5F15210   4.486   3.279   7.037 -0.3685 -0.7674 -1.2155
  139OSM    H5G15211   4.665   3.213   7.023  0.7808 -0.7129 -0.7742
  139OSM    C6F15212   4.522   3.077   7.084  0.7724 -0.1766 -0.3723
  139OSM    H6F15213   4.580   2.997   7.033  1.8125 -1.7289  2.9390
  139OSM    H6G15214   4.412   3.069   7.090  0.6297  2.0941  1.2363
  139OSM    C7F15215   4.572   3.083   7.235  0.3012 -0.6650 -0.8014
  139OSM    H7F15216   4.681   3.107   7.230  0.0621  0.2674 -1.8036
  139OSM    H7G15217   4.542   2.984   7.274 -1.8436 -0.3136 -1.4573
  139OSM    C8F15218   4.504   3.194   7.332  0.4953  0.6214  0.1725
  139OSM    H8F15219   4.495   3.291   7.278 -0.0120  0.1775 -0.5514
  139OSM    H8G15220   4.577   3.218   7.412  2.5609 -0.6347 -1.2287
  139OSM    C9F15221   4.372   3.160   7.392  0.5593  0.2080 -0.2282
  139OSM    H9F15222   4.278   3.167   7.337  1.1314  0.6544 -1.1719
  139OSM   C10F15223   4.370   3.095   7.510 -0.7082  0.2802 -0.2542
  139OSM   H10F15224   4.274   3.056   7.547  0.1796 -1.1612  0.5833
  139OSM   C11F15225   4.496   3.073   7.594 -0.0330  0.3719 -0.0656
  139OSM   H11F15226   4.529   3.170   7.638  2.1622 -1.0866  1.7375
  139OSM   H11G15227   4.586   3.036   7.542 -0.2614 -0.3601  0.0439
  139OSM   C12F15228   4.463   2.967   7.695  0.3144 -0.0574 -0.8615
  139OSM   H12F15229   4.564   2.944   7.735  0.1288 -0.1176 -0.4195
  139OSM   H12G15230   4.430   2.869   7.653 -0.2001  0.8524 -2.7087
  139OSM   C13F15231   4.368   3.014   7.813  0.5990  0.2819 -0.4775
  139OSM   H13F15232   4.346   2.921   7.869  0.1292 -1.3587 -3.2170
  139OSM   H13G15233   4.282   3.050   7.754  1.0199 -0.0644 -1.3163
  139OSM   C14F15234   4.427   3.124   7.905  0.4951 -0.5758  0.1321
  139OSM   H14F15235   4.461   3.213   7.848 -1.3361 -0.2780 -0.5774
  139OSM   H14G15236   4.515   3.080   7.956  0.7742  0.1502  0.2890
  139OSM   C15F15237   4.324   3.193   7.999  1.2878 -0.4238 -0.0306
  139OSM   H15F15238   4.246   3.119   8.030  0.9235 -0.1697 -0.3301
  139OSM   H15G15239   4.268   3.273   7.946  0.5348 -0.0324  1.2841
  139OSM   C16F15240   4.379   3.258   8.129 -0.5307 -0.4144 -0.0519
  139OSM   H16F15241   4.308   3.337   8.163  0.5224  1.8296 -2.6970
  139OSM   H16G15242   4.467   3.316   8.094  0.1760 -1.2197  0.3499
  139OSM   C17F15243   4.415   3.167   8.243  0.1956 -0.4834 -0.6595
  139OSM   H17F15244   4.497   3.208   8.305 -0.0298 -0.5430 -0.3211
  139OSM   H17G15245   4.461   3.071   8.209  0.7307 -0.5383  0.1754
  139OSM   C18F15246   4.293   3.129   8.335 -0.2673  0.6516 -0.3858
  139OSM   H18F15247   4.320   3.041   8.398  2.1230  0.5000 -1.4921
  139OSM   H18G15248   4.209   3.113   8.264 -0.4659 -2.4739  0.3759
  139OSM   H18H15249   4.271   3.215   8.402 -1.4927  0.0812 -0.0248
  140OSM      N15250   1.449   5.491   6.323 -0.6298  0.7089 -0.0908
  140OSM    C1515251   1.427   5.355   6.262 -0.8957  0.1137 -0.0046
  140OSM   H15A15252   1.469   5.354   6.163  2.9164  3.1523  1.3646
  140OSM   H15B15253   1.319   5.341   6.259 -1.0495  1.3746 -0.8285
  140OSM   H15C15254   1.461   5.272   6.322 -3.2848  0.6185  2.2855
  140OSM    C1415255   1.583   5.472   6.384  0.2383 -0.6721  1.2151
  140OSM   H14A15256   1.663   5.463   6.313 -0.6747 -0.0718  0.0829
  140OSM   H14B15257   1.584   5.382   6.444 -0.0957 -0.9588  0.8032
  140OSM   H14C15258   1.605   5.556   6.449 -0.3968  1.4577 -1.1448
  140OSM    C1315259   1.453   5.584   6.213  0.9101  0.6042 -0.2755
  140OSM   H13A15260   1.446   5.689   6.240  1.4252  0.7801 -0.7841
  140OSM   H13B15261   1.368   5.565   6.150  1.7238 -3.6764 -0.3325
  140OSM   H13C15262   1.539   5.576   6.147  0.8836  2.8050 -0.6691
  140OSM    C1215263   1.346   5.526   6.434 -0.6234 -0.3281  0.3575
  140OSM   H12A15264   1.380   5.613   6.487  0.4578 -0.4769 -0.0626
  140OSM   H12B15265   1.357   5.450   6.510 -1.3679  0.1180  0.9260
  140OSM    C1115266   1.206   5.546   6.382  0.5022  0.0978 -1.1470
  140OSM   H11A15267   1.204   5.621   6.300 -0.9213  0.4820 -0.7934
  140OSM   H11B15268   1.155   5.612   6.456  1.4699 -1.5659  1.1240
  140OSM      P15269   1.057   5.372   6.484 -0.3746  0.1876 -0.1330
  140OSM    O1315270   0.928   5.448   6.500 -0.0914  0.1569 -0.2080
  140OSM    O1415271   1.057   5.219   6.473 -0.1205 -1.0531  0.2411
  140OSM    O1115272   1.155   5.405   6.605  0.5826  0.3309 -0.2046
  140OSM    O1215273   1.130   5.426   6.362 -0.0439  0.0893 -0.7709
  140OSM    C1S15274   1.135   5.498   6.707 -0.6739  0.1660  0.3940
  140OSM    H1S15275   1.036   5.548   6.701 -0.5102  0.6789  1.6096
  140OSM    H1T15276   1.207   5.581   6.695  0.4084 -0.7804  0.1430
  140OSM     NF15277   1.123   5.552   6.944  0.5020  0.2579 -0.3384
  140OSM    HNF15278   1.194   5.590   7.002 -1.7986 -0.4390  3.2513
  140OSM    C2S15279   1.156   5.445   6.853  0.9789 -0.0119  0.6994
  140OSM    H2S15280   1.080   5.366   6.869  1.0658 -0.0044  1.1895
  140OSM    C3S15281   1.294   5.391   6.873 -0.7621 -0.6565 -0.0052
  140OSM    H3S15282   1.367   5.474   6.876  0.3090 -1.3541  5.9490
  140OSM     O315283   1.331   5.291   6.779  0.0246  0.0208 -0.2349
  140OSM    HO315284   1.260   5.288   6.714  0.4903 -0.1964 -0.7353
  140OSM    C4S15285   1.314   5.331   7.011  0.1283  0.3120  0.2212
  140OSM    H4S15286   1.320   5.417   7.080  0.7699  2.7436 -2.6180
  140OSM    C5S15287   1.321   5.204   7.053  0.1789 -0.0450  0.1570
  140OSM    H5S15288   1.327   5.128   6.973  0.0612 -0.1484  0.2447
  140OSM    C6S15289   1.347   5.152   7.194  0.0713 -0.1183 -0.6954
  140OSM    H6S15290   1.407   5.058   7.196 -1.1870 -0.9428  0.9389
  140OSM    H6T15291   1.254   5.122   7.247  0.2891  0.7164  0.1852
  140OSM    C7S15292   1.406   5.250   7.300  0.2344  0.9849 -0.0259
  140OSM    H7S15293   1.341   5.335   7.329 -0.5052  1.4253 -2.7238
  140OSM    H7T15294   1.489   5.295   7.242 -1.8327  2.1385 -2.2968
  140OSM    C8S15295   1.468   5.167   7.420  0.4942 -0.8836  0.0802
  140OSM    H8S15296   1.548   5.098   7.386 -0.3279 -1.1321 -1.4783
  140OSM    H8T15297   1.395   5.102   7.473 -1.1764 -1.2118 -2.4689
  140OSM    C9S15298   1.520   5.252   7.536  0.6446  0.4231  0.2134
  140OSM    H9S15299   1.431   5.302   7.581  0.9526  0.7585  0.4611
  140OSM    H9T15300   1.578   5.337   7.494 -0.3396  1.4904  0.9281
  140OSM   C10S15301   1.602   5.171   7.646 -0.3453 -0.3353  0.0352
  140OSM   H10S15302   1.636   5.230   7.734 -1.0608 -0.3789  0.3526
  140OSM   H10T15303   1.690   5.127   7.595  0.4156  0.9366  0.2055
  140OSM   C11S15304   1.519   5.055   7.698 -0.9168  0.3063 -0.4062
  140OSM   H11S15305   1.488   4.995   7.609 -1.0156 -1.8794  1.0254
  140OSM   H11T15306   1.426   5.101   7.739 -1.8378 -0.1488 -1.8739
  140OSM   C12S15307   1.582   4.972   7.809  0.1841  0.3191 -0.5741
  140OSM   H12S15308   1.660   4.905   7.767 -1.1911 -0.2407 -2.3732
  140OSM   H12T15309   1.509   4.903   7.856  1.9914 -1.0622  0.3411
  140OSM   C13S15310   1.664   5.051   7.916  0.3610 -0.6611  0.2193
  140OSM   H13S15311   1.593   5.131   7.946 -0.4768 -0.2152 -2.6130
  140OSM   H13T15312   1.750   5.088   7.855  1.0136  0.4209  1.7525
  140OSM   C14S15313   1.726   4.966   8.030 -0.6307 -1.0926  0.3354
  140OSM   H14S15314   1.753   5.045   8.103  0.3379 -0.4479 -0.6947
  140OSM   H14T15315   1.810   4.906   7.988  1.7122  1.3349  1.2552
  140OSM   C15S15316   1.616   4.872   8.093 -0.6098 -0.6733 -0.0220
  140OSM   H15S15317   1.601   4.786   8.023 -0.6440 -0.7776  0.1125
  140OSM   H15T15318   1.523   4.931   8.107  0.1925  0.5058  0.4018
  140OSM   C16S15319   1.658   4.812   8.233  0.2067 -0.8478 -0.4638
  140OSM   H16S15320   1.596   4.727   8.269 -1.5201 -0.3679 -2.1785
  140OSM   H16T15321   1.649   4.894   8.308 -0.0758 -1.3674  0.0853
  140OSM   C17S15322   1.816   4.767   8.229 -0.1371 -0.2737  0.6357
  140OSM   H17S15323   1.839   4.733   8.126 -1.6120  2.0574 -0.5293
  140OSM   H17T15324   1.813   4.676   8.293 -0.9935  0.3821  1.5600
  140OSM   C18S15325   1.925   4.854   8.285 -0.5052 -0.0233  0.2408
  140OSM   H18S15326   2.024   4.810   8.263  0.3244 -0.0230  3.4351
  140OSM   H18T15327   1.919   4.856   8.396 -0.8792  1.7094  0.2121
  140OSM   H18U15328   1.926   4.955   8.240  0.5228 -0.3745 -0.5546
  140OSM    C1F15329   0.996   5.594   6.969  0.5835 -0.1722  0.1131
  140OSM     OF15330   0.902   5.558   6.897 -0.6292 -0.3689  0.2257
  140OSM    C2F15331   0.966   5.667   7.101  0.6773 -0.1803 -0.1599
  140OSM    H2F15332   1.013   5.767   7.092 -2.3623  1.4094  0.2671
  140OSM    H2G15333   1.011   5.603   7.180 -1.8078 -2.4511 -0.3878
  140OSM    C3F15334   0.816   5.684   7.124 -0.0007 -0.5624  0.4306
  140OSM    H3F15335   0.772   5.585   7.150  1.0819 -0.4669  2.8949
  140OSM    H3G15336   0.773   5.735   7.035  2.6387  2.1419  0.5478
  140OSM    C4F15337   0.791   5.774   7.243 -0.6701  0.0508  0.2118
  140OSM    H4F15338   0.685   5.806   7.239 -0.6570  0.3430  1.6663
  140OSM    H4G15339   0.870   5.853   7.251  1.9444 -2.4870  1.4768
  140OSM    C5F15340   0.816   5.694   7.372  0.0005 -0.4888 -0.4861
  140OSM    H5F15341   0.921   5.663   7.392  0.1255 -0.1099 -0.5351
  140OSM    H5G15342   0.755   5.603   7.387  0.9103 -0.8408  1.3389
  140OSM    C6F15343   0.789   5.794   7.493 -0.3314  0.3273  0.0924
  140OSM    H6F15344   0.686   5.836   7.490 -1.1816 -1.5913  0.5283
  140OSM    H6G15345   0.864   5.875   7.479  0.4592 -0.3608  0.2629
  140OSM    C7F15346   0.816   5.720   7.624 -0.0029  0.3675 -0.1960
  140OSM    H7F15347   0.921   5.683   7.625  0.0426  0.4827  0.6525
  140OSM    H7G15348   0.755   5.628   7.636  2.8407 -1.6507 -0.1080
  140OSM    C8F15349   0.794   5.811   7.757  0.2063  0.7731 -0.6627
  140OSM    H8F15350   0.796   5.732   7.835 -1.4814  0.3456 -1.0093
  140OSM    H8G15351   0.696   5.862   7.745 -0.1200  0.5157  0.6691
  140OSM    C9F15352   0.911   5.908   7.759  0.4901 -0.3551 -0.1094
  140OSM    H9F15353   0.920   5.983   7.679  0.9216  1.0805  1.2435
  140OSM   C10F15354   1.018   5.903   7.843  0.4547 -0.1899 -0.3697
  140OSM   H10F15355   1.103   5.972   7.829  1.5697 -1.5898 -0.7844
  140OSM   C11F15356   1.047   5.795   7.951  0.2652 -0.5070  0.0294
  140OSM   H11F15357   1.110   5.724   7.892 -0.9413 -1.2996 -0.3341
  140OSM   H11G15358   0.960   5.732   7.978 -0.0231  0.0876  0.4850
  140OSM   C12F15359   1.102   5.844   8.082 -0.5609 -0.2355 -0.0277
  140OSM   H12F15360   1.173   5.930   8.075  0.0002 -0.5662  1.1634
  140OSM   H12G15361   1.180   5.770   8.111  1.1559  1.6531  0.3839
  140OSM   C13F15362   0.998   5.871   8.193  0.1397  1.0602  0.3091
  140OSM   H13F15363   0.926   5.788   8.210  0.8735  0.4432  0.4155
  140OSM   H13G15364   0.935   5.953   8.151 -0.6962  0.9226  1.2653
  140OSM   C14F15365   1.058   5.907   8.323 -0.8148 -0.4893  1.0652
  140OSM   H14F15366   1.123   5.993   8.298 -1.1389 -0.6982 -0.6421
  140OSM   H14G15367   1.116   5.822   8.365  0.5467  0.2122  0.6467
  140OSM   C15F15368   0.961   5.954   8.425  0.3911 -0.2841  0.1116
  140OSM   H15F15369   0.890   5.870   8.445 -0.8217  0.6484 -0.1383
  140OSM   H15G15370   0.895   6.039   8.396  0.0326 -0.2996  0.8390
  140OSM   C16F15371   1.027   5.991   8.556 -0.5848 -1.0791 -0.5693
  140OSM   H16F15372   1.117   6.053   8.534 -2.1280  1.2098 -0.7390
  140OSM   H16G15373   1.061   5.907   8.620  1.7331  2.2098  2.9899
  140OSM   C17F15374   0.934   6.077   8.645 -0.0875 -0.2544 -0.7481
  140OSM   H17F15375   0.904   6.159   8.575  2.5427  1.0486 -0.4996
  140OSM   H17G15376   0.990   6.128   8.726  0.6371 -0.2712 -1.2297
  140OSM   C18F15377   0.805   6.019   8.692  0.1532  0.0946  0.1688
  140OSM   H18F15378   0.733   6.103   8.700 -0.4623 -0.1791 -1.8900
  140OSM   H18G15379   0.810   5.982   8.797  1.6873  1.8047  0.7669
  140OSM   H18H15380   0.757   5.944   8.626 -1.3794  0.7386  0.5046
  141OSM      N15381   5.195   6.376   5.972 -0.5732 -0.1369 -0.6983
  141OSM    C1515382   5.245   6.518   5.950 -0.3217 -0.4817  0.2338
  141OSM   H15A15383   5.329   6.537   6.016 -0.5807 -0.5784  0.5972
  141OSM   H15B15384   5.166   6.587   5.973 -0.0864  0.4328 -1.5245
  141OSM   H15C15385   5.281   6.542   5.851  1.1829  0.2941  0.9428
  141OSM    C1415386   5.081   6.347   5.893  0.1452 -0.5253  0.0397
  141OSM   H14A15387   5.096   6.355   5.787  2.0397  0.2780  0.3233
  141OSM   H14B15388   4.988   6.398   5.916 -1.1214 -2.8457  0.3686
  141OSM   H14C15389   5.041   6.249   5.913 -2.3207  0.1631 -1.1035
  141OSM    C1315390   5.314   6.293   5.924 -0.5509  0.2273  0.5302
  141OSM   H13A15391   5.399   6.326   5.981  0.0343 -1.0198  0.3877
  141OSM   H13B15392   5.322   6.316   5.819 -0.6762 -1.2121  0.1930
  141OSM   H13C15393   5.297   6.187   5.935  0.8680 -0.4909 -3.0660
  141OSM    C1215394   5.175   6.362   6.118  0.0078 -0.3559  0.3257
  141OSM   H12A15395   5.132   6.263   6.128  0.9789 -1.0733 -1.8680
  141OSM   H12B15396   5.108   6.441   6.146  1.9399  0.5716  2.6322
  141OSM    C1115397   5.304   6.370   6.202  0.6278  0.1702 -0.0432
  141OSM   H11A15398   5.376   6.293   6.167 -1.1868 -2.4721  1.6743
  141OSM   H11B15399   5.272   6.334   6.302 -1.6860  1.4161 -0.2601
  141OSM      P15400   5.504   6.495   6.304 -0.3975 -0.2789 -0.3825
  141OSM    O1315401   5.605   6.421   6.218  0.3053 -0.7155 -0.3773
  141OSM    O1415402   5.539   6.631   6.342  0.8451 -0.0721 -0.7786
  141OSM    O1115403   5.454   6.414   6.430  0.0736  0.5921  0.3233
  141OSM    O1215404   5.365   6.500   6.234 -0.6049 -0.5127  0.0521
  141OSM    C1S15405   5.538   6.384   6.544 -0.0796 -0.5182 -0.7612
  141OSM    H1S15406   5.638   6.427   6.523  0.0533 -1.9329 -3.2771
  141OSM    H1T15407   5.559   6.275   6.550 -0.9352 -0.6496  0.0730
  141OSM     NF15408   5.581   6.424   6.787 -0.0721  0.8389  0.1673
  141OSM    HNF15409   5.560   6.341   6.838 -1.0155  0.4400 -0.8295
  141OSM    C2S15410   5.484   6.456   6.680 -0.3940  0.7349  0.6176
  141OSM    H2S15411   5.471   6.566   6.673 -3.1917  0.5519  1.4920
  141OSM    C3S15412   5.340   6.404   6.712  0.8956  0.1240  0.6214
  141OSM    H3S15413   5.337   6.297   6.741  0.3609  0.2998  1.2386
  141OSM     O315414   5.254   6.428   6.595  0.1071 -0.0651  0.5900
  141OSM    HO315415   5.307   6.415   6.517 -1.0986  2.9725 -0.8962
  141OSM    C4S15416   5.289   6.489   6.831  0.0358  0.3546  0.1551
  141OSM    H4S15417   5.315   6.594   6.809  0.1812  0.1207 -0.8053
  141OSM    C5S15418   5.243   6.437   6.951 -0.0528  0.4149  0.3569
  141OSM    H5S15419   5.256   6.332   6.978 -0.2511  0.3366  0.1597
  141OSM    C6S15420   5.199   6.527   7.054 -0.1426 -0.6961 -0.3565
  141OSM    H6S15421   5.091   6.503   7.064  0.0533 -1.5007 -0.0988
  141OSM    H6T15422   5.211   6.634   7.030 -0.4728 -0.4994  0.3444
  141OSM    C7S15423   5.249   6.506   7.204 -0.4805  0.3348 -0.0895
  141OSM    H7S15424   5.354   6.544   7.211  0.2570 -1.4951 -0.4626
  141OSM    H7T15425   5.252   6.396   7.223 -1.3624 -0.3442 -3.3246
  141OSM    C8S15426   5.159   6.583   7.298 -0.4719  0.4336  0.3554
  141OSM    H8S15427   5.053   6.575   7.265 -0.5188  0.2081  0.5647
  141OSM    H8T15428   5.178   6.693   7.294 -1.1616  0.7068  2.8388
  141OSM    C9S15429   5.171   6.529   7.443  0.2857  0.5304 -0.0064
  141OSM    H9S15430   5.267   6.573   7.475  0.7365  0.0906 -0.7371
  141OSM    H9T15431   5.186   6.421   7.422 -0.1313  0.7698 -1.6694
  141OSM   C10S15432   5.047   6.565   7.539 -0.7101  0.3847 -0.3026
  141OSM   H10S15433   4.965   6.524   7.476  1.7321 -4.5609 -0.6591
  141OSM   H10T15434   5.051   6.675   7.555  0.4394  0.4505 -0.9540
  141OSM   C11S15435   5.056   6.484   7.663  0.1454  0.3015  0.1674
  141OSM   H11S15436   5.159   6.489   7.704  0.3485  1.1978 -0.4251
  141OSM   H11T15437   5.033   6.380   7.631  0.1846 -0.5185  2.6116
  141OSM   C12S15438   4.954   6.532   7.772 -0.1132  0.2222 -0.2252
  141OSM   H12S15439   4.853   6.530   7.725 -0.0305 -1.8910 -0.3907
  141OSM   H12T15440   4.985   6.635   7.802  2.1590 -0.9340  1.7419
  141OSM   C13S15441   4.955   6.456   7.897 -0.0225  0.0289 -0.2042
  141OSM   H13S15442   4.935   6.350   7.873 -1.2890 -0.1422  1.4156
  141OSM   H13T15443   4.861   6.487   7.946 -0.9650 -1.5090 -0.9762
  141OSM   C14S15444   5.072   6.478   7.987  0.3815  0.1990 -0.3377
  141OSM   H14S15445   5.061   6.583   8.023 -0.2262 -0.8013  2.7587
  141OSM   H14T15446   5.171   6.470   7.937  0.4267 -0.3807 -0.1617
  141OSM   C15S15447   5.074   6.392   8.113  0.0820  0.2551  0.5092
  141OSM   H15S15448   5.128   6.299   8.084 -1.2376  0.0136 -1.3356
  141OSM   H15T15449   4.968   6.371   8.140 -0.2696  2.1265  0.6802
  141OSM   C16S15450   5.161   6.446   8.222  0.2445  1.0496 -0.3080
  141OSM   H16S15451   5.129   6.548   8.251  0.5535  1.0228  0.1423
  141OSM   H16T15452   5.267   6.448   8.191  1.0873  0.2661  2.2244
  141OSM   C17S15453   5.150   6.364   8.351 -0.3312  0.8802 -1.3400
  141OSM   H17S15454   5.219   6.405   8.426 -0.7283  0.4746 -0.7432
  141OSM   H17T15455   5.174   6.256   8.337  3.2533  1.6182 -1.8079
  141OSM   C18S15456   5.012   6.372   8.416  1.0427  0.3297 -0.0076
  141OSM   H18S15457   5.013   6.325   8.517 -0.2073  0.0539 -0.0973
  141OSM   H18T15458   4.936   6.326   8.350  2.8699  0.3543 -2.2457
  141OSM   H18U15459   4.985   6.480   8.425 -3.5012 -0.1453 -3.7968
  141OSM    C1F15460   5.706   6.473   6.797  0.2524 -0.0331 -0.4852
  141OSM     OF15461   5.744   6.544   6.704 -0.1976  0.0351  0.6930
  141OSM    C2F15462   5.797   6.422   6.907 -0.0546  0.0998  0.0240
  141OSM    H2F15463   5.895   6.405   6.859  0.9694  1.4069  1.5414
  141OSM    H2G15464   5.748   6.329   6.944 -0.8591  0.5260  0.0682
  141OSM    C3F15465   5.813   6.523   7.030  0.0342 -0.6493 -0.4748
  141OSM    H3F15466   5.714   6.520   7.080 -0.2279 -0.8704 -0.9906
  141OSM    H3G15467   5.836   6.627   7.000 -1.3218 -1.1426 -3.6316
  141OSM    C4F15468   5.900   6.465   7.146 -0.0362 -0.0726 -0.1549
  141OSM    H4F15469   6.004   6.495   7.120 -0.0801 -1.8761 -2.8128
  141OSM    H4G15470   5.888   6.355   7.156  0.4009 -0.2241 -1.1244
  141OSM    C5F15471   5.867   6.517   7.286  0.4408 -0.1659  0.5334
  141OSM    H5F15472   5.760   6.519   7.316  0.6443  1.5615  1.2776
  141OSM    H5G15473   5.900   6.623   7.274 -1.4721  0.5186  0.9672
  141OSM    C6F15474   5.946   6.456   7.403 -0.7044 -0.7949  0.5776
  141OSM    H6F15475   6.054   6.469   7.381 -1.3591  1.3884 -1.9435
  141OSM    H6G15476   5.922   6.348   7.413 -0.7380 -0.8879 -0.3821
  141OSM    C7F15477   5.929   6.533   7.539  1.0459 -0.2217 -0.4498
  141OSM    H7F15478   5.829   6.512   7.582  2.1868 -2.5103  1.3297
  141OSM    H7G15479   5.946   6.643   7.541  2.3733 -0.4006  1.2637
  141OSM    C8F15480   6.033   6.500   7.645  0.0900  1.1369 -1.2015
  141OSM    H8F15481   6.048   6.583   7.717 -0.3462 -0.5806  0.9766
  141OSM    H8G15482   6.126   6.482   7.586  0.3980 -4.3043  0.3679
  141OSM    C9F15483   6.003   6.362   7.708 -0.7585 -0.0082 -0.6238
  141OSM    H9F15484   6.009   6.277   7.638 -0.9610 -1.0498  0.5975
  141OSM   C10F15485   5.979   6.337   7.839 -0.1354 -0.3436  0.7099
  141OSM   H10F15486   5.958   6.234   7.871  0.6443 -0.8461 -0.3189
  141OSM   C11F15487   5.976   6.437   7.949 -0.8459  0.1835 -0.2847
  141OSM   H11F15488   6.007   6.537   7.913 -0.7569  0.0027 -0.7112
  141OSM   H11G15489   6.047   6.426   8.034 -1.4111  0.2686  0.2056
  141OSM   C12F15490   5.832   6.464   8.004 -0.1657 -0.0627  0.9949
  141OSM   H12F15491   5.781   6.366   8.016 -0.7267  0.0957 -0.0028
  141OSM   H12G15492   5.774   6.509   7.921 -0.6155  1.7389  2.2239
  141OSM   C13F15493   5.834   6.567   8.116  0.2244  0.8240  0.5669
  141OSM   H13F15494   5.895   6.656   8.090 -1.1387  1.8547  0.7664
  141OSM   H13G15495   5.876   6.510   8.201  0.4943 -1.5253 -1.0508
  141OSM   C14F15496   5.703   6.616   8.157  0.4927 -0.0693  0.4840
  141OSM   H14F15497   5.633   6.531   8.170  1.6227 -1.0224  0.4353
  141OSM   H14G15498   5.663   6.681   8.077  3.0527  0.9937 -0.0246
  141OSM   C15F15499   5.710   6.678   8.297  0.3640  0.4381  0.0166
  141OSM   H15F15500   5.791   6.755   8.296 -0.7502  1.6608  0.3835
  141OSM   H15G15501   5.731   6.598   8.371 -3.0616  1.2326  2.0866
  141OSM   C16F15502   5.583   6.751   8.349  0.0221  0.1583 -0.6025
  141OSM   H16F15503   5.545   6.812   8.264  0.1131 -0.4470 -1.0864
  141OSM   H16G15504   5.607   6.823   8.430  2.6007  1.4332 -2.3877
  141OSM   C17F15505   5.473   6.648   8.372 -0.4422 -0.2257 -0.1179
  141OSM   H17F15506   5.493   6.569   8.447 -1.9514 -0.7672 -0.2501
  141OSM   H17G15507   5.463   6.590   8.278 -0.5585  1.5015 -1.2357
  141OSM   C18F15508   5.332   6.712   8.404  0.1847  0.1437 -0.1570
  141OSM   H18F15509   5.254   6.633   8.410 -0.0952  0.3381 -1.0337
  141OSM   H18G15510   5.305   6.794   8.335 -1.8439  1.0360  1.5901
  141OSM   H18H15511   5.339   6.754   8.506  2.8563 -0.4145 -0.0258
  142OSM      N15512   5.848   1.692   6.109  0.4687 -0.2063  0.7726
  142OSM    C1515513   5.920   1.815   6.058  0.3752 -0.2397 -0.4154
  142OSM   H15A15514   6.028   1.813   6.066  0.3344 -2.1893  0.3049
  142OSM   H15B15515   5.882   1.903   6.107  0.5440  0.5063 -1.6003
  142OSM   H15C15516   5.902   1.826   5.952  0.1057  2.0292 -0.1865
  142OSM    C1415517   5.705   1.695   6.056  0.4373  1.1535 -0.4598
  142OSM   H14A15518   5.687   1.716   5.952 -2.8496 -0.6386 -0.3810
  142OSM   H14B15519   5.647   1.772   6.104 -1.0847  0.8698 -1.7664
  142OSM   H14C15520   5.656   1.600   6.074  2.5348 -0.0710 -0.8154
  142OSM    C1315521   5.908   1.580   6.041  0.2086  0.0019  0.7260
  142OSM   H13A15522   5.986   1.535   6.101  2.4522  0.9328 -1.3026
  142OSM   H13B15523   5.943   1.622   5.947  0.3926 -1.2642  0.2101
  142OSM   H13C15524   5.830   1.507   6.027 -2.0362  2.3420  0.1884
  142OSM    C1215525   5.853   1.675   6.255  0.0297 -0.3041 -0.3373
  142OSM   H12A15526   5.950   1.650   6.297 -0.5173 -2.5199 -0.2732
  142OSM   H12B15527   5.803   1.583   6.282  2.0844 -1.0543  1.2404
  142OSM    C1115528   5.783   1.788   6.337 -1.3647 -0.5079  0.5313
  142OSM   H11A15529   5.795   1.750   6.441  3.5121 -0.0742  0.3622
  142OSM   H11B15530   5.675   1.808   6.322 -1.4394 -1.4104 -0.2554
  142OSM      P15531   5.802   2.051   6.322 -0.3137 -0.3668  0.2726
  142OSM    O1315532   5.915   2.147   6.330  0.6170 -0.1978 -0.0814
  142OSM    O1415533   5.712   2.061   6.200 -0.4175  0.1945  0.1442
  142OSM    O1115534   5.708   2.062   6.452  0.3005 -0.1931 -0.5552
  142OSM    O1215535   5.860   1.905   6.327 -0.2495 -0.1107  0.3600
  142OSM    C1S15536   5.757   2.039   6.586 -0.0154 -0.4055 -0.1670
  142OSM    H1S15537   5.867   2.021   6.589  0.1718  0.0226  4.6722
  142OSM    H1T15538   5.729   1.935   6.616 -0.5876 -0.4732 -0.9179
  142OSM     NF15539   5.803   2.144   6.816  0.1357 -0.3062 -0.1528
  142OSM    HNF15540   5.753   2.123   6.900 -0.0182 -0.1305 -0.2026
  142OSM    C2S15541   5.723   2.152   6.692 -0.0250  0.1821 -0.2425
  142OSM    H2S15542   5.749   2.246   6.638  0.9768 -0.1551 -0.3733
  142OSM    C3S15543   5.571   2.157   6.714  0.7508 -0.4211  0.0939
  142OSM    H3S15544   5.533   2.073   6.776 -1.1105  1.9044  2.3097
  142OSM     O315545   5.501   2.153   6.588  0.3967 -0.0743  0.3399
  142OSM    HO315546   5.551   2.091   6.534 -1.4107 -0.9038 -0.4716
  142OSM    C4S15547   5.532   2.287   6.783 -0.1597  0.1250 -0.7761
  142OSM    H4S15548   5.522   2.368   6.709  1.2780 -0.9717 -2.2451
  142OSM    C5S15549   5.488   2.300   6.912  0.1638 -0.0892  0.0187
  142OSM    H5S15550   5.477   2.211   6.976 -0.3358 -0.1553 -0.1563
  142OSM    C6S15551   5.449   2.430   6.972 -0.5311  0.2654  0.3688
  142OSM    H6S15552   5.353   2.415   7.025  0.9359 -1.9725  2.6877
  142OSM    H6T15553   5.442   2.501   6.888  1.0304  1.4524  1.1911
  142OSM    C7S15554   5.561   2.477   7.082 -1.0869 -0.0331 -1.1004
  142OSM    H7S15555   5.576   2.586   7.100  0.0903 -0.6291  2.2187
  142OSM    H7T15556   5.660   2.453   7.038 -1.0334 -0.6450 -0.6674
  142OSM    C8S15557   5.549   2.416   7.221 -1.0116 -0.3284  0.3249
  142OSM    H8S15558   5.556   2.306   7.208 -3.1489 -0.5850  1.0372
  142OSM    H8T15559   5.449   2.431   7.265 -0.9610 -0.3357  0.4425
  142OSM    C9S15560   5.658   2.473   7.314 -0.1426  1.0921 -0.2291
  142OSM    H9S15561   5.665   2.582   7.294 -2.6328  1.4407  0.4288
  142OSM    H9T15562   5.757   2.429   7.289 -0.0566 -0.1513  1.9766
  142OSM   C10S15563   5.630   2.432   7.461  0.3353 -0.6109 -0.0947
  142OSM   H10S15564   5.658   2.325   7.469  1.0828 -0.3307  1.3035
  142OSM   H10T15565   5.524   2.454   7.487  1.4870  2.9919  2.4436
  142OSM   C11S15566   5.708   2.511   7.565 -0.3106  0.2175  0.7767
  142OSM   H11S15567   5.693   2.620   7.551  3.2431  0.7321 -0.0461
  142OSM   H11T15568   5.814   2.492   7.539 -1.1553 -2.9652 -0.9483
  142OSM   C12S15569   5.688   2.475   7.713 -0.0419  0.3472  0.0289
  142OSM   H12S15570   5.690   2.367   7.739 -1.3367  0.6537  1.4878
  142OSM   H12T15571   5.591   2.520   7.740 -0.8631  0.4101 -2.7101
  142OSM   C13S15572   5.785   2.551   7.807  0.0873  0.0671 -0.3208
  142OSM   H13S15573   5.755   2.658   7.802  0.7972  0.2929  0.1782
  142OSM   H13T15574   5.893   2.535   7.787  0.4222  2.5667 -0.7444
  142OSM   C14S15575   5.764   2.504   7.957 -0.6514 -0.0516 -0.0886
  142OSM   H14S15576   5.799   2.399   7.961  1.7899  0.6779 -0.1534
  142OSM   H14T15577   5.657   2.511   7.987 -1.2088  1.1794 -2.1374
  142OSM   C15S15578   5.852   2.584   8.056  0.5957  0.2678 -0.1936
  142OSM   H15S15579   5.811   2.686   8.047 -0.4412  0.1878  2.5982
  142OSM   H15T15580   5.952   2.566   8.012  0.2773  1.0727 -1.2840
  142OSM   C16S15581   5.836   2.544   8.205  0.0333 -0.0188 -0.0831
  142OSM   H16S15582   5.864   2.436   8.205 -0.8299 -0.2517  0.1728
  142OSM   H16T15583   5.726   2.543   8.221  0.1023  2.3622  0.9953
  142OSM   C17S15584   5.918   2.628   8.304  0.4607  0.2480  0.0815
  142OSM   H17S15585   5.871   2.728   8.312  2.3932  1.1702  0.4594
  142OSM   H17T15586   6.019   2.635   8.257  0.5975 -0.1118  0.3211
  142OSM   C18S15587   5.925   2.579   8.448 -0.1008  0.0068 -0.4371
  142OSM   H18S15588   5.992   2.491   8.457 -0.8916 -0.4876  0.8666
  142OSM   H18T15589   5.826   2.534   8.472  0.9798 -1.4193  1.6717
  142OSM   H18U15590   5.954   2.655   8.523  0.4357  1.4975 -2.0789
  142OSM    C1F15591   5.941   2.151   6.823 -0.3955  0.2734 -1.1424
  142OSM     OF15592   6.004   2.168   6.724 -0.0360  0.3038  0.0640
  142OSM    C2F15593   6.020   2.145   6.949  0.5433  0.1127  0.2496
  142OSM    H2F15594   6.106   2.074   6.941 -0.1825 -0.9875  1.7986
  142OSM    H2G15595   5.959   2.117   7.037  2.2905 -0.6198  1.2720
  142OSM    C3F15596   6.090   2.282   6.973  0.3510 -0.7984  0.0334
  142OSM    H3F15597   6.038   2.375   6.939 -0.1090 -0.9048  0.4372
  142OSM    H3G15598   6.182   2.281   6.911 -0.3851  0.5598 -1.1631
  142OSM    C4F15599   6.129   2.305   7.119  0.3201 -0.5001  0.4808
  142OSM    H4F15600   6.203   2.387   7.108 -0.9402  0.4081 -2.5279
  142OSM    H4G15601   6.182   2.217   7.160  0.6584 -0.3227  0.4295
  142OSM    C5F15602   6.008   2.350   7.201  0.2208 -0.2167 -0.1830
  142OSM    H5F15603   5.921   2.281   7.201  0.4932 -0.5927 -1.4379
  142OSM    H5G15604   5.969   2.446   7.162  0.1934 -0.0491  0.2528
  142OSM    C6F15605   6.044   2.359   7.351  1.0075  0.6913  0.2104
  142OSM    H6F15606   6.070   2.256   7.384  0.0085  0.4890  0.4145
  142OSM    H6G15607   5.958   2.396   7.411 -0.0549 -0.0470 -0.8128
  142OSM    C7F15608   6.167   2.439   7.376  0.3962  0.3981  0.2854
  142OSM    H7F15609   6.154   2.541   7.333 -0.0396 -0.5618 -2.0370
  142OSM    H7G15610   6.252   2.393   7.320 -1.3635 -1.1946 -1.2116
  142OSM    C8F15611   6.214   2.445   7.521  0.6149 -0.6969  0.1407
  142OSM    H8F15612   6.236   2.340   7.554  1.1478 -1.2685 -1.9061
  142OSM    H8G15613   6.123   2.480   7.573 -1.0886 -1.1463 -2.3754
  142OSM    C9F15614   6.332   2.535   7.541  0.1375 -0.6064  0.0315
  142OSM    H9F15615   6.390   2.554   7.450 -0.1875  0.4813  0.0342
  142OSM   C10F15616   6.365   2.591   7.660 -0.2354 -0.0785  0.6772
  142OSM   H10F15617   6.458   2.648   7.672 -0.5162  0.3351  0.9010
  142OSM   C11F15618   6.301   2.558   7.794 -0.1525  0.1956  0.2804
  142OSM   H11F15619   6.389   2.553   7.861  1.3192 -0.5264 -1.6232
  142OSM   H11G15620   6.254   2.458   7.794 -2.0671  1.0437 -0.1646
  142OSM   C12F15621   6.205   2.657   7.867 -0.4378 -0.6590  0.1071
  142OSM   H12F15622   6.197   2.635   7.975  1.6335  0.0349  0.4385
  142OSM   H12G15623   6.103   2.646   7.825 -0.3214  0.2254 -0.4333
  142OSM   C13F15624   6.249   2.801   7.856 -0.2020  0.4541  0.1499
  142OSM   H13F15625   6.159   2.854   7.895 -0.9346 -1.9077  1.8473
  142OSM   H13G15626   6.255   2.837   7.751  0.6611  0.1334  0.0818
  142OSM   C14F15627   6.366   2.847   7.947  0.7826 -0.0308  0.1321
  142OSM   H14F15628   6.455   2.793   7.907  2.1897  1.2131  1.4712
  142OSM   H14G15629   6.353   2.813   8.051 -1.9287 -2.0164 -0.7309
  142OSM   C15F15630   6.405   2.993   7.920  0.2960 -0.4073 -0.2753
  142OSM   H15F15631   6.314   3.057   7.926  1.3561  1.0996  0.5131
  142OSM   H15G15632   6.450   2.997   7.818  0.0779 -0.2400 -0.3641
  142OSM   C16F15633   6.500   3.061   8.020 -0.1877  0.1808 -0.2343
  142OSM   H16F15634   6.519   3.161   7.974  2.2382 -1.4807 -3.1384
  142OSM   H16G15635   6.589   2.996   8.027 -0.1852  0.2802  0.8734
  142OSM   C17F15636   6.441   3.078   8.157 -0.0750 -0.3646  0.0689
  142OSM   H17F15637   6.448   2.979   8.208 -0.9543  0.5698  2.1239
  142OSM   H17G15638   6.334   3.106   8.148 -0.0795 -0.5816 -0.6160
  142OSM   C18F15639   6.509   3.188   8.239  0.4729  0.6324 -0.2060
  142OSM   H18F15640   6.518   3.277   8.174 -1.2181  0.5602 -0.5734
  142OSM   H18G15641   6.609   3.163   8.281  0.2579  1.1750  0.6708
  142OSM   H18H15642   6.449   3.226   8.325  0.3894  0.5575 -0.2319
  143OSM      N15643   0.392   4.316   5.911 -0.2081 -0.4422  0.2792
  143OSM    C1515644   0.397   4.243   5.780  0.2112  0.0579  0.9096
  143OSM   H15A15645   0.498   4.208   5.761 -0.1519 -0.0737 -0.9778
  143OSM   H15B15646   0.366   4.304   5.697 -1.6116 -0.9221  0.8241
  143OSM   H15C15647   0.324   4.165   5.788  0.4033 -0.4702 -1.6834
  143OSM    C1415648   0.494   4.427   5.907  0.6158  0.4077 -0.2622
  143OSM   H14A15649   0.481   4.480   6.000 -0.8722  2.3001 -1.4567
  143OSM   H14B15650   0.485   4.498   5.825 -0.4195  1.0840  0.4159
  143OSM   H14C15651   0.592   4.381   5.906  0.6656  0.3284  2.4765
  143OSM    C1315652   0.254   4.367   5.929 -0.7270 -0.0342 -0.5464
  143OSM   H13A15653   0.240   4.415   6.025 -2.4449  0.1504 -0.8578
  143OSM   H13B15654   0.183   4.286   5.923  0.9563 -1.7810  1.5546
  143OSM   H13C15655   0.231   4.437   5.850  1.7654  0.3764 -0.9885
  143OSM    C1215656   0.441   4.226   6.022 -0.4768 -0.7816 -0.5938
  143OSM   H12A15657   0.544   4.200   6.005 -0.1417  0.6558 -0.9543
  143OSM   H12B15658   0.387   4.133   6.009  0.6102 -1.5501  0.2074
  143OSM    C1115659   0.424   4.280   6.177  0.1512  0.0645 -0.4856
  143OSM   H11A15660   0.449   4.191   6.239 -2.4058 -0.0857  0.4884
  143OSM   H11B15661   0.314   4.293   6.192  0.2814  0.2832  0.3316
  143OSM      P15662   0.659   4.378   6.252 -0.4748 -0.2786  0.2517
  143OSM    O1315663   0.732   4.278   6.174  0.2337 -0.1257  0.0986
  143OSM    O1415664   0.720   4.516   6.253 -0.4517  0.0722  0.4759
  143OSM    O1115665   0.648   4.332   6.405  0.0439 -0.2505 -0.1150
  143OSM    O1215666   0.502   4.386   6.205  0.2192 -0.0382  0.4445
  143OSM    C1S15667   0.547   4.409   6.482  0.2278 -0.6125  0.2539
  143OSM    H1S15668   0.447   4.361   6.472 -2.3617  4.0199  1.1754
  143OSM    H1T15669   0.529   4.510   6.440 -1.2645 -1.4486 -1.2613
  143OSM     NF15670   0.453   4.434   6.709 -0.1764 -0.5329  0.1093
  143OSM    HNF15671   0.428   4.527   6.735  0.1973  0.7822 -3.5610
  143OSM    C2S15672   0.581   4.411   6.635 -0.0807  0.0329 -0.0567
  143OSM    H2S15673   0.622   4.314   6.669  0.3332  0.5456  0.9295
  143OSM    C3S15674   0.697   4.510   6.662 -0.1078 -0.1247 -0.5684
  143OSM    H3S15675   0.662   4.613   6.640  2.3975  0.6615 -1.2276
  143OSM     O315676   0.800   4.485   6.561  0.2929  0.1507  0.3141
  143OSM    HO315677   0.757   4.445   6.484 -0.4217 -2.3636  1.8924
  143OSM    C4S15678   0.762   4.514   6.804  0.4986  0.6589 -0.2997
  143OSM    H4S15679   0.819   4.424   6.832 -1.0278 -0.1150  0.4117
  143OSM    C5S15680   0.739   4.618   6.892  0.3832 -0.2710  0.0913
  143OSM    H5S15681   0.682   4.708   6.865  1.0857  0.3548  0.6520
  143OSM    C6S15682   0.806   4.621   7.031  0.8895  0.6648 -0.5116
  143OSM    H6S15683   0.861   4.528   7.052 -1.2403 -0.1119  2.2515
  143OSM    H6T15684   0.730   4.619   7.112 -1.3011  1.9262 -2.3807
  143OSM    C7S15685   0.902   4.735   7.052 -0.3361 -0.0394  0.0393
  143OSM    H7S15686   0.848   4.831   7.035  0.8952  0.5873 -0.4460
  143OSM    H7T15687   0.980   4.733   6.973  2.0483  4.3299  1.9048
  143OSM    C8S15688   0.961   4.732   7.195 -0.1680  0.0824  0.2719
  143OSM    H8S15689   0.953   4.628   7.235  1.2182  0.0093  0.4399
  143OSM    H8T15690   0.906   4.806   7.256 -0.7779 -0.5631  0.5134
  143OSM    C9S15691   1.118   4.756   7.198  0.7196  0.4031 -0.1629
  143OSM    H9S15692   1.146   4.850   7.146  1.5231  1.3311  1.8598
  143OSM    H9T15693   1.171   4.679   7.138  0.8276  0.4032 -0.0671
  143OSM   C10S15694   1.175   4.764   7.342  0.4468 -0.3668  0.1251
  143OSM   H10S15695   1.275   4.812   7.343 -0.6160  2.0319  2.7134
  143OSM   H10T15696   1.175   4.659   7.378 -2.2324 -0.3863  0.3198
  143OSM   C11S15697   1.098   4.853   7.439 -0.7216  0.2674  0.4542
  143OSM   H11S15698   1.002   4.813   7.479 -0.6781  0.3920  0.6841
  143OSM   H11T15699   1.077   4.952   7.393 -0.0509 -0.5291 -1.6970
  143OSM   C12S15700   1.175   4.880   7.568  0.5287 -0.2892 -0.3081
  143OSM   H12S15701   1.251   4.959   7.552  0.3621 -0.3956 -1.8144
  143OSM   H12T15702   1.232   4.788   7.594  2.4613  0.8577 -0.3241
  143OSM   C13S15703   1.085   4.923   7.689 -0.4894 -0.0774  0.2010
  143OSM   H13S15704   1.015   4.839   7.707 -2.8075  0.8470 -3.4087
  143OSM   H13T15705   1.028   5.015   7.663  1.0608  1.2206  1.2184
  143OSM   C14S15706   1.169   4.950   7.814 -0.0427  0.4699  0.6172
  143OSM   H14S15707   1.245   5.023   7.779  0.3217 -1.0896 -2.1651
  143OSM   H14T15708   1.228   4.865   7.853 -0.2291  0.9780  2.0564
  143OSM   C15S15709   1.076   4.990   7.923 -0.5953  0.4065  0.0250
  143OSM   H15S15710   1.001   4.910   7.937 -0.4241  0.0814 -0.8617
  143OSM   H15T15711   1.020   5.083   7.896 -0.4417  0.3011 -0.6482
  143OSM   C16S15712   1.168   5.020   8.050  0.0999 -0.0393  0.7704
  143OSM   H16S15713   1.235   5.103   8.020 -1.9707  0.7145 -2.2291
  143OSM   H16T15714   1.237   4.937   8.079  0.3022  0.5730  2.1373
  143OSM   C17S15715   1.082   5.065   8.179 -0.7627 -1.0308  0.0545
  143OSM   H17S15716   0.989   5.114   8.143 -0.1809 -0.4198 -0.6585
  143OSM   H17T15717   1.134   5.151   8.226  1.1086 -0.6408 -2.5201
  143OSM   C18S15718   1.053   4.958   8.282  0.4697  0.4290  0.0703
  143OSM   H18S15719   1.020   4.870   8.224  0.0697 -0.4199  1.5320
  143OSM   H18T15720   0.974   4.997   8.350  0.3468  2.1347 -0.9777
  143OSM   H18U15721   1.150   4.928   8.328 -0.5719 -3.1361  0.2523
  143OSM    C1F15722   0.350   4.351   6.709 -0.4512  0.1978  0.5568
  143OSM     OF15723   0.360   4.243   6.656  1.0939 -0.1250 -0.1296
  143OSM    C2F15724   0.217   4.389   6.764 -0.4977  0.0042  0.1976
  143OSM    H2F15725   0.137   4.375   6.689 -0.6904  0.2435  0.3590
  143OSM    H2G15726   0.223   4.495   6.796 -1.1417 -0.2779  1.3041
  143OSM    C3F15727   0.172   4.308   6.881  0.1247 -0.3767 -0.1007
  143OSM    H3F15728   0.162   4.201   6.854  3.5459 -1.1005  1.0415
  143OSM    H3G15729   0.073   4.343   6.919 -0.5288 -1.5940 -0.6455
  143OSM    C4F15730   0.260   4.327   7.007 -0.5240 -0.2775 -0.0841
  143OSM    H4F15731   0.360   4.281   6.987 -0.1745 -0.9769  2.7877
  143OSM    H4G15732   0.228   4.271   7.097  1.9153 -0.4533  0.7635
  143OSM    C5F15733   0.273   4.469   7.060 -0.2830 -0.1057 -0.0656
  143OSM    H5F15734   0.173   4.516   7.065 -2.0206 -3.6186  1.8908
  143OSM    H5G15735   0.337   4.520   6.985  0.5712  2.4197  2.2498
  143OSM    C6F15736   0.314   4.471   7.206  0.1263  0.0647  0.0611
  143OSM    H6F15737   0.360   4.570   7.228 -0.1075  0.2819 -0.4048
  143OSM    H6G15738   0.391   4.394   7.227 -0.8628 -0.2533  2.9309
  143OSM    C7F15739   0.206   4.432   7.309  0.0301  0.1662  0.0506
  143OSM    H7F15740   0.151   4.339   7.280  2.0334 -0.7231 -1.0838
  143OSM    H7G15741   0.128   4.512   7.307 -0.7704 -0.5837  0.5463
  143OSM    C8F15742   0.256   4.416   7.444 -0.0935  0.1219 -0.5209
  143OSM    H8F15743   0.329   4.332   7.445 -1.1958 -0.8978  1.4950
  143OSM    H8G15744   0.172   4.366   7.497  0.7824 -1.0041 -0.1377
  143OSM    C9F15745   0.317   4.541   7.506  0.0732  0.3438  0.2918
  143OSM    H9F15746   0.380   4.591   7.431 -1.4274  0.2026 -1.1153
  143OSM   C10F15747   0.289   4.588   7.627  0.1235 -0.3994 -0.4405
  143OSM   H10F15748   0.332   4.686   7.655 -2.4201  0.4557  0.7564
  143OSM   C11F15749   0.198   4.522   7.727 -0.6868  0.3342  0.2637
  143OSM   H11F15750   0.252   4.535   7.824 -1.7171 -0.3612  0.9490
  143OSM   H11G15751   0.181   4.414   7.708  0.7614  0.0898  0.2149
  143OSM   C12F15752   0.062   4.582   7.760 -0.5039 -0.5326 -0.1079
  143OSM   H12F15753   0.014   4.605   7.662  0.6838 -0.7848 -0.7670
  143OSM   H12G15754   0.074   4.683   7.806  2.6521 -0.6302 -0.4863
  143OSM   C13F15755  -0.035   4.503   7.849 -0.4664  1.2350 -0.6310
  143OSM   H13F15756  -0.041   4.397   7.816 -1.4834  0.9657  0.3376
  143OSM   H13G15757  -0.135   4.547   7.828 -0.9428  0.8481  0.6970
  143OSM   C14F15758  -0.015   4.509   8.005 -0.3210 -0.1908 -0.4475
  143OSM   H14F15759  -0.049   4.611   8.031 -0.6244 -1.0756  3.0666
  143OSM   H14G15760   0.091   4.488   8.033  0.3557  0.0589 -2.5690
  143OSM   C15F15761  -0.103   4.405   8.077  0.4478  0.4630 -0.1579
  143OSM   H15F15762  -0.081   4.303   8.040 -2.3237  0.4882 -2.1787
  143OSM   H15G15763  -0.208   4.423   8.046 -0.7069 -0.9109  2.6712
  143OSM   C16F15764  -0.093   4.404   8.229  0.2155  0.4112 -0.9018
  143OSM   H16F15765  -0.160   4.329   8.275  1.1561 -0.1655 -0.4413
  143OSM   H16G15766  -0.122   4.498   8.281  0.2188 -0.4932  0.7976
  143OSM   C17F15767   0.050   4.361   8.279  1.2484 -0.2440  0.4492
  143OSM   H17F15768   0.122   4.446   8.277  1.5700 -0.5217 -1.7523
  143OSM   H17G15769   0.090   4.286   8.208  1.0207  1.8523 -2.0617
  143OSM   C18F15770   0.043   4.307   8.421 -0.0372  0.4690 -0.9231
  143OSM   H18F15771   0.140   4.264   8.455 -1.3030 -1.1188  0.9651
  143OSM   H18G15772  -0.036   4.229   8.432 -0.1938  0.8170  0.7386
  143OSM   H18H15773   0.021   4.391   8.490  2.1292 -1.6366  2.6429
  144OSM      N15774   5.712   5.040   6.035  0.8616  0.1190 -0.4994
  144OSM    C1515775   5.590   5.109   6.093 -0.4266  0.0047 -0.5185
  144OSM   H15A15776   5.603   5.216   6.089 -0.2291  0.0331  0.5823
  144OSM   H15B15777   5.573   5.086   6.197  0.3508  1.9154  0.0587
  144OSM   H15C15778   5.502   5.081   6.036 -1.1533  0.3350  0.4131
  144OSM    C1415779   5.673   4.899   6.002  0.2149  0.1940 -0.0636
  144OSM   H14A15780   5.763   4.844   5.978 -0.4404 -1.1881  0.5122
  144OSM   H14B15781   5.617   4.877   5.913  1.4548  1.3360 -1.1740
  144OSM   H14C15782   5.629   4.852   6.089  1.2139 -1.0344 -0.1941
  144OSM    C1315783   5.746   5.114   5.908  0.2606  1.1365 -0.1100
  144OSM   H13A15784   5.655   5.122   5.850 -1.2999  2.2397  2.2766
  144OSM   H13B15785   5.821   5.065   5.848  0.1134  1.7305 -0.7909
  144OSM   H13C15786   5.790   5.212   5.917 -0.2310  1.3663 -0.1381
  144OSM    C1215787   5.824   5.046   6.134 -0.4775 -0.0707 -0.7117
  144OSM   H12A15788   5.844   5.143   6.176  0.4354 -0.5874  0.0693
  144OSM   H12B15789   5.917   5.013   6.089  0.6116  1.6252  0.2019
  144OSM    C1115790   5.814   4.948   6.261  0.1147 -0.1758  0.0594
  144OSM   H11A15791   5.713   4.957   6.304  0.5006  1.0395  0.7476
  144OSM   H11B15792   5.890   4.989   6.332  0.9549  0.1463 -0.9864
  144OSM      P15793   5.986   4.737   6.221  0.0257  0.3803 -0.0540
  144OSM    O1315794   5.971   4.610   6.146 -0.4915  0.1146 -0.2352
  144OSM    O1415795   6.082   4.831   6.162 -0.4524  0.5817  0.1981
  144OSM    O1115796   6.009   4.712   6.373 -0.5557 -0.5904  0.6200
  144OSM    O1215797   5.839   4.810   6.226  0.2106  0.1684 -0.2830
  144OSM    C1S15798   5.902   4.647   6.446  0.3108  0.2539  0.2847
  144OSM    H1S15799   5.865   4.551   6.402 -1.5756  1.2307 -0.4063
  144OSM    H1T15800   5.818   4.719   6.455 -0.4276 -0.4100 -0.8690
  144OSM     NF15801   5.845   4.543   6.657  0.4037 -0.3004  0.0009
  144OSM    HNF15802   5.790   4.591   6.725  2.1043 -0.5017  1.5758
  144OSM    C2S15803   5.952   4.607   6.586  0.2395  0.8572  0.2197
  144OSM    H2S15804   6.028   4.528   6.567 -1.7537 -0.8696 -0.9356
  144OSM    C3S15805   6.012   4.712   6.672 -0.0122 -0.1394 -0.5645
  144OSM    H3S15806   5.947   4.800   6.692  1.4362  0.8080  0.1294
  144OSM     O315807   6.129   4.762   6.615 -0.5117 -0.5352 -0.2603
  144OSM    HO315808   6.114   4.754   6.521 -0.2655  0.4432 -0.3940
  144OSM    C4S15809   6.044   4.657   6.812 -0.6757  0.0423  0.2611
  144OSM    H4S15810   6.107   4.567   6.807  0.3163  0.7506 -0.5594
  144OSM    C5S15811   6.015   4.711   6.935  0.4208 -0.6934  0.5233
  144OSM    H5S15812   5.983   4.816   6.939  0.5946 -0.6680  1.6124
  144OSM    C6S15813   6.059   4.646   7.063 -0.5978 -0.0081  0.1270
  144OSM    H6S15814   6.134   4.714   7.109  1.6539 -2.4193  0.2390
  144OSM    H6T15815   6.101   4.544   7.049 -1.0411 -0.3345  1.1322
  144OSM    C7S15816   5.948   4.633   7.177 -0.1303  0.5979 -0.0715
  144OSM    H7S15817   5.878   4.557   7.136 -1.0176  1.2411  0.2297
  144OSM    H7T15818   5.907   4.735   7.191 -0.1264  0.7052 -0.8227
  144OSM    C8S15819   5.996   4.563   7.311  0.2208  0.1624  0.0028
  144OSM    H8S15820   6.078   4.625   7.353  0.2424 -1.0879  1.9092
  144OSM    H8T15821   6.025   4.457   7.291  1.5230  0.3294  0.8756
  144OSM    C9S15822   5.880   4.567   7.404 -0.2817  0.2081 -0.3624
  144OSM    H9S15823   5.794   4.511   7.361 -0.1978 -0.6167  0.5125
  144OSM    H9T15824   5.850   4.674   7.412  0.0978  0.2085  1.4221
  144OSM   C10S15825   5.907   4.514   7.549  1.0869  0.2054  0.8934
  144OSM   H10S15826   5.998   4.562   7.592  0.7024  1.2859  0.5487
  144OSM   H10T15827   5.921   4.406   7.530  0.7677 -0.0453  2.0177
  144OSM   C11S15828   5.797   4.535   7.652  0.6428  0.3821  1.0111
  144OSM   H11S15829   5.709   4.486   7.607  1.8889 -0.6819 -0.3782
  144OSM   H11T15830   5.766   4.641   7.642  0.7318  0.2162 -2.6715
  144OSM   C12S15831   5.846   4.474   7.780  0.3527 -0.5712 -0.5762
  144OSM   H12S15832   5.923   4.537   7.829  1.3699 -1.3561 -1.1171
  144OSM   H12T15833   5.872   4.366   7.785  0.3580 -0.5204  0.7928
  144OSM   C13S15834   5.728   4.479   7.883 -0.1699  0.4708 -0.2963
  144OSM   H13S15835   5.645   4.418   7.843  1.2795  0.2175 -3.2222
  144OSM   H13T15836   5.690   4.584   7.883 -0.5104  0.4009  2.0028
  144OSM   C14S15837   5.774   4.448   8.026  0.1554 -0.7722  0.8787
  144OSM   H14S15838   5.828   4.534   8.071 -0.0346 -0.4952  0.5868
  144OSM   H14T15839   5.845   4.363   8.034  1.2295  0.1297  1.2019
  144OSM   C15S15840   5.660   4.424   8.121 -0.0119  0.3178 -0.6408
  144OSM   H15S15841   5.697   4.430   8.225 -0.4961  2.0358 -0.5322
  144OSM   H15T15842   5.614   4.324   8.107 -0.5194  0.6303 -1.3398
  144OSM   C16S15843   5.555   4.531   8.121  0.0612  0.5066  0.1992
  144OSM   H16S15844   5.513   4.564   8.023  3.1004  1.0767 -1.0532
  144OSM   H16T15845   5.601   4.622   8.167 -0.3762  0.5470  0.5600
  144OSM   C17S15846   5.441   4.498   8.219  0.4373  0.1854  0.3841
  144OSM   H17S15847   5.500   4.490   8.313  3.9710 -1.0837 -1.7318
  144OSM   H17T15848   5.385   4.404   8.200  0.9330 -0.1405  0.4898
  144OSM   C18S15849   5.347   4.623   8.224  0.0702  0.1499 -0.7135
  144OSM   H18S15850   5.275   4.607   8.307  0.1907  1.0123 -0.4340
  144OSM   H18T15851   5.291   4.627   8.128  1.0392  0.6648 -1.2792
  144OSM   H18U15852   5.410   4.714   8.230 -1.3105  1.2070 -1.6323
  144OSM    C1F15853   5.806   4.418   6.633  0.9929  0.2478  0.7500
  144OSM     OF15854   5.871   4.343   6.567 -0.3514  0.3444 -0.8349
  144OSM    C2F15855   5.682   4.380   6.703  0.4165 -0.1725  0.4392
  144OSM    H2F15856   5.610   4.347   6.626 -0.3751 -0.5092  1.3132
  144OSM    H2G15857   5.638   4.460   6.766  0.9676  0.9797 -0.5807
  144OSM    C3F15858   5.716   4.261   6.793 -0.5800 -0.7501 -0.3328
  144OSM    H3F15859   5.739   4.165   6.742 -3.2172 -2.3112  1.2053
  144OSM    H3G15860   5.620   4.245   6.847 -0.1937 -1.6852  0.1038
  144OSM    C4F15861   5.830   4.277   6.909  0.3826 -0.4597 -0.0560
  144OSM    H4F15862   5.801   4.375   6.954 -0.4507  0.1055 -1.7567
  144OSM    H4G15863   5.930   4.286   6.862  0.5674  1.0119  0.5519
  144OSM    C5F15864   5.841   4.160   7.007 -0.3447 -0.3313  0.3035
  144OSM    H5F15865   5.883   4.073   6.953  0.1233  1.0208 -1.6125
  144OSM    H5G15866   5.741   4.123   7.036 -0.0140 -2.3951 -0.9898
  144OSM    C6F15867   5.919   4.197   7.134  0.9438 -0.1164  0.0539
  144OSM    H6F15868   5.872   4.285   7.181 -0.2941 -0.2630 -0.8596
  144OSM    H6G15869   6.020   4.233   7.106  0.9081 -1.5558 -2.1938
  144OSM    C7F15870   5.943   4.069   7.214  0.3679  0.0781 -0.4545
  144OSM    H7F15871   6.015   4.001   7.162 -0.2903 -0.3223 -0.8548
  144OSM    H7G15872   5.843   4.022   7.217 -0.3752  1.5098 -1.6196
  144OSM    C8F15873   5.998   4.080   7.361 -0.0680  0.6277 -0.2211
  144OSM    H8F15874   6.094   4.136   7.360  0.4422 -0.2468 -1.0902
  144OSM    H8G15875   6.007   3.978   7.403  0.2027  0.0134 -1.7302
  144OSM    C9F15876   5.910   4.159   7.459 -0.0577 -0.3675  0.6210
  144OSM    H9F15877   5.857   4.246   7.418  2.2419  0.9534  0.2570
  144OSM   C10F15878   5.873   4.124   7.583  0.9218 -0.6345  0.6742
  144OSM   H10F15879   5.808   4.198   7.631  1.8171  1.7870 -1.6227
  144OSM   C11F15880   5.909   4.001   7.658  0.4141  0.3330  0.0354
  144OSM   H11F15881   5.974   4.021   7.746  0.2840  1.3069 -0.0804
  144OSM   H11G15882   5.969   3.930   7.596  0.7945  1.2244 -0.6497
  144OSM   C12F15883   5.784   3.938   7.711  0.4473 -0.3960  0.3626
  144OSM   H12F15884   5.705   3.929   7.634  0.2258 -0.6561  0.6155
  144OSM   H12G15885   5.745   4.004   7.791 -0.6236  0.0092 -0.4754
  144OSM   C13F15886   5.801   3.794   7.765 -0.6208  0.0029 -0.6262
  144OSM   H13F15887   5.871   3.730   7.707  0.3388 -1.7715  2.2609
  144OSM   H13G15888   5.702   3.746   7.780 -1.2977  1.6627  0.4981
  144OSM   C14F15889   5.859   3.801   7.910  0.2242 -0.9686 -0.2210
  144OSM   H14F15890   5.948   3.868   7.910  0.6028 -1.4163 -1.7974
  144OSM   H14G15891   5.894   3.706   7.955  4.2382  0.3369 -0.2227
  144OSM   C15F15892   5.760   3.863   8.008 -0.4506 -0.5319 -0.5452
  144OSM   H15F15893   5.656   3.829   7.986 -1.0381 -0.1601  1.3948
  144OSM   H15G15894   5.768   3.973   8.021 -1.9654 -0.6551  2.3059
  144OSM   C16F15895   5.798   3.806   8.151 -0.1979 -0.0498  0.8067
  144OSM   H16F15896   5.907   3.821   8.160 -0.5547  1.6060  3.1732
  144OSM   H16G15897   5.772   3.698   8.141 -3.6699  0.8658 -3.0259
  144OSM   C17F15898   5.725   3.870   8.270 -0.6173 -0.8934 -0.6412
  144OSM   H17F15899   5.760   3.831   8.368  1.1569  1.6964 -0.1683
  144OSM   H17G15900   5.618   3.840   8.262 -0.4249 -1.6303 -0.5334
  144OSM   C18F15901   5.739   4.025   8.280  0.1333  0.3230  0.4714
  144OSM   H18F15902   5.693   4.077   8.194 -1.2736 -1.0407  0.3501
  144OSM   H18G15903   5.848   4.043   8.293 -0.1092  1.2386  1.3521
  144OSM   H18H15904   5.685   4.057   8.371 -0.7186  0.5892 -0.1252
  145SAPE     N15905   4.267   5.128  10.765 -0.1128 -0.0965  1.2319
  145SAPE   HN115906   4.197   5.198  10.798  0.0658  1.4306 -1.3274
  145SAPE   HN215907   4.235   5.034  10.797 -0.8932  0.0004  0.7780
  145SAPE   HN315908   4.362   5.157  10.797 -0.1363  1.8510 -0.2885
  145SAPE   C1215909   4.272   5.146  10.617 -0.8686 -0.3339  0.4389
  145SAPE  H12A15910   4.192   5.081  10.578 -1.5882 -0.4426  2.0191
  145SAPE  H12B15911   4.370   5.105  10.586  0.1954  1.8762  0.6848
  145SAPE   C1115912   4.255   5.289  10.555 -0.3711 -0.6444  0.0911
  145SAPE  H11A15913   4.278   5.271  10.447  1.0509 -2.8176  0.6905
  145SAPE  H11B15914   4.332   5.358  10.596  0.9786 -1.9660 -0.1183
  145SAPE     P15915   4.085   5.422  10.695 -0.3208  0.5485 -0.0650
  145SAPE   O1315916   3.944   5.451  10.680  0.2818  0.0078  0.0258
  145SAPE   O1415917   4.127   5.343  10.818 -0.1031  0.3322  0.4354
  145SAPE   O1215918   4.123   5.342  10.567  0.4822 -0.2560 -0.3501
  145SAPE   O1115919   4.174   5.549  10.686  0.1980 -0.0586  0.8328
  145SAPE    C115920   4.136   5.659  10.602  0.2687  0.1773  0.5598
  145SAPE    HA15921   4.026   5.672  10.603  0.5203  2.9862  1.9208
  145SAPE    HB15922   4.193   5.746  10.643  1.1337 -0.5721  0.9779
  145SAPE    C215923   4.180   5.646  10.454  0.5050 -0.2597 -0.2894
  145SAPE    HS15924   4.153   5.739  10.399  0.2531 -0.4185 -0.4395
  145SAPE   O2115925   4.123   5.535  10.388 -0.3190  0.7618 -0.6134
  145SAPE   C2115926   4.001   5.554  10.342  0.5696 -0.1101 -0.4043
  145SAPE   O2215927   3.933   5.654  10.356  0.9816 -0.3947 -0.1214
  145SAPE   C2215928   3.958   5.427  10.270  0.5166 -0.4771 -0.9113
  145SAPE   H2R15929   4.042   5.385  10.208 -0.6497 -1.3303 -1.9713
  145SAPE   H2S15930   3.946   5.345  10.344  1.7732  1.9326  2.1603
  145SAPE    C315931   4.329   5.630  10.449 -0.6369 -0.2600  0.5473
  145SAPE    HX15932   4.360   5.535  10.497 -1.7549 -0.5968  0.6356
  145SAPE    HY15933   4.376   5.709  10.511  1.5521 -0.2278 -1.0504
  145SAPE   O3115934   4.369   5.626  10.311  0.3182 -0.0815  0.4163
  145SAPE   C3115935   4.410   5.738  10.253 -0.0310 -0.0757 -0.1485
  145SAPE   O3215936   4.425   5.842  10.311 -0.2494 -0.0024 -0.4023
  145SAPE   C3215937   4.433   5.719  10.102  0.4552  0.6229 -0.3050
  145SAPE   H2X15938   4.484   5.622  10.085 -2.7260 -0.9764 -1.4154
  145SAPE   H2Y15939   4.501   5.805  10.080 -0.5709  2.1140  1.9556
  145SAPE   C2315940   3.833   5.438  10.188  0.3231 -0.3275  0.1768
  145SAPE   H3R15941   3.739   5.466  10.238  0.4226  0.3950 -0.0282
  145SAPE   H3S15942   3.814   5.336  10.148 -1.8436  0.8809 -2.1881
  145SAPE   C2415943   3.860   5.532  10.061 -0.0637 -0.4222  0.3853
  145SAPE   H4R15944   3.870   5.632  10.109 -0.4742 -0.6054  0.8611
  145SAPE   H4S15945   3.759   5.534  10.015 -0.0913  2.0444  0.4298
  145SAPE   C2515946   3.967   5.496   9.964 -0.0173 -0.8814 -0.4000
  145SAPE   H5R15947   4.064   5.477  10.010  0.5780 -3.3372 -2.4758
  145SAPE   C2615948   3.942   5.454   9.838 -0.4715 -0.4073  0.0203
  145SAPE   H6R15949   4.034   5.437   9.780  0.5248  0.6668  1.2326
  145SAPE   C2715950   3.812   5.454   9.757  0.5996  0.3224 -0.1013
  145SAPE   H7R15951   3.816   5.515   9.664  2.8034  0.6847  0.1901
  145SAPE   H7S15952   3.726   5.499   9.812  1.4274  0.8997  0.7568
  145SAPE   C2815953   3.769   5.315   9.738  1.2000  0.3327  0.2800
  145SAPE   H8R15954   3.718   5.263   9.821  2.1643  1.0346  1.3403
  145SAPE   C2915955   3.792   5.252   9.622  0.2516 -0.3699 -0.3742
  145SAPE   H9R15956   3.759   5.148   9.608 -1.5687  0.2346 -0.8146
  145SAPE  C21015957   3.858   5.312   9.501  0.3831 -0.0512 -0.7157
  145SAPE  H10R15958   3.928   5.231   9.472 -0.7814 -1.1159 -0.6982
  145SAPE  H10S15959   3.919   5.396   9.539  2.1368 -2.2431  1.6239
  145SAPE  C21115960   3.764   5.354   9.393  0.4135 -0.3118 -0.0485
  145SAPE  H11R15961   3.773   5.458   9.358  0.3854 -0.1137  0.5293
  145SAPE  C21215962   3.686   5.281   9.315 -0.0652  0.4594  0.0964
  145SAPE  H12R15963   3.635   5.326   9.229 -1.0436 -0.2217  0.2982
  145SAPE  C21315964   3.665   5.133   9.326  0.0751 -0.0374  0.0058
  145SAPE  H13R15965   3.562   5.107   9.356  0.7347 -0.4352  2.0960
  145SAPE  H13S15966   3.732   5.083   9.399 -0.3851 -0.9849 -0.2088
  145SAPE  C21415967   3.681   5.061   9.194 -0.3033  0.4080  0.5989
  145SAPE  H14R15968   3.594   5.008   9.153  2.7274 -3.7456 -1.2430
  145SAPE  C21515969   3.796   5.056   9.118 -0.9913 -0.3649 -0.1411
  145SAPE  H15R15970   3.784   5.006   9.020 -1.4621  1.3728 -1.0080
  145SAPE  C21615971   3.941   5.105   9.128 -0.7610  0.4067  0.3522
  145SAPE  H16R15972   3.951   5.190   9.199 -0.7786  1.7772 -1.2104
  145SAPE  H16S15973   3.973   5.141   9.028  0.8091 -1.6066  0.0612
  145SAPE  C21715974   4.045   4.995   9.162  0.0828  0.4634 -0.2344
  145SAPE  H17R15975   4.045   4.923   9.077  0.2700  1.6396 -1.2587
  145SAPE  H17S15976   4.011   4.938   9.252  0.4355  0.1344 -0.3080
  145SAPE  C21815977   4.189   5.058   9.175 -0.0812 -0.6103  0.5076
  145SAPE  H18R15978   4.208   5.095   9.072  0.3117 -0.4760  0.6294
  145SAPE  H18S15979   4.271   4.985   9.190  1.6031  0.9600 -0.6779
  145SAPE  C21915980   4.208   5.171   9.276 -0.0750  0.3725  0.5366
  145SAPE  H19R15981   4.153   5.265   9.256  2.8067  1.6777 -2.0926
  145SAPE  H19S15982   4.314   5.201   9.262  0.9070 -0.9718  4.1515
  145SAPE  C22015983   4.184   5.130   9.420 -0.2213 -0.2784 -0.2597
  145SAPE  H20R15984   4.257   5.050   9.446 -0.3234 -1.1736 -2.5452
  145SAPE  H20S15985   4.081   5.094   9.440 -0.5916  1.2627  0.7392
  145SAPE  H20T15986   4.201   5.218   9.485  1.3695  1.2133 -2.5637
  145SAPE   C3315987   4.306   5.719  10.010  0.1995  0.2089 -0.5239
  145SAPE   H3X15988   4.244   5.812  10.016  0.3913  0.4276 -1.5979
  145SAPE   H3Y15989   4.242   5.631  10.030  0.4414  0.7468  3.2337
  145SAPE   C3415990   4.355   5.704   9.867 -0.4592 -0.2518  0.1270
  145SAPE   H4X15991   4.439   5.631   9.864 -0.6568 -0.7003  2.9179
  145SAPE   H4Y15992   4.393   5.800   9.825  0.2557 -1.0376 -1.0945
  145SAPE   C3515993   4.253   5.635   9.776 -0.1720 -0.5113 -0.0494
  145SAPE   H5X15994   4.161   5.696   9.784 -0.9273 -1.7864  1.5238
  145SAPE   H5Y15995   4.241   5.531   9.812 -0.6781 -0.2300  0.6008
  145SAPE   C3615996   4.294   5.632   9.630  0.4289  0.4516  0.3769
  145SAPE   H6X15997   4.361   5.546   9.608 -0.8426 -0.3085 -0.7012
  145SAPE   H6Y15998   4.348   5.725   9.602  1.3034 -0.5288 -1.4050
  145SAPE   C3715999   4.177   5.606   9.531 -0.1081  0.0009 -0.2897
  145SAPE   H7X16000   4.092   5.676   9.545 -2.9192 -2.1731 -4.3452
  145SAPE   H7Y16001   4.138   5.503   9.546  1.1275 -0.4737 -0.2018
  145SAPE   C3816002   4.221   5.610   9.386  0.0356 -0.1596 -0.4582
  145SAPE   H8X16003   4.301   5.534   9.371  0.2685  0.4355 -2.5250
  145SAPE   H8Y16004   4.258   5.711   9.359  1.4226  0.1307  2.1582
  145SAPE   C3916005   4.107   5.584   9.287  0.0821  0.2882  0.0707
  145SAPE   H9X16006   4.029   5.655   9.322  2.0963  2.1832  0.9983
  145SAPE   H9Y16007   4.069   5.486   9.322  1.3109 -0.2031  0.0694
  145SAPE  C31016008   4.152   5.583   9.141  0.2356  0.1752  0.1206
  145SAPE  H10X16009   4.205   5.485   9.141  2.4144  1.1758  3.4830
  145SAPE  H10Y16010   4.242   5.646   9.129  0.0167  0.2978 -0.9289
  145SAPE  C31116011   4.037   5.618   9.044 -0.3758 -0.2209  0.4593
  145SAPE  H11X16012   3.955   5.548   9.070  0.0246  0.0787  2.7485
  145SAPE  H11Y16013   4.066   5.586   8.942  1.0664 -0.8674  1.0453
  145SAPE  C31216014   3.995   5.762   9.047 -0.3794 -0.3904 -0.5802
  145SAPE  H12X16015   3.933   5.774   9.138 -0.9952  0.5656 -1.0964
  145SAPE  H12Y16016   3.929   5.782   8.959 -0.5367 -0.9112 -0.5832
  145SAPE  C31316017   4.115   5.857   9.054  0.3152 -0.7784 -0.7418
  145SAPE  H13X16018   4.204   5.817   9.002  1.8553  0.0815  1.1228
  145SAPE  H13Y16019   4.155   5.863   9.157  0.5257 -1.8007 -0.7547
  145SAPE  C31416020   4.091   6.000   9.001 -0.1626 -0.0336  0.1337
  145SAPE  H14X16021   4.182   6.061   9.022  0.0507 -0.8709  1.8067
  145SAPE  H14Y16022   4.000   6.036   9.054 -0.3735 -1.8016  1.0609
  145SAPE  C31516023   4.075   6.007   8.850  0.3628  0.1612 -0.0443
  145SAPE  H15X16024   3.974   5.962   8.834  0.0526  0.7030  0.3382
  145SAPE  H15Y16025   4.157   5.952   8.799 -0.5757  0.1339 -1.6062
  145SAPE  C31616026   4.071   6.143   8.792 -0.4255 -0.5762  0.6879
  145SAPE  H16X16027   4.049   6.134   8.684  0.1647 -0.8574  0.5842
  145SAPE  H16Y16028   4.173   6.187   8.799 -0.4901 -0.1446 -0.7628
  145SAPE  C31716029   3.964   6.230   8.864  0.3590  1.1021 -0.3237
  145SAPE  H17X16030   3.999   6.264   8.963  0.0486  2.0614 -0.5298
  145SAPE  H17Y16031   3.871   6.172   8.883 -0.2102  2.7609  2.5824
  145SAPE  C31816032   3.925   6.356   8.777 -1.2491 -0.6135 -0.1432
  145SAPE  H18X16033   3.890   6.344   8.672  0.7596 -1.1355 -0.8105
  145SAPE  H18Y16034   4.014   6.423   8.778 -1.5319 -0.1454  2.7102
  145SAPE  H18Z16035   3.850   6.422   8.826 -0.0334  1.0059 -0.3834
  146SAPE     N16036   3.685   0.398  10.905 -0.0969 -0.3476  0.2219
  146SAPE   HN116037   3.596   0.349  10.880 -0.5551  0.3714  0.4261
  146SAPE   HN216038   3.660   0.498  10.896 -0.5830 -0.5819 -1.2382
  146SAPE   HN316039   3.761   0.372  10.839 -0.4658 -1.9131  0.3558
  146SAPE   C1216040   3.723   0.365  11.043  0.3371  0.2439 -0.1063
  146SAPE  H12A16041   3.643   0.412  11.104 -0.7231 -1.2970 -0.2552
  146SAPE  H12B16042   3.824   0.411  11.054 -0.2901  2.1116 -1.6141
  146SAPE   C1116043   3.717   0.216  11.073 -0.0008  0.5400  0.2523
  146SAPE  H11A16044   3.612   0.185  11.057 -0.4148  1.7058  0.6214
  146SAPE  H11B16045   3.744   0.195  11.178  1.6384 -0.3636 -0.3133
  146SAPE     P16046   3.787  -0.021  10.996  0.0491 -0.4625 -0.3846
  146SAPE   O1316047   3.912  -0.099  11.017  0.3709  0.0211 -0.6410
  146SAPE   O1416048   3.672  -0.057  11.077 -0.0694  0.0380 -0.4553
  146SAPE   O1216049   3.803   0.141  10.987  0.0678 -0.1598 -0.3076
  146SAPE   O1116050   3.739  -0.048  10.847  0.7007 -0.0573  0.8130
  146SAPE    C116051   3.613   0.016  10.806  0.6454 -0.1571 -0.5878
  146SAPE    HA16052   3.528  -0.030  10.862  2.4544 -1.1406  1.5025
  146SAPE    HB16053   3.608   0.125  10.827  1.6419 -0.4753  1.5099
  146SAPE    C216054   3.566  -0.018  10.662  0.2764 -0.0653  0.2887
  146SAPE    HS16055   3.581  -0.127  10.650  1.4485  0.2523 -1.6768
  146SAPE   O2116056   3.651   0.052  10.574  0.0009  0.3973 -0.1679
  146SAPE   C2116057   3.685   0.003  10.462 -0.0354 -0.4715  0.7830
  146SAPE   O2216058   3.672  -0.113  10.427 -0.2325  0.0898 -0.0853
  146SAPE   C2216059   3.766   0.111  10.386  0.0777  0.5048 -0.2261
  146SAPE   H2R16060   3.797   0.186  10.462 -0.3120 -0.8289  1.2846
  146SAPE   H2S16061   3.866   0.068  10.362  0.3802  0.5082  0.9737
  146SAPE    C316062   3.419   0.018  10.628  0.2959  0.2186  0.8288
  146SAPE    HX16063   3.410   0.129  10.635 -0.5053  0.2712 -0.5750
  146SAPE    HY16064   3.343  -0.037  10.687  0.9055 -2.0661 -0.3843
  146SAPE   O3116065   3.402   0.001  10.486  0.4064 -0.6669 -0.2807
  146SAPE   C3116066   3.363  -0.123  10.440 -0.1715  0.3709 -0.4507
  146SAPE   O3216067   3.354  -0.219  10.511  0.6871  0.3017 -0.0110
  146SAPE   C3216068   3.359  -0.123  10.293 -0.2048  0.3706 -0.8302
  146SAPE   H2X16069   3.457  -0.084  10.260  0.9454 -1.9009 -0.2568
  146SAPE   H2Y16070   3.278  -0.054  10.258  0.3667  1.5287  0.0608
  146SAPE   C2316071   3.697   0.175  10.261  0.3111  0.8038  0.4106
  146SAPE   H3R16072   3.744   0.275  10.246 -1.1043  1.1443 -2.1793
  146SAPE   H3S16073   3.592   0.195  10.290  1.0293  2.6217  2.0148
  146SAPE   C2416074   3.714   0.097  10.133 -0.1145  0.2886  0.3485
  146SAPE   H4R16075   3.617   0.100  10.079 -0.6904  1.3738  1.3784
  146SAPE   H4S16076   3.736  -0.010  10.152 -0.6720  0.0595 -0.2885
  146SAPE   C2516077   3.833   0.143  10.054 -0.3675 -0.7069  0.6688
  146SAPE   H5R16078   3.934   0.131  10.097  1.3188  1.3785 -2.2974
  146SAPE   C2616079   3.827   0.196   9.932 -0.6756 -0.2045 -0.4902
  146SAPE   H6R16080   3.922   0.223   9.884 -1.1057  1.0730 -0.6461
  146SAPE   C2716081   3.713   0.230   9.839  0.0153  0.3548 -0.1018
  146SAPE   H7R16082   3.744   0.315   9.774 -0.6523  0.4242 -0.3300
  146SAPE   H7S16083   3.621   0.256   9.895 -0.3544  1.4745 -1.1780
  146SAPE   C2816084   3.693   0.114   9.749  0.0770 -0.0570  0.1426
  146SAPE   H8R16085   3.633   0.037   9.800  0.6219 -0.7894 -0.2919
  146SAPE   C2916086   3.741   0.094   9.621 -0.6952  0.0920 -0.4524
  146SAPE   H9R16087   3.731  -0.002   9.569 -2.0080  0.5276 -1.0570
  146SAPE  C21016088   3.816   0.199   9.541 -0.0007  0.2947  0.1415
  146SAPE  H10R16089   3.904   0.154   9.490  2.9426  3.0919  2.3161
  146SAPE  H10S16090   3.863   0.275   9.608 -1.0966  0.9017  0.2315
  146SAPE  C21116091   3.735   0.281   9.445  0.4528  0.0365  0.7033
  146SAPE  H11R16092   3.666   0.351   9.494 -0.8907  0.3283 -1.4785
  146SAPE  C21216093   3.749   0.290   9.313 -0.8792 -0.6395  0.3823
  146SAPE  H12R16094   3.682   0.362   9.263  0.2622 -0.6268 -1.1708
  146SAPE  C21316095   3.840   0.205   9.229 -0.2197 -0.6101 -0.8698
  146SAPE  H13R16096   3.902   0.146   9.299 -0.0319 -0.1296 -0.6303
  146SAPE  H13S16097   3.917   0.265   9.176 -0.8291 -0.2749 -1.3831
  146SAPE  C21416098   3.762   0.124   9.130  0.1147  0.6354 -0.3162
  146SAPE  H14R16099   3.738   0.022   9.163 -0.7248  1.3794  1.4557
  146SAPE  C21516100   3.724   0.147   9.009 -0.0446  0.2701  0.0228
  146SAPE  H15R16101   3.665   0.069   8.957 -1.4531  1.9523 -1.0260
  146SAPE  C21616102   3.752   0.269   8.926  0.8626 -0.2847  0.4832
  146SAPE  H16R16103   3.832   0.328   8.975 -1.6613  1.0056  3.2915
  146SAPE  H16S16104   3.656   0.323   8.930  0.3285 -1.1642 -0.0806
  146SAPE  C21716105   3.784   0.240   8.781 -0.3825  0.2047 -0.4345
  146SAPE  H17R16106   3.692   0.217   8.723 -1.5666  1.2403  0.9647
  146SAPE  H17S16107   3.857   0.157   8.766 -0.9130 -0.3682  0.1127
  146SAPE  C21816108   3.844   0.368   8.719  0.1214 -0.1231 -0.1085
  146SAPE  H18R16109   3.938   0.392   8.772  0.8533 -2.0228 -0.4615
  146SAPE  H18S16110   3.764   0.445   8.721 -0.9492 -1.2084  0.1644
  146SAPE  C21916111   3.876   0.331   8.578 -0.3703  0.2749 -0.3347
  146SAPE  H19R16112   3.794   0.276   8.527 -0.4728 -1.1597  1.3224
  146SAPE  H19S16113   3.954   0.252   8.582 -1.1085 -0.5540 -1.5781
  146SAPE  C22016114   3.921   0.441   8.488  0.5994  0.4718  0.4269
  146SAPE  H20R16115   3.944   0.390   8.392  0.5664  0.6347  0.3342
  146SAPE  H20S16116   4.016   0.488   8.524  0.4291  1.5495 -0.4985
  146SAPE  H20T16117   3.850   0.525   8.477 -1.0736 -0.8189  0.8969
  146SAPE   C3316118   3.323  -0.254  10.227  0.0804  0.5708  0.0647
  146SAPE   H3X16119   3.215  -0.273  10.247 -0.0552  1.2736  0.0308
  146SAPE   H3Y16120   3.374  -0.337  10.280  0.7133  0.0116 -1.3890
  146SAPE   C3416121   3.342  -0.249  10.070  0.3809 -0.0517 -0.3367
  146SAPE   H4X16122   3.443  -0.206  10.051  1.1288 -0.7667  1.7003
  146SAPE   H4Y16123   3.265  -0.180  10.032  1.2802  2.3993  1.9768
  146SAPE   C3516124   3.338  -0.399  10.013 -0.4211  0.2175 -0.5896
  146SAPE   H5X16125   3.233  -0.430  10.030 -0.7361  0.7529 -1.4998
  146SAPE   H5Y16126   3.401  -0.473  10.067 -0.2135  1.8699  1.5654
  146SAPE   C3616127   3.372  -0.411   9.864 -0.0500  0.0207  0.5396
  146SAPE   H6X16128   3.313  -0.332   9.813 -0.2678  0.1870  1.0516
  146SAPE   H6Y16129   3.364  -0.517   9.831  0.2092  0.2231 -0.2064
  146SAPE   C3716130   3.522  -0.376   9.823 -0.1586 -0.2842 -0.7372
  146SAPE   H7X16131   3.586  -0.458   9.862 -1.9505 -0.4436  2.1416
  146SAPE   H7Y16132   3.553  -0.281   9.869  0.9096 -0.8059 -0.3607
  146SAPE   C3816133   3.540  -0.367   9.671 -0.3252 -0.0813 -0.7875
  146SAPE   H8X16134   3.483  -0.284   9.626  0.6001  1.2343  0.3613
  146SAPE   H8Y16135   3.499  -0.463   9.631 -0.8928  0.0429 -0.5167
  146SAPE   C3916136   3.679  -0.341   9.626 -0.8991  0.2546 -0.2881
  146SAPE   H9X16137   3.732  -0.435   9.651 -0.6654  1.0934  2.8059
  146SAPE   H9Y16138   3.727  -0.261   9.687  1.0846 -1.5566  0.6487
  146SAPE  C31016139   3.687  -0.317   9.482  0.4591 -0.0502 -0.4466
  146SAPE  H10X16140   3.651  -0.216   9.451 -0.6363 -0.5430 -0.8107
  146SAPE  H10Y16141   3.625  -0.396   9.436  1.6339 -0.3438 -1.5997
  146SAPE  C31116142   3.836  -0.339   9.428  0.8227 -0.4761 -0.1232
  146SAPE  H11X16143   3.856  -0.448   9.433  0.7860 -0.4491  0.7562
  146SAPE  H11Y16144   3.911  -0.280   9.485  0.3460  0.5263 -0.5047
  146SAPE  C31216145   3.861  -0.291   9.280  0.1300 -0.1827  0.6533
  146SAPE  H12X16146   3.814  -0.191   9.266  0.7004  0.0056  0.0211
  146SAPE  H12Y16147   3.815  -0.366   9.212 -0.5219  0.9836 -0.2344
  146SAPE  C31316148   4.008  -0.277   9.255  1.0089  1.4116  0.1744
  146SAPE  H13X16149   4.065  -0.367   9.285 -3.4614 -0.8991  2.6506
  146SAPE  H13Y16150   4.043  -0.197   9.324 -1.8093  2.2138  0.7884
  146SAPE  C31416151   4.045  -0.246   9.112 -0.1527 -0.4448 -0.7477
  146SAPE  H14X16152   3.996  -0.148   9.094  0.3464  0.3792  1.9165
  146SAPE  H14Y16153   4.001  -0.312   9.034 -1.0151  0.4971 -1.0760
  146SAPE  C31516154   4.193  -0.216   9.098  0.3114  0.1782  0.5681
  146SAPE  H15X16155   4.240  -0.308   9.140  0.4726  0.4987  1.0853
  146SAPE  H15Y16156   4.232  -0.137   9.165  1.5839  0.8502 -0.8980
  146SAPE  C31616157   4.242  -0.204   8.953 -0.2820 -0.4287  0.3011
  146SAPE  H16X16158   4.177  -0.266   8.887  0.3607 -0.2548 -0.5203
  146SAPE  H16Y16159   4.343  -0.251   8.954 -0.2788 -0.4556 -0.3704
  146SAPE  C31716160   4.253  -0.060   8.901 -0.0666 -0.3432 -0.0737
  146SAPE  H17X16161   4.321  -0.052   8.813  0.1463 -0.5714  0.0686
  146SAPE  H17Y16162   4.290   0.003   8.984 -3.7481 -0.3243  1.7390
  146SAPE  C31816163   4.117   0.008   8.871  0.5669  0.3964  0.1078
  146SAPE  H18X16164   4.049  -0.067   8.825  2.0115 -0.0234 -1.4373
  146SAPE  H18Y16165   4.118   0.095   8.801  0.7052  1.0058  0.8499
  146SAPE  H18Z16166   4.071   0.048   8.964 -0.5269  1.9367 -1.0463
  147SAPE     N16167   4.522   2.678  11.362  0.5586 -0.7717 -0.1198
  147SAPE   HN116168   4.617   2.641  11.381  1.3181  0.9927 -0.3374
  147SAPE   HN216169   4.538   2.779  11.343  1.7874 -0.7483  0.9529
  147SAPE   HN316170   4.481   2.678  11.458 -0.3761 -1.7626 -0.4991
  147SAPE   C1216171   4.453   2.593  11.256  0.1413 -1.5192 -0.4667
  147SAPE  H12A16172   4.351   2.581  11.299  0.1480  1.6093  0.6458
  147SAPE  H12B16173   4.510   2.497  11.258  2.5520 -0.2901  4.1986
  147SAPE   C1116174   4.449   2.656  11.116 -0.5893  0.1111 -0.5788
  147SAPE  H11A16175   4.382   2.743  11.131  0.1311  0.2200  3.1602
  147SAPE  H11B16176   4.403   2.586  11.044  0.5872 -0.1483 -1.1087
  147SAPE     P16177   4.589   2.831  10.960 -0.0889  0.0331  0.0514
  147SAPE   O1316178   4.554   2.949  11.035 -0.2976 -0.3614 -0.3741
  147SAPE   O1416179   4.725   2.835  10.908  0.2507  0.7203 -0.0126
  147SAPE   O1216180   4.575   2.702  11.053  0.6089 -0.0566  0.2653
  147SAPE   O1116181   4.480   2.814  10.841  0.4941 -0.4169  0.2585
  147SAPE    C116182   4.511   2.820  10.708  0.0948 -0.3947  0.7879
  147SAPE    HA16183   4.438   2.883  10.654  0.8192 -0.6893 -0.5831
  147SAPE    HB16184   4.609   2.872  10.695  0.4108 -0.7675  1.5701
  147SAPE    C216185   4.514   2.678  10.662 -0.6560  1.5651  0.8202
  147SAPE    HS16186   4.591   2.611  10.707 -1.7838  0.0387  0.5422
  147SAPE   O2116187   4.529   2.668  10.519 -0.1421  0.2179  0.7171
  147SAPE   C2116188   4.642   2.699  10.463  0.2567  0.2497  0.2591
  147SAPE   O2216189   4.747   2.715  10.520 -0.4740 -0.2340 -0.4064
  147SAPE   C2216190   4.612   2.702  10.312 -0.3371 -0.2535 -0.0523
  147SAPE   H2R16191   4.508   2.669  10.289 -0.2777 -0.0745 -0.5945
  147SAPE   H2S16192   4.619   2.809  10.284  0.9188  0.4126  2.5291
  147SAPE    C316193   4.377   2.614  10.693  0.3919 -0.2801  0.3309
  147SAPE    HX16194   4.306   2.699  10.692  1.6548  0.8114  0.3748
  147SAPE    HY16195   4.369   2.590  10.801  0.9527  0.4416  0.5456
  147SAPE   O3116196   4.342   2.499  10.608  0.0247  0.0685 -0.2780
  147SAPE   C3116197   4.265   2.522  10.509  0.9573 -0.1495  0.1213
  147SAPE   O3216198   4.245   2.633  10.458 -0.4880  0.3315 -0.3724
  147SAPE   C3216199   4.193   2.390  10.463 -0.0113  0.5057 -0.4032
  147SAPE   H2X16200   4.084   2.405  10.456 -0.2763 -1.3176 -0.5259
  147SAPE   H2Y16201   4.232   2.309  10.529  0.8971  1.0042 -0.3031
  147SAPE   C2316202   4.716   2.617  10.232  1.0331  0.1342 -0.5154
  147SAPE   H3R16203   4.724   2.516  10.279 -2.9427 -0.2173 -0.2889
  147SAPE   H3S16204   4.818   2.662  10.228  1.0703 -0.0440 -2.0911
  147SAPE   C2416205   4.673   2.595  10.085  0.3873 -0.4662 -0.0556
  147SAPE   H4R16206   4.565   2.577  10.063 -0.1485  2.1552  0.0327
  147SAPE   H4S16207   4.738   2.516  10.042  0.2089 -0.9491  0.5462
  147SAPE   C2516208   4.694   2.712  10.004 -0.7622 -0.9297  0.4354
  147SAPE   H5R16209   4.749   2.796  10.047 -1.9845  1.0839 -1.7018
  147SAPE   C2616210   4.674   2.717   9.869 -0.3857 -0.1904  0.3097
  147SAPE   H6R16211   4.694   2.817   9.827  1.3824  0.4206  2.4165
  147SAPE   C2716212   4.616   2.613   9.778 -0.5503  0.0960 -0.2985
  147SAPE   H7R16213   4.604   2.515   9.829  0.2172  0.5197  0.7261
  147SAPE   H7S16214   4.696   2.584   9.706  0.8595 -2.0340  1.9510
  147SAPE   C2816215   4.488   2.627   9.704  0.4332 -0.3986  0.3895
  147SAPE   H8R16216   4.397   2.583   9.747 -2.2493  3.4775 -0.7414
  147SAPE   C2916217   4.474   2.685   9.584  0.4362 -0.4486  0.3226
  147SAPE   H9R16218   4.369   2.690   9.551  0.5391 -0.0977  0.0526
  147SAPE  C21016219   4.574   2.751   9.499 -0.2580 -0.4744 -0.2173
  147SAPE  H10R16220   4.662   2.771   9.563  0.3426 -2.0224 -0.5293
  147SAPE  H10S16221   4.534   2.852   9.476  1.4222  0.5169  1.0148
  147SAPE  C21116222   4.601   2.664   9.379 -0.4103 -0.7016 -1.1076
  147SAPE  H11R16223   4.693   2.602   9.375  1.1838  1.4924 -0.3847
  147SAPE  C21216224   4.519   2.665   9.271 -0.2173 -0.1372 -0.3348
  147SAPE  H12R16225   4.554   2.607   9.183  4.4778  0.8501  0.6202
  147SAPE  C21316226   4.401   2.760   9.243  0.0131  0.0761 -0.7121
  147SAPE  H13R16227   4.445   2.859   9.218  1.6555 -0.3427  0.3706
  147SAPE  H13S16228   4.343   2.780   9.336  0.4535  0.8408 -0.6013
  147SAPE  C21416229   4.323   2.720   9.120  0.9048 -0.1980  0.1062
  147SAPE  H14R16230   4.259   2.631   9.129 -0.8449  0.9012 -0.8163
  147SAPE  C21516231   4.323   2.774   9.000  0.1485 -0.1254  0.6346
  147SAPE  H15R16232   4.275   2.717   8.919 -0.2613  0.6967  0.2867
  147SAPE  C21616233   4.391   2.895   8.945  0.2253 -0.3829 -0.1720
  147SAPE  H16R16234   4.452   2.949   9.020  2.7713 -0.7042 -1.8684
  147SAPE  H16S16235   4.329   2.975   8.899  0.1024 -0.6558 -0.4871
  147SAPE  C21716236   4.500   2.856   8.839  0.5941  0.4443  0.0166
  147SAPE  H17R16237   4.448   2.812   8.751 -1.0710  1.7320  0.3125
  147SAPE  H17S16238   4.571   2.780   8.878  0.8846  0.7424  0.0740
  147SAPE  C21816239   4.577   2.981   8.789  0.1077  0.1798 -0.6224
  147SAPE  H18R16240   4.660   3.006   8.859 -0.4574 -1.4184  0.6869
  147SAPE  H18S16241   4.509   3.069   8.783  1.1066  1.0358  0.1022
  147SAPE  C21916242   4.645   2.962   8.653  0.4295  0.3329 -0.3337
  147SAPE  H19R16243   4.700   3.052   8.617  2.2037 -1.2320 -1.6800
  147SAPE  H19S16244   4.562   2.943   8.581  0.3710 -1.0637  0.0725
  147SAPE  C22016245   4.738   2.844   8.644  0.5751  0.4157  0.4912
  147SAPE  H20R16246   4.787   2.837   8.545  1.3988  3.9010  0.5140
  147SAPE  H20S16247   4.684   2.748   8.658  1.8931 -0.5078 -0.4577
  147SAPE  H20T16248   4.830   2.842   8.706  1.2956 -0.0367 -0.5701
  147SAPE   C3316249   4.244   2.348  10.320 -0.9126  0.0171 -0.0483
  147SAPE   H3X16250   4.249   2.442  10.261  2.1538  0.3834  0.5989
  147SAPE   H3Y16251   4.174   2.272  10.279 -0.1050 -0.8010  0.0594
  147SAPE   C3416252   4.386   2.290  10.313 -1.1610 -0.3448 -0.4777
  147SAPE   H4X16253   4.393   2.180  10.327 -1.0117 -0.5224 -1.7806
  147SAPE   H4Y16254   4.451   2.335  10.391 -3.0782 -0.5535  1.3075
  147SAPE   C3516255   4.445   2.311  10.179  0.7010 -0.0770  0.5825
  147SAPE   H5X16256   4.552   2.283  10.176  0.3857 -1.5819 -3.4193
  147SAPE   H5Y16257   4.455   2.419  10.154  0.0855 -0.3641 -1.0829
  147SAPE   C3616258   4.382   2.231  10.067  0.4505  0.1117 -0.7083
  147SAPE   H6X16259   4.271   2.230  10.073  0.4007  2.0080 -0.9564
  147SAPE   H6Y16260   4.421   2.126  10.065  0.1708 -0.0566  1.3111
  147SAPE   C3716261   4.424   2.292   9.934 -0.1958 -0.4525 -0.3215
  147SAPE   H7X16262   4.535   2.300   9.931 -0.2144 -0.4210 -2.0794
  147SAPE   H7Y16263   4.382   2.394   9.937  0.3166 -0.2304 -0.5879
  147SAPE   C3816264   4.365   2.216   9.811 -0.7913 -0.1634 -0.4403
  147SAPE   H8X16265   4.257   2.197   9.828 -0.6123 -1.9848 -1.1075
  147SAPE   H8Y16266   4.424   2.122   9.808  2.0258  1.4846 -0.5631
  147SAPE   C3916267   4.373   2.300   9.678 -0.5131  0.0885 -0.4194
  147SAPE   H9X16268   4.475   2.342   9.665  0.1507 -1.3220  0.0528
  147SAPE   H9Y16269   4.292   2.375   9.684  0.0514  0.8385 -1.9194
  147SAPE  C31016270   4.329   2.208   9.561 -0.3632 -0.4548 -0.4700
  147SAPE  H10X16271   4.220   2.193   9.578 -0.0570 -0.9881  1.2634
  147SAPE  H10Y16272   4.387   2.116   9.584  1.3070  0.2838 -1.5394
  147SAPE  C31116273   4.369   2.276   9.426  0.9375  0.4438 -0.8114
  147SAPE  H11X16274   4.480   2.277   9.422  0.9793  2.1333 -0.2884
  147SAPE  H11Y16275   4.343   2.384   9.423 -1.1577  0.2313  2.8077
  147SAPE  C31216276   4.306   2.211   9.296  0.3814  0.6871  0.0615
  147SAPE  H12X16277   4.197   2.231   9.303  0.2946  0.2167  0.0522
  147SAPE  H12Y16278   4.352   2.110   9.293 -0.7941  0.1746 -1.4409
  147SAPE  C31316279   4.347   2.271   9.162  1.0801  0.8988  0.3619
  147SAPE  H13X16280   4.312   2.375   9.144 -3.0007 -0.7375 -2.6871
  147SAPE  H13Y16281   4.293   2.205   9.091  0.4389  1.3219  0.4459
  147SAPE  C31416282   4.492   2.258   9.124 -0.0751  0.0867  0.5912
  147SAPE  H14X16283   4.530   2.156   9.149  2.0797  1.1393  1.9185
  147SAPE  H14Y16284   4.560   2.332   9.171 -0.2713  0.4026  0.3822
  147SAPE  C31516285   4.508   2.285   8.979  0.7347  0.6288  0.3197
  147SAPE  H15X16286   4.440   2.237   8.906 -0.2149  0.8986  1.0120
  147SAPE  H15Y16287   4.607   2.244   8.948 -0.4514 -0.9230 -1.6900
  147SAPE  C31616288   4.494   2.437   8.948 -0.0958  0.5726  0.3315
  147SAPE  H16X16289   4.565   2.489   9.016 -0.6558  1.2933  0.3705
  147SAPE  H16Y16290   4.391   2.474   8.965  0.2858  1.7947  0.1021
  147SAPE  C31716291   4.525   2.477   8.805  1.0571  0.2912  0.0617
  147SAPE  H17X16292   4.500   2.585   8.795  1.7227  0.4458  0.0497
  147SAPE  H17Y16293   4.455   2.413   8.748 -1.4871  2.0857  0.9764
  147SAPE  C31816294   4.670   2.454   8.771  0.5979 -0.5827  0.0867
  147SAPE  H18X16295   4.735   2.505   8.845  0.8904 -0.0302 -0.5450
  147SAPE  H18Y16296   4.680   2.481   8.664 -0.9946  1.0085  0.2777
  147SAPE  H18Z16297   4.697   2.347   8.783 -0.2947 -0.9191 -0.7430
  148SAPE     N16298   5.697   5.849  10.884  0.4415  0.1556 -0.6194
  148SAPE   HN116299   5.603   5.822  10.919 -0.4601 -0.6762 -3.4322
  148SAPE   HN216300   5.756   5.791  10.947 -2.4835 -1.3740  0.9327
  148SAPE   HN316301   5.712   5.949  10.910 -1.4512  0.4770 -0.6025
  148SAPE   C1216302   5.706   5.824  10.737 -0.3456  0.5283 -0.3659
  148SAPE  H12A16303   5.668   5.721  10.718  1.6964 -0.9053  2.5266
  148SAPE  H12B16304   5.817   5.821  10.738 -0.3656 -0.4846  1.5634
  148SAPE   C1116305   5.644   5.934  10.648 -0.7993  0.4940 -0.1647
  148SAPE  H11A16306   5.693   5.924  10.549  0.0087  0.5678  0.2199
  148SAPE  H11B16307   5.673   6.028  10.699 -1.5122  0.2454  0.7161
  148SAPE     P16308   5.417   6.059  10.679  0.1162 -0.1720 -0.3140
  148SAPE   O1316309   5.280   6.032  10.645  0.4805  0.4498 -0.0592
  148SAPE   O1416310   5.444   6.080  10.821  0.2832  0.2635  0.4547
  148SAPE   O1216311   5.503   5.936  10.625  0.4950 -0.0820 -0.1801
  148SAPE   O1116312   5.479   6.186  10.596 -0.0423  0.4869 -0.0121
  148SAPE    C116313   5.535   6.181  10.468  0.9781  0.2520  0.3014
  148SAPE    HA16314   5.631   6.236  10.461  1.0542  0.0144 -0.7367
  148SAPE    HB16315   5.550   6.078  10.429 -3.3314 -0.5758  0.3223
  148SAPE    C216316   5.445   6.239  10.354  0.2231  0.3131 -0.6949
  148SAPE    HS16317   5.420   6.346  10.373 -0.7763  0.0324 -0.3580
  148SAPE   O2116318   5.323   6.165  10.346  0.3745  0.2849 -0.5831
  148SAPE   C2116319   5.215   6.223  10.397  0.7160 -0.3803  0.1314
  148SAPE   O2216320   5.205   6.331  10.451  0.1483 -0.4814  0.6783
  148SAPE   C2216321   5.094   6.125  10.377 -0.0995  0.4141  0.8615
  148SAPE   H2R16322   5.099   6.093  10.270  1.8012  2.7208  0.1705
  148SAPE   H2S16323   5.117   6.036  10.439  0.3083  0.0468  0.1963
  148SAPE    C316324   5.503   6.240  10.210 -0.2795  0.0740  0.2136
  148SAPE    HX16325   5.432   6.286  10.138  0.0651 -1.4540 -1.1664
  148SAPE    HY16326   5.520   6.136  10.175  1.5546  0.3825  0.0890
  148SAPE   O3116327   5.643   6.302  10.215 -0.1447  0.2787  0.1419
  148SAPE   C3116328   5.701   6.295  10.094 -0.2925 -0.0149  0.5384
  148SAPE   O3216329   5.639   6.260   9.996 -0.2064  0.5434 -0.9116
  148SAPE   C3216330   5.854   6.341  10.101  0.9777 -0.0559  0.2300
  148SAPE   H2X16331   5.897   6.266  10.170 -0.1724 -0.1016  0.9320
  148SAPE   H2Y16332   5.853   6.436  10.158 -0.3700 -1.0772  2.0131
  148SAPE   C2316333   4.962   6.189  10.425 -0.5616 -0.5078  0.2231
  148SAPE   H3R16334   4.980   6.236  10.524 -0.1101  1.2464 -0.6495
  148SAPE   H3S16335   4.896   6.102  10.447 -0.2275 -1.0168 -0.7122
  148SAPE   C2416336   4.897   6.289  10.327  0.2667 -0.0319  0.0888
  148SAPE   H4R16337   4.962   6.379  10.315 -0.4529  0.7695  1.8578
  148SAPE   H4S16338   4.800   6.325  10.365 -0.2390 -0.5346 -0.6898
  148SAPE   C2516339   4.867   6.231  10.190  0.4534  0.0186  0.3630
  148SAPE   H5R16340   4.782   6.162  10.183 -1.5515  2.3634  0.2058
  148SAPE   C2616341   4.933   6.258  10.079  0.1154  0.2505 -0.0816
  148SAPE   H6R16342   4.896   6.213   9.985 -1.2285  0.1188  0.4871
  148SAPE   C2716343   5.046   6.358  10.069 -0.1861  0.0947 -0.1450
  148SAPE   H7R16344   5.107   6.319   9.985 -1.3246 -2.2314  0.0399
  148SAPE   H7S16345   5.109   6.373  10.160 -2.5651  1.8647  1.3495
  148SAPE   C2816346   4.988   6.496  10.044 -0.9717  0.5946 -0.2125
  148SAPE   H8R16347   4.943   6.541  10.133  0.2394 -1.2070  1.3937
  148SAPE   C2916348   4.997   6.569   9.937  0.0798 -0.0742  0.5553
  148SAPE   H9R16349   4.935   6.658   9.917  0.7597  0.4774  0.8557
  148SAPE  C21016350   5.072   6.533   9.814 -0.3528 -0.2652  1.1846
  148SAPE  H10R16351   5.017   6.441   9.784 -1.3922  0.0748  2.0073
  148SAPE  H10S16352   5.172   6.499   9.849 -0.3860  0.2671  1.7952
  148SAPE  C21116353   5.096   6.646   9.715  0.1105 -0.1212 -0.0681
  148SAPE  H11R16354   5.125   6.746   9.751  1.6227  0.8482 -3.5410
  148SAPE  C21216355   5.079   6.639   9.584 -0.4028 -0.2809 -1.2374
  148SAPE  H12R16356   5.099   6.731   9.526 -0.1205  0.4487 -0.0232
  148SAPE  C21316357   5.043   6.516   9.512  0.0634 -0.1488  0.3310
  148SAPE  H13R16358   4.944   6.545   9.470  0.0584  0.3190  0.6575
  148SAPE  H13S16359   5.032   6.424   9.573 -1.2113  0.3608  0.9141
  148SAPE  C21416360   5.141   6.489   9.409 -0.1833 -0.0826 -0.0062
  148SAPE  H14R16361   5.210   6.405   9.426  0.8432  0.8431  0.5730
  148SAPE  C21516362   5.159   6.551   9.292 -0.3714  0.3268 -0.1870
  148SAPE  H15R16363   5.225   6.504   9.218  0.1467 -2.1871  1.7340
  148SAPE  C21616364   5.073   6.665   9.239  0.1821 -0.1637  0.3095
  148SAPE  H16R16365   5.014   6.717   9.317  0.4761 -0.3434  0.6522
  148SAPE  H16S16366   5.001   6.628   9.163 -0.6821  0.3363  0.8679
  148SAPE  C21716367   5.161   6.774   9.166  0.2355  0.0217  0.0248
  148SAPE  H17R16368   5.091   6.855   9.137  0.4752  0.2494  0.0718
  148SAPE  H17S16369   5.212   6.728   9.078  0.1629  0.5053 -0.2774
  148SAPE  C21816370   5.263   6.850   9.256  0.1008  0.4475  1.0873
  148SAPE  H18R16371   5.327   6.910   9.189 -0.2637 -1.3380 -0.9556
  148SAPE  H18S16372   5.322   6.767   9.302 -0.8788 -0.5554  0.5859
  148SAPE  C21916373   5.198   6.932   9.365  0.3103  0.0629 -0.7863
  148SAPE  H19R16374   5.111   6.877   9.406  1.9766 -2.4388 -0.3727
  148SAPE  H19S16375   5.164   7.024   9.312 -3.3293  0.4994  1.9236
  148SAPE  C22016376   5.305   6.976   9.472  0.2539  0.2705 -0.8111
  148SAPE  H20R16377   5.251   7.037   9.547 -0.8552  0.7668 -1.9896
  148SAPE  H20S16378   5.397   7.030   9.439  0.7954  0.1676  0.4471
  148SAPE  H20T16379   5.335   6.882   9.524  1.1564  1.5278  1.0512
  148SAPE   C3316380   5.919   6.346   9.961 -0.3603 -0.1085  0.7317
  148SAPE   H3X16381   5.861   6.408   9.889  2.5713  4.4960  1.8538
  148SAPE   H3Y16382   5.934   6.244   9.920 -2.1005  0.1229 -0.6229
  148SAPE   C3416383   6.040   6.432   9.957  0.3147 -0.6443 -0.1075
  148SAPE   H4X16384   6.125   6.362   9.976 -1.1167 -1.8111  2.5237
  148SAPE   H4Y16385   6.040   6.511  10.035 -3.1487 -0.4561 -0.1326
  148SAPE   C3516386   6.062   6.504   9.817 -1.0387 -0.0861 -0.5906
  148SAPE   H5X16387   5.981   6.579   9.801 -1.0468  0.0320 -0.0135
  148SAPE   H5Y16388   6.038   6.430   9.738  2.2248 -0.5122 -1.3282
  148SAPE   C3616389   6.200   6.558   9.791 -0.0011  0.0995 -0.4736
  148SAPE   H6X16390   6.274   6.484   9.828  0.0158 -0.2545 -1.1941
  148SAPE   H6Y16391   6.228   6.651   9.846  0.0440  1.6876 -3.0436
  148SAPE   C3716392   6.220   6.583   9.638 -0.0258  0.4647  0.5768
  148SAPE   H7X16393   6.199   6.492   9.579  1.4972 -0.3391  1.2275
  148SAPE   H7Y16394   6.327   6.604   9.615  0.2211 -1.6816 -0.4537
  148SAPE   C3816395   6.143   6.697   9.580  0.3167 -0.0647  0.2868
  148SAPE   H8X16396   6.154   6.795   9.631  1.7923 -0.4013  0.6472
  148SAPE   H8Y16397   6.033   6.679   9.578  0.1876  0.6783 -1.7229
  148SAPE   C3916398   6.197   6.718   9.441 -0.1395  0.0718  0.6548
  148SAPE   H9X16399   6.188   6.632   9.371  2.5768  0.3464 -0.1077
  148SAPE   H9Y16400   6.301   6.756   9.450 -0.1283 -0.2076  1.9334
  148SAPE  C31016401   6.114   6.834   9.374  0.4818  0.4132 -0.6507
  148SAPE  H10X16402   6.128   6.926   9.435  0.5032  0.5626 -0.8820
  148SAPE  H10Y16403   6.007   6.808   9.385 -0.0157  1.5270 -2.4320
  148SAPE  C31116404   6.136   6.850   9.224 -0.4696 -0.0030  0.4889
  148SAPE  H11X16405   6.094   6.760   9.174 -0.9603  0.3682  0.2240
  148SAPE  H11Y16406   6.245   6.846   9.204 -0.4777  1.9042 -0.2015
  148SAPE  C31216407   6.080   6.983   9.168 -0.4749  0.0748  0.5086
  148SAPE  H12X16408   6.151   7.068   9.176  1.2874 -1.2927  0.1024
  148SAPE  H12Y16409   5.991   7.013   9.227 -0.0909  0.2466  1.0116
  148SAPE  C31316410   6.038   6.976   9.012 -0.6071 -0.5155 -0.0016
  148SAPE  H13X16411   5.971   6.891   8.988 -1.7100  0.6905 -1.4236
  148SAPE  H13Y16412   6.135   6.977   8.958 -0.0642  2.9967  0.7792
  148SAPE  C31416413   5.962   7.108   8.971 -0.1741 -0.2754  0.0817
  148SAPE  H14X16414   5.957   7.104   8.860 -0.7881  1.0970  0.0366
  148SAPE  H14Y16415   6.049   7.177   8.981 -0.2039  0.3162 -2.8367
  148SAPE  C31516416   5.835   7.160   9.029 -0.2264 -0.2122  0.6331
  148SAPE  H15X16417   5.845   7.167   9.139 -1.8737  0.8123  0.7516
  148SAPE  H15Y16418   5.748   7.093   9.015 -0.5938 -0.1844  2.5533
  148SAPE  C31616419   5.785   7.287   8.957 -0.1786 -0.2540 -0.6802
  148SAPE  H16X16420   5.767   7.272   8.848  1.4606 -0.7727 -0.9027
  148SAPE  H16Y16421   5.872   7.355   8.946  0.9039 -1.7336 -1.6848
  148SAPE  C31716422   5.657   7.356   9.007 -0.5432  0.0998 -0.1566
  148SAPE  H17X16423   5.579   7.279   9.025  0.7688 -0.5759  3.5827
  148SAPE  H17Y16424   5.630   7.426   8.925  0.8572 -1.0663 -1.6924
  148SAPE  C31816425   5.664   7.419   9.146 -0.7140  0.3024 -0.1626
  148SAPE  H18X16426   5.734   7.505   9.148  0.3980 -0.5844  0.5220
  148SAPE  H18Y16427   5.698   7.332   9.206 -5.0808 -1.2039  0.5154
  148SAPE  H18Z16428   5.562   7.450   9.178 -1.0939 -1.5980  0.6016
  149SAPE     N16429   1.679   1.974  11.385  0.3290  0.2879  0.0318
  149SAPE   HN116430   1.674   2.043  11.462  0.8099  1.8320 -1.2601
  149SAPE   HN216431   1.767   1.919  11.388  0.2715  0.0236 -1.6886
  149SAPE   HN316432   1.676   2.029  11.296 -1.3750  1.0754  0.5333
  149SAPE   C1216433   1.560   1.878  11.399 -0.1523  0.0598  0.0776
  149SAPE  H12A16434   1.477   1.924  11.457  0.0357 -0.6547  0.9417
  149SAPE  H12B16435   1.597   1.794  11.462 -2.5074 -1.6148 -0.6218
  149SAPE   C1116436   1.511   1.824  11.263  0.3551 -0.5792 -0.3184
  149SAPE  H11A16437   1.419   1.764  11.278 -0.9277  1.3410 -0.0944
  149SAPE  H11B16438   1.586   1.759  11.214  0.5087 -0.6243 -0.0237
  149SAPE     P16439   1.339   1.959  11.098 -0.4606 -0.1044 -0.3693
  149SAPE   O1316440   1.250   1.861  11.155 -0.6462 -0.2295 -0.0004
  149SAPE   O1416441   1.316   2.104  11.119 -0.3762 -0.0301  0.3769
  149SAPE   O1216442   1.484   1.929  11.167  0.8651 -0.6408 -0.0642
  149SAPE   O1116443   1.367   1.927  10.940 -0.3101 -0.6994  0.2970
  149SAPE    C116444   1.500   1.935  10.894 -0.6071  0.5261  0.4656
  149SAPE    HA16445   1.541   2.031  10.933 -0.0386  0.7767 -0.7196
  149SAPE    HB16446   1.560   1.845  10.921  0.0945  1.4288  2.1024
  149SAPE    C216447   1.507   1.943  10.740  1.0109  0.8462  0.5007
  149SAPE    HS16448   1.614   1.959  10.716  1.0498 -0.4767 -0.2387
  149SAPE   O2116449   1.430   2.056  10.701 -0.0330  0.6262  0.4044
  149SAPE   C2116450   1.487   2.147  10.633  0.3223 -0.2874  0.6085
  149SAPE   O2216451   1.608   2.172  10.627  0.0316 -0.0196  0.2523
  149SAPE   C2216452   1.377   2.235  10.570  0.2977 -0.8975  0.1172
  149SAPE   H2R16453   1.275   2.191  10.572 -0.2171  0.2827  1.0883
  149SAPE   H2S16454   1.372   2.327  10.632  0.4124  0.7063 -2.1535
  149SAPE    C316455   1.453   1.810  10.665  0.0077 -0.3159 -0.4463
  149SAPE    HX16456   1.347   1.806  10.698 -0.4488  2.0915 -1.4042
  149SAPE    HY16457   1.504   1.723  10.709  1.1593  1.3355  1.6688
  149SAPE   O3116458   1.454   1.834  10.522  0.2073  0.6820  0.4962
  149SAPE   C3116459   1.483   1.732  10.443  0.4221 -0.0717  0.0834
  149SAPE   O3216460   1.508   1.614  10.475  0.0262 -0.2360 -0.0389
  149SAPE   C3216461   1.487   1.775  10.293 -0.2273  0.7868  1.3276
  149SAPE   H2X16462   1.591   1.800  10.262 -1.1932  0.3539 -2.9221
  149SAPE   H2Y16463   1.434   1.872  10.290  0.4901  1.2083  1.8461
  149SAPE   C2316464   1.413   2.299  10.427 -0.1717 -0.0565 -0.1633
  149SAPE   H3R16465   1.506   2.359  10.440 -1.1928  1.8194 -1.0617
  149SAPE   H3S16466   1.334   2.370  10.393 -0.3842  0.4895  1.4200
  149SAPE   C2416467   1.431   2.194  10.323  0.3802  1.0352  0.2163
  149SAPE   H4R16468   1.510   2.123  10.354  1.4800  2.9937  2.1632
  149SAPE   H4S16469   1.463   2.253  10.234 -0.1676  0.8009 -0.1421
  149SAPE   C2516470   1.304   2.123  10.295 -0.2700 -0.6083 -0.3958
  149SAPE   H5R16471   1.245   2.085  10.380  0.2131  0.4451  0.4427
  149SAPE   C2616472   1.252   2.097  10.178  0.4369 -0.4703  0.8132
  149SAPE   H6R16473   1.158   2.040  10.168  1.3745 -2.3000  1.7139
  149SAPE   C2716474   1.319   2.123  10.041  0.1752 -0.0440  0.1932
  149SAPE   H7R16475   1.428   2.114  10.058  0.0661 -1.7697  0.0863
  149SAPE   H7S16476   1.295   2.228  10.013  0.7789  0.2299  0.6951
  149SAPE   C2816477   1.268   2.027   9.938 -0.5639 -0.1472 -0.0250
  149SAPE   H8R16478   1.169   1.983   9.953 -0.4110  0.0197  1.5685
  149SAPE   C2916479   1.329   1.994   9.819 -0.0848 -0.1827 -0.7399
  149SAPE   H9R16480   1.276   1.935   9.743  0.3000 -1.3846 -0.1159
  149SAPE  C21016481   1.461   2.054   9.768  0.0897 -0.5387 -0.3339
  149SAPE  H10R16482   1.517   2.106   9.849  0.6913 -0.1546 -0.9825
  149SAPE  H10S16483   1.436   2.133   9.695  1.5269  0.7948  0.5531
  149SAPE  C21116484   1.552   1.946   9.719  0.0445 -0.2305  0.3702
  149SAPE  H11R16485   1.590   1.883   9.801  1.7518 -3.5232 -2.6475
  149SAPE  C21216486   1.571   1.911   9.590 -0.7269 -0.1493 -0.4886
  149SAPE  H12R16487   1.619   1.812   9.577  0.2630  0.0377  1.3237
  149SAPE  C21316488   1.512   1.975   9.468  0.3666  0.5640  0.5070
  149SAPE  H13R16489   1.591   1.964   9.391  0.4023  0.4545  0.5592
  149SAPE  H13S16490   1.476   2.078   9.488 -1.6068 -0.0935  0.5426
  149SAPE  C21416491   1.381   1.904   9.439 -0.4705  0.0559  1.0063
  149SAPE  H14R16492   1.325   1.863   9.525  0.2129 -2.9725  0.1264
  149SAPE  C21516493   1.332   1.873   9.318  0.6060  0.4761  0.3837
  149SAPE  H15R16494   1.227   1.841   9.313  0.2279  1.3509  1.9501
  149SAPE  C21616495   1.391   1.907   9.186 -0.3939 -0.2729 -0.4251
  149SAPE  H16R16496   1.485   1.852   9.166 -1.2499 -1.9884  0.0790
  149SAPE  H16S16497   1.414   2.015   9.183 -0.0093 -0.3775 -1.4956
  149SAPE  C21716498   1.309   1.876   9.060 -0.0826  0.5819  0.4153
  149SAPE  H17R16499   1.352   1.928   8.972 -3.3360 -0.5665 -2.0381
  149SAPE  H17S16500   1.203   1.904   9.078 -0.7045 -2.2399  1.6136
  149SAPE  C21816501   1.316   1.723   9.030  0.4221  1.1924 -0.2241
  149SAPE  H18R16502   1.250   1.670   9.102  0.6109 -1.1532 -1.6653
  149SAPE  H18S16503   1.416   1.683   9.055 -0.2237 -0.0596  0.4960
  149SAPE  C21916504   1.282   1.695   8.882 -0.2656 -0.4126 -0.6201
  149SAPE  H19R16505   1.343   1.764   8.820 -1.8932  2.6374  0.9255
  149SAPE  H19S16506   1.180   1.739   8.870  0.4308  1.9791  1.5124
  149SAPE  C22016507   1.294   1.552   8.830  0.1926 -0.2199 -0.0310
  149SAPE  H20R16508   1.401   1.539   8.858  0.9615  4.5256  0.0864
  149SAPE  H20S16509   1.287   1.538   8.720 -1.5867 -1.0567  0.1530
  149SAPE  H20T16510   1.219   1.487   8.880 -1.5146  2.0196  0.4679
  149SAPE   C3316511   1.444   1.663  10.205 -0.6620 -0.3090  0.5655
  149SAPE   H3X16512   1.360   1.595  10.231 -0.1292 -1.0639  0.3467
  149SAPE   H3Y16513   1.529   1.592  10.200 -1.2351 -0.9355 -0.6894
  149SAPE   C3416514   1.417   1.719  10.058  0.4041  0.3630 -0.0850
  149SAPE   H4X16515   1.510   1.772  10.028  1.4772 -2.1253 -1.3548
  149SAPE   H4Y16516   1.328   1.785  10.051 -2.5757 -3.2285  1.2194
  149SAPE   C3516517   1.381   1.602   9.964  0.3287 -0.3137  0.3370
  149SAPE   H5X16518   1.273   1.582   9.982 -0.1760  2.8260  1.4788
  149SAPE   H5Y16519   1.430   1.509  10.001  0.7576  0.3752  1.5692
  149SAPE   C3616520   1.442   1.602   9.821  0.7852 -0.5679 -0.7349
  149SAPE   H6X16521   1.553   1.603   9.828  0.6682  0.1958  1.9495
  149SAPE   H6Y16522   1.399   1.686   9.762  1.5438  1.0944  0.9416
  149SAPE   C3716523   1.408   1.472   9.743 -0.1682 -0.1158  0.3574
  149SAPE   H7X16524   1.297   1.466   9.747 -0.2148  1.3268  3.4128
  149SAPE   H7Y16525   1.454   1.388   9.800 -2.3484 -1.0062  0.8885
  149SAPE   C3816526   1.460   1.479   9.596 -1.0163  0.0239 -0.1656
  149SAPE   H8X16527   1.570   1.470   9.581 -0.5525  0.8859  2.2500
  149SAPE   H8Y16528   1.441   1.584   9.565  1.6650  0.5173 -0.4245
  149SAPE   C3916529   1.391   1.388   9.499 -0.4211  0.6833  0.0092
  149SAPE   H9X16530   1.284   1.417   9.485 -0.7077 -0.4416 -0.1951
  149SAPE   H9Y16531   1.386   1.283   9.534  0.5850  0.8067  0.5786
  149SAPE  C31016532   1.468   1.387   9.361  0.5832 -0.2445 -0.7896
  149SAPE  H10X16533   1.571   1.350   9.382  0.8140  1.1700  0.7679
  149SAPE  H10Y16534   1.474   1.489   9.318  1.8380 -0.8702 -2.2015
  149SAPE  C31116535   1.404   1.294   9.257  0.0227 -0.1082 -0.3446
  149SAPE  H11X16536   1.316   1.347   9.216 -0.9026 -0.6541  0.8742
  149SAPE  H11Y16537   1.372   1.201   9.309 -2.8531 -0.7917 -3.0793
  149SAPE  C31216538   1.502   1.269   9.137  0.4725  0.3627  0.0890
  149SAPE  H12X16539   1.573   1.187   9.161  0.2975  0.0965 -0.2904
  149SAPE  H12Y16540   1.553   1.365   9.115  0.4357  0.3100 -0.2211
  149SAPE  C31316541   1.424   1.213   9.016  0.2746  0.5086  0.1899
  149SAPE  H13X16542   1.337   1.280   8.999  1.6716  1.8743 -1.9326
  149SAPE  H13Y16543   1.377   1.115   9.042  0.3120  0.6917  0.9624
  149SAPE  C31416544   1.512   1.203   8.890 -0.2796  0.3549  0.3190
  149SAPE  H14X16545   1.452   1.177   8.801  1.5527 -2.6738 -0.1925
  149SAPE  H14Y16546   1.572   1.110   8.902  2.1047  1.5669 -1.2326
  149SAPE  C31516547   1.614   1.314   8.860 -0.7074 -0.3969 -0.5611
  149SAPE  H15X16548   1.578   1.418   8.876  2.3649  0.5803  0.7243
  149SAPE  H15Y16549   1.638   1.308   8.752  1.8533 -1.2152 -0.0362
  149SAPE  C31616550   1.755   1.275   8.922 -0.2341 -0.5644 -0.0618
  149SAPE  H16X16551   1.779   1.170   8.898 -0.0960 -0.8796  1.3781
  149SAPE  H16Y16552   1.741   1.285   9.032 -1.4023 -0.1696 -0.2224
  149SAPE  C31716553   1.873   1.354   8.868 -0.5335 -0.0499  0.4826
  149SAPE  H17X16554   1.846   1.460   8.888  2.2037  0.5273  1.4784
  149SAPE  H17Y16555   1.884   1.320   8.763  0.3969 -1.9455  1.1445
  149SAPE  C31816556   2.007   1.319   8.939  0.4188  0.4479 -0.2603
  149SAPE  H18X16557   2.058   1.235   8.888 -0.7210 -1.1156  1.0422
  149SAPE  H18Y16558   1.991   1.305   9.048  1.0793  0.3526 -0.1741
  149SAPE  H18Z16559   2.074   1.407   8.930  0.1096  0.6689 -0.4313
  150SAPE     N16560   3.317   5.824  10.792 -0.4096  0.1154  0.9670
  150SAPE   HN116561   3.235   5.805  10.731  1.6562 -1.5536 -1.5231
  150SAPE   HN216562   3.304   5.919  10.831 -0.1259  0.4825  0.1865
  150SAPE   HN316563   3.402   5.820  10.732 -2.4775 -1.7930 -2.1554
  150SAPE   C1216564   3.327   5.709  10.896  0.2135 -0.8237 -0.3736
  150SAPE  H12A16565   3.226   5.708  10.942  0.0583 -0.8952 -0.7145
  150SAPE  H12B16566   3.403   5.743  10.969 -0.5626  1.1467 -0.4225
  150SAPE   C1116567   3.367   5.581  10.825  0.1174  0.5135 -0.0990
  150SAPE  H11A16568   3.459   5.595  10.764  1.0708 -1.2397  0.8743
  150SAPE  H11B16569   3.286   5.561  10.751 -0.3636 -0.8615  0.7644
  150SAPE     P16570   3.286   5.409  11.001 -0.2910 -0.4579 -0.4792
  150SAPE   O1316571   3.302   5.268  11.014 -0.5682  0.2216  0.7866
  150SAPE   O1416572   3.285   5.474  11.131 -0.7266 -0.9752  0.3148
  150SAPE   O1216573   3.400   5.468  10.906  0.2401  0.3357  0.5778
  150SAPE   O1116574   3.153   5.441  10.921 -0.6368 -0.1052  0.4031
  150SAPE    C116575   3.074   5.336  10.859 -0.1183 -0.6363 -0.2826
  150SAPE    HA16576   3.131   5.244  10.833  2.3977  0.5627  0.6839
  150SAPE    HB16577   3.007   5.298  10.940  2.3057 -0.5322  1.8997
  150SAPE    C216578   2.996   5.389  10.738  0.3565 -0.1710  0.4534
  150SAPE    HS16579   2.947   5.301  10.690 -2.5026  1.4038  0.2357
  150SAPE   O2116580   3.098   5.444  10.646 -0.0550  0.2707 -0.8545
  150SAPE   C2116581   3.181   5.359  10.595  0.5726 -0.2776 -0.3891
  150SAPE   O2216582   3.155   5.241  10.595 -0.1645 -0.0925 -0.1868
  150SAPE   C2216583   3.308   5.424  10.546  0.2278 -0.3691 -0.3063
  150SAPE   H2R16584   3.301   5.534  10.533 -0.8146 -0.6562 -2.9982
  150SAPE   H2S16585   3.381   5.399  10.625 -1.2059 -3.9307  0.0804
  150SAPE    C316586   2.883   5.491  10.759 -0.1805 -0.4681  0.0773
  150SAPE    HX16587   2.928   5.591  10.780 -0.4797 -0.5884  1.4217
  150SAPE    HY16588   2.820   5.464  10.847  1.1569 -1.6117  0.7231
  150SAPE   O3116589   2.801   5.493  10.635  0.2592  0.1538 -0.0048
  150SAPE   C3116590   2.817   5.590  10.551 -0.1361 -0.2286 -0.3086
  150SAPE   O3216591   2.912   5.668  10.553 -0.7938 -0.4582 -0.5187
  150SAPE   C3216592   2.692   5.600  10.466 -0.1754  0.5049 -0.2561
  150SAPE   H2X16593   2.596   5.600  10.523  0.3222  1.2497  0.6094
  150SAPE   H2Y16594   2.685   5.506  10.406 -0.6054  1.2035 -1.3244
  150SAPE   C2316595   3.354   5.372  10.413  0.2570 -0.3621  0.1618
  150SAPE   H3R16596   3.436   5.439  10.381  1.6122 -1.3974  1.3236
  150SAPE   H3S16597   3.289   5.374  10.323  0.5761  2.4647 -0.1052
  150SAPE   C2416598   3.411   5.227  10.417  0.0769 -0.4397  0.3764
  150SAPE   H4R16599   3.320   5.163  10.421 -0.3619  0.2120  1.1632
  150SAPE   H4S16600   3.472   5.221  10.509 -2.4112 -2.7326  1.9966
  150SAPE   C2516601   3.510   5.193  10.300  0.0443 -0.0375  0.5728
  150SAPE   H5R16602   3.608   5.243  10.297  0.2208 -0.4324 -0.5681
  150SAPE   C2616603   3.474   5.111  10.195 -0.3004 -0.3707 -0.7658
  150SAPE   H6R16604   3.550   5.085  10.119 -0.7042 -3.0109 -0.3748
  150SAPE   C2716605   3.334   5.057  10.188 -0.3737  0.2597  0.4309
  150SAPE   H7R16606   3.272   5.148  10.200  1.8347  1.8793  0.1324
  150SAPE   H7S16607   3.312   4.978  10.263 -1.2022 -0.3851 -0.4701
  150SAPE   C2816608   3.311   5.007  10.050 -0.0546 -0.1619 -0.2981
  150SAPE   H8R16609   3.311   4.900  10.027  0.6382 -0.1263 -0.4799
  150SAPE   C2916610   3.287   5.097   9.950 -0.0662  0.5042  0.2427
  150SAPE   H9R16611   3.275   5.047   9.853  1.0459  2.3389 -0.9058
  150SAPE  C21016612   3.288   5.246   9.953 -0.2390  0.4715 -0.5092
  150SAPE  H10R16613   3.289   5.299  10.051  1.1559  1.9494 -1.2677
  150SAPE  H10S16614   3.194   5.272   9.902  0.3721  0.2909 -1.7646
  150SAPE  C21116615   3.409   5.297   9.878  0.2637 -0.2774 -0.1423
  150SAPE  H11R16616   3.496   5.326   9.937 -0.5220 -0.3324  1.0804
  150SAPE  C21216617   3.401   5.344   9.756 -0.1121  0.0447 -0.5478
  150SAPE  H12R16618   3.499   5.375   9.715 -0.2376  0.5526 -0.4681
  150SAPE  C21316619   3.283   5.336   9.674  0.3531  0.0884  0.3533
  150SAPE  H13R16620   3.190   5.383   9.715  0.6066  3.5677 -2.5353
  150SAPE  H13S16621   3.253   5.230   9.659 -1.1292  0.4957  0.2860
  150SAPE  C21416622   3.312   5.398   9.537  0.2704  0.1298 -0.0268
  150SAPE  H14R16623   3.403   5.455   9.516 -0.6255  1.6382  0.0849
  150SAPE  C21516624   3.235   5.384   9.429 -0.3439 -0.2149  0.1745
  150SAPE  H15R16625   3.269   5.429   9.335 -1.9078  0.3836 -0.1362
  150SAPE  C21616626   3.110   5.307   9.409 -0.0270  0.3975 -0.3653
  150SAPE  H16R16627   3.042   5.374   9.352 -0.5867  0.5018  0.4094
  150SAPE  H16S16628   3.071   5.292   9.512 -1.7801  0.7661 -0.9310
  150SAPE  C21716629   3.135   5.172   9.340 -0.2468  0.3589 -0.1609
  150SAPE  H17R16630   3.035   5.136   9.308 -0.5770  1.6579 -0.6479
  150SAPE  H17S16631   3.184   5.101   9.411 -1.6435  0.8583  1.3680
  150SAPE  C21816632   3.221   5.175   9.218 -0.1558 -0.4026 -0.4798
  150SAPE  H18R16633   3.328   5.199   9.237 -0.9001  2.9827  0.0121
  150SAPE  H18S16634   3.176   5.243   9.142  0.4428 -1.1772 -1.5698
  150SAPE  C21916635   3.223   5.031   9.139 -0.1100  0.0619 -1.1054
  150SAPE  H19R16636   3.122   4.986   9.140 -0.5219  0.9533 -1.5594
  150SAPE  H19S16637   3.281   4.963   9.205 -3.0343 -1.4142  0.1023
  150SAPE  C22016638   3.285   5.026   9.000 -0.5142 -0.4605  0.2938
  150SAPE  H20R16639   3.394   5.039   9.014 -0.2820 -1.0586 -0.8401
  150SAPE  H20S16640   3.257   5.113   8.937  0.8875 -1.2844 -1.5346
  150SAPE  H20T16641   3.261   4.929   8.951  0.1617  0.5051 -2.0303
  150SAPE   C3316642   2.678   5.724  10.373  0.1425  0.3918  0.1413
  150SAPE   H3X16643   2.771   5.771  10.335 -0.0491  0.3730 -0.3646
  150SAPE   H3Y16644   2.608   5.792  10.426 -0.2878 -0.4440  0.6838
  150SAPE   C3416645   2.593   5.672  10.259  0.2572 -0.2007  0.0758
  150SAPE   H4X16646   2.502   5.616  10.288  0.0404  0.0033 -0.2128
  150SAPE   H4Y16647   2.655   5.602  10.198 -2.0855  0.2284 -3.0132
  150SAPE   C3516648   2.556   5.779  10.156  0.7355 -0.2786 -0.3398
  150SAPE   H5X16649   2.655   5.824  10.134  0.8732 -0.6354 -0.4543
  150SAPE   H5Y16650   2.484   5.854  10.196  0.8111 -0.7134  0.6443
  150SAPE   C3616651   2.493   5.734  10.021  0.0499 -0.0913  0.2839
  150SAPE   H6X16652   2.391   5.689  10.027  0.4539 -0.9142  1.1057
  150SAPE   H6Y16653   2.570   5.667   9.978  0.1710  0.4146 -0.3003
  150SAPE   C3716654   2.470   5.850   9.917  0.0105  0.0042  0.4909
  150SAPE   H7X16655   2.568   5.844   9.865  0.1942 -1.1563  0.9361
  150SAPE   H7Y16656   2.440   5.940   9.975 -1.3681 -0.4763  0.5595
  150SAPE   C3816657   2.362   5.801   9.812  0.0892 -0.1611 -0.4666
  150SAPE   H8X16658   2.274   5.763   9.869  1.8926 -0.4990  2.2599
  150SAPE   H8Y16659   2.408   5.718   9.755  0.3806  0.1325 -0.6601
  150SAPE   C3916660   2.334   5.920   9.714  0.1399  0.6894 -0.5334
  150SAPE   H9X16661   2.431   5.937   9.662  0.1337 -0.1890 -0.8466
  150SAPE   H9Y16662   2.303   6.010   9.771 -0.3258  0.1567  0.0602
  150SAPE  C31016663   2.239   5.881   9.601  0.3766  0.6258 -0.4009
  150SAPE  H10X16664   2.134   5.867   9.634  0.7922 -0.6460  0.4629
  150SAPE  H10Y16665   2.270   5.787   9.551  0.9272  0.4833  0.1865
  150SAPE  C31116666   2.227   5.987   9.487 -0.2112 -1.0981  0.0335
  150SAPE  H11X16667   2.325   6.014   9.444 -0.2868 -1.4420 -0.3624
  150SAPE  H11Y16668   2.182   6.085   9.513  3.7941  1.5619 -2.0020
  150SAPE  C31216669   2.144   5.939   9.366  0.6066  0.3684  0.6263
  150SAPE  H12X16670   2.141   6.019   9.290 -1.9527 -1.2135 -1.0953
  150SAPE  H12Y16671   2.037   5.920   9.389  1.3208 -3.2915  1.6219
  150SAPE  C31316672   2.212   5.817   9.293 -0.5528 -0.0517  0.5922
  150SAPE  H13X16673   2.228   5.737   9.368 -0.1683  0.6658  1.2819
  150SAPE  H13Y16674   2.308   5.846   9.247 -0.3313 -0.7446  0.6136
  150SAPE  C31416675   2.131   5.766   9.173 -0.4089 -0.2132  0.3922
  150SAPE  H14X16676   2.163   5.814   9.079  1.6485  0.9736  1.6163
  150SAPE  H14Y16677   2.023   5.783   9.190 -0.7424 -1.2768 -0.5669
  150SAPE  C31516678   2.144   5.613   9.157 -0.6282  0.5639  0.1940
  150SAPE  H15X16679   2.101   5.560   9.244 -0.3854  0.7402  0.4250
  150SAPE  H15Y16680   2.254   5.598   9.155 -0.4830  1.5955 -0.2164
  150SAPE  C31616681   2.082   5.550   9.032 -0.1735 -0.4513 -0.5883
  150SAPE  H16X16682   2.119   5.604   8.941 -1.8042  1.4348 -0.2012
  150SAPE  H16Y16683   1.972   5.565   9.028 -0.5521 -1.6381  2.7067
  150SAPE  C31716684   2.110   5.404   9.006 -0.2155  0.7089  0.7396
  150SAPE  H17X16685   2.044   5.355   8.931  1.9659 -1.2281 -0.0369
  150SAPE  H17Y16686   2.093   5.358   9.106 -0.3430 -1.5042 -0.2259
  150SAPE  C31816687   2.256   5.361   8.966 -0.3613  0.5260 -0.1834
  150SAPE  H18X16688   2.303   5.438   8.901 -0.9211  1.4578  0.4744
  150SAPE  H18Y16689   2.254   5.272   8.899 -1.8675 -0.6922  1.3843
  150SAPE  H18Z16690   2.315   5.338   9.057  0.3984  0.6854 -0.6336
  151SAPE     N16691   6.435   4.014  10.749  0.7091 -0.2136  0.3503
  151SAPE   HN116692   6.523   3.983  10.796 -0.3188 -1.0509  1.8095
  151SAPE   HN216693   6.358   4.029  10.817 -0.4216  1.7669 -1.2477
  151SAPE   HN316694   6.412   3.937  10.683  2.6015 -0.0182 -0.5846
  151SAPE   C1216695   6.472   4.143  10.677  0.1667 -0.5169  0.5447
  151SAPE  H12A16696   6.541   4.200  10.742 -2.0525  1.5762  1.2138
  151SAPE  H12B16697   6.381   4.206  10.667  0.5019 -0.0355  0.5221
  151SAPE   C1116698   6.535   4.112  10.548 -1.2240 -0.5134  0.0128
  151SAPE  H11A16699   6.559   4.212  10.505  2.1016 -1.2605 -0.1932
  151SAPE  H11B16700   6.463   4.061  10.481 -2.4875  0.9911  0.1715
  151SAPE     P16701   6.785   4.070  10.501 -0.0434  0.4367  0.1168
  151SAPE   O1316702   6.837   4.205  10.527  0.7555 -0.0304  0.0173
  151SAPE   O1416703   6.884   3.960  10.532  0.1532 -0.7898 -0.0029
  151SAPE   O1216704   6.654   4.040  10.572 -0.1184 -0.5738 -0.7845
  151SAPE   O1116705   6.749   4.067  10.344  0.0770  0.0179  0.4207
  151SAPE    C116706   6.725   3.942  10.273  0.7191  0.0319 -0.9782
  151SAPE    HA16707   6.680   3.864  10.338  1.3688  1.3467  1.1900
  151SAPE    HB16708   6.662   3.984  10.193  2.0557  0.4095 -1.8658
  151SAPE    C216709   6.862   3.884  10.224 -0.5698 -0.4372 -0.1356
  151SAPE    HS16710   6.910   3.837  10.312 -0.0097 -1.1958 -0.8298
  151SAPE   O2116711   6.951   3.982  10.171 -0.4205 -0.0310 -0.0498
  151SAPE   C2116712   7.076   3.957  10.205  0.6590 -0.6822  0.1835
  151SAPE   O2216713   7.119   3.859  10.258 -0.2917 -0.5580  0.2746
  151SAPE   C2216714   7.169   4.070  10.162  0.5181 -0.2209 -0.4658
  151SAPE   H2R16715   7.115   4.167  10.165 -0.1323 -0.6044  0.5038
  151SAPE   H2S16716   7.248   4.077  10.240  0.0013 -1.7201  0.2394
  151SAPE    C316717   6.842   3.779  10.115 -0.0615  0.0961 -0.0328
  151SAPE    HX16718   6.773   3.821  10.038  0.1820  1.2497  0.3563
  151SAPE    HY16719   6.785   3.702  10.172 -1.4596  1.0744 -0.0428
  151SAPE   O3116720   6.962   3.722  10.071 -0.1832  0.1599 -0.2982
  151SAPE   C3116721   6.946   3.634   9.976 -0.1383  0.5445  0.4174
  151SAPE   O3216722   6.837   3.593   9.941  0.1125 -0.2196  0.3625
  151SAPE   C3216723   7.072   3.569   9.917 -0.2564  0.0317  0.2523
  151SAPE   H2X16724   7.165   3.608   9.965 -0.1408 -1.8718  1.7065
  151SAPE   H2Y16725   7.079   3.597   9.810 -2.7970 -1.3435 -0.3419
  151SAPE   C2316726   7.231   4.061  10.020  0.0996  0.0849  0.2919
  151SAPE   H3R16727   7.288   3.965  10.023  0.9644  0.5744 -0.1844
  151SAPE   H3S16728   7.302   4.146  10.014 -0.6577  0.7874  1.1939
  151SAPE   C2416729   7.120   4.094   9.916 -0.4697 -0.2103  0.7930
  151SAPE   H4R16730   7.076   4.192   9.945  1.4590  1.0857 -0.4014
  151SAPE   H4S16731   7.041   4.016   9.923  0.1988 -0.9560  0.2164
  151SAPE   C2516732   7.173   4.107   9.777 -0.3123 -0.2225  0.0979
  151SAPE   H5R16733   7.225   4.201   9.751  1.7290 -1.9328 -2.7072
  151SAPE   C2616734   7.161   4.017   9.676 -0.3041  1.5846 -0.3704
  151SAPE   H6R16735   7.196   4.030   9.572 -0.2625  1.0126 -0.4310
  151SAPE   C2716736   7.088   3.882   9.691  0.2799 -0.3467 -0.2336
  151SAPE   H7R16737   7.098   3.839   9.793  1.4530  1.9337  0.6899
  151SAPE   H7S16738   7.138   3.812   9.622  0.5694 -2.0755  1.6350
  151SAPE   C2816739   6.945   3.903   9.654 -0.3486 -0.4836  0.2446
  151SAPE   H8R16740   6.889   3.960   9.730 -0.2337 -0.7963  0.5703
  151SAPE   C2916741   6.876   3.877   9.541 -0.7864 -0.3523 -0.9950
  151SAPE   H9R16742   6.767   3.885   9.541 -1.1210 -3.2976  0.9587
  151SAPE  C21016743   6.940   3.816   9.414 -0.0425 -0.8652 -0.1955
  151SAPE  H10R16744   7.026   3.883   9.392 -2.3640  2.3275 -0.2760
  151SAPE  H10S16745   6.868   3.830   9.330  0.4527 -1.0934 -0.6650
  151SAPE  C21116746   6.995   3.676   9.418  0.3156 -0.2735  0.0188
  151SAPE  H11R16747   7.020   3.640   9.519 -0.5147 -1.9859 -0.3407
  151SAPE  C21216748   7.005   3.589   9.312  0.7621  0.1332  0.0780
  151SAPE  H12R16749   7.054   3.491   9.320  2.3830  0.8497 -0.6056
  151SAPE  C21316750   6.955   3.618   9.174 -0.0655 -0.1123 -0.1561
  151SAPE  H13R16751   6.844   3.630   9.180 -0.1322 -0.8563  0.1375
  151SAPE  H13S16752   6.971   3.520   9.125 -0.5919 -0.1260 -0.3084
  151SAPE  C21416753   7.018   3.730   9.093  0.8480  0.0004 -0.8481
  151SAPE  H14R16754   7.115   3.764   9.132 -0.0513  0.2080  1.3889
  151SAPE  C21516755   6.964   3.797   8.987 -0.1618 -0.0865 -0.2295
  151SAPE  H15R16756   7.027   3.874   8.940 -0.1410 -0.4442 -0.8041
  151SAPE  C21616757   6.824   3.766   8.922 -0.1429 -0.8892  0.3612
  151SAPE  H16R16758   6.792   3.662   8.946 -1.5492 -0.6867 -0.5291
  151SAPE  H16S16759   6.812   3.773   8.812 -2.2316 -0.1893  0.5852
  151SAPE  C21716760   6.712   3.861   8.988 -0.2324 -0.2134  0.2122
  151SAPE  H17R16761   6.720   3.963   8.944  1.5538 -0.0017  0.9101
  151SAPE  H17S16762   6.728   3.866   9.098 -0.5308  0.3507  0.2346
  151SAPE  C21816763   6.564   3.822   8.969  0.0236 -0.6767  0.6509
  151SAPE  H18R16764   6.544   3.726   9.023  0.7649 -1.6205 -0.7022
  151SAPE  H18S16765   6.535   3.821   8.862 -2.4482  1.2384  1.2194
  151SAPE  C21916766   6.465   3.931   9.034  0.4035 -0.2860 -0.5347
  151SAPE  H19R16767   6.522   4.026   9.039  1.9787 -1.2445  0.5567
  151SAPE  H19S16768   6.455   3.904   9.142  2.2131 -2.8465 -0.9224
  151SAPE  C22016769   6.321   3.929   8.975 -0.1451  0.0983  0.3770
  151SAPE  H20R16770   6.316   3.959   8.868  0.4001 -0.0092  0.3194
  151SAPE  H20S16771   6.249   3.988   9.036 -1.2454 -2.1502  1.3651
  151SAPE  H20T16772   6.287   3.824   8.976  1.4827 -0.4600  0.5173
  151SAPE   C3316773   7.065   3.417   9.927  0.3565 -0.0500 -0.4727
  151SAPE   H3X16774   6.969   3.373   9.893  0.2202  0.4504 -0.7549
  151SAPE   H3Y16775   7.065   3.389  10.035  1.0915  1.8145  0.0560
  151SAPE   C3416776   7.187   3.344   9.861 -0.7335  0.0422  0.4045
  151SAPE   H4X16777   7.180   3.239   9.896 -1.3492 -0.6149 -1.5655
  151SAPE   H4Y16778   7.270   3.400   9.910  1.3334 -1.6724 -0.9955
  151SAPE   C3516779   7.192   3.361   9.710 -0.4847  0.2509 -0.3651
  151SAPE   H5X16780   7.287   3.312   9.680 -0.6076  1.1875 -2.4674
  151SAPE   H5Y16781   7.206   3.465   9.674  1.6231 -0.4840 -1.8744
  151SAPE   C3616782   7.083   3.289   9.638  0.3656 -0.7373  0.1404
  151SAPE   H6X16783   6.987   3.346   9.642  1.2262  0.7168  1.0287
  151SAPE   H6Y16784   7.060   3.194   9.691 -2.5083  0.7325  1.8419
  151SAPE   C3716785   7.110   3.251   9.490 -0.7221 -0.1286  0.7392
  151SAPE   H7X16786   7.201   3.186   9.485  0.5951  1.7288 -2.2451
  151SAPE   H7Y16787   7.140   3.341   9.433 -1.7320  0.0620  0.4899
  151SAPE   C3816788   7.004   3.193   9.403  0.5332  0.9600  0.4337
  151SAPE   H8X16789   6.913   3.257   9.405 -1.2325 -1.2943 -1.7800
  151SAPE   H8Y16790   6.979   3.093   9.444 -0.4217  1.8692  2.1852
  151SAPE   C3916791   7.044   3.170   9.259 -0.6838  0.3006  0.4414
  151SAPE   H9X16792   7.128   3.099   9.249  0.9114  2.2453 -0.5953
  151SAPE   H9Y16793   7.079   3.266   9.215 -1.6380  0.3761 -0.1802
  151SAPE  C31016794   6.928   3.123   9.170  0.1060 -0.6521 -0.0267
  151SAPE  H10X16795   6.857   3.207   9.151  0.8662  0.0197  0.0593
  151SAPE  H10Y16796   6.871   3.044   9.223  1.0373 -2.1418 -1.1610
  151SAPE  C31116797   6.972   3.066   9.038  0.0520 -0.7378  0.3743
  151SAPE  H11X16798   7.047   2.986   9.060 -0.9232 -1.6276  0.5371
  151SAPE  H11Y16799   7.030   3.128   8.966 -2.2037 -0.5902 -1.4112
  151SAPE  C31216800   6.859   3.019   8.945 -0.1083 -0.2293  0.1838
  151SAPE  H12X16801   6.810   2.922   8.965 -0.4504  0.2990  2.0403
  151SAPE  H12Y16802   6.906   2.995   8.847  0.1653  1.7120 -0.2113
  151SAPE  C31316803   6.743   3.123   8.917 -0.0205 -0.3048  0.4753
  151SAPE  H13X16804   6.788   3.221   8.888  0.2211 -0.7711 -0.7438
  151SAPE  H13Y16805   6.677   3.138   9.005 -1.2177 -0.8231 -0.3197
  151SAPE  C31416806   6.649   3.085   8.803 -0.6151 -0.4268  0.7247
  151SAPE  H14X16807   6.606   3.183   8.775 -1.6690 -1.0780 -0.0053
  151SAPE  H14Y16808   6.573   3.011   8.835  0.8149 -2.3362 -0.0873
  151SAPE  C31516809   6.719   3.035   8.672 -0.6362  0.1440 -0.7814
  151SAPE  H15X16810   6.769   2.939   8.699 -1.3958 -0.0844 -0.1445
  151SAPE  H15Y16811   6.782   3.114   8.626  0.5345 -1.1739 -1.5153
  151SAPE  C31616812   6.616   2.992   8.562  0.0521  0.1557  0.1854
  151SAPE  H16X16813   6.680   2.982   8.472  0.3861  3.4533 -0.0814
  151SAPE  H16Y16814   6.540   3.073   8.551 -0.9412 -0.6022  1.2465
  151SAPE  C31716815   6.543   2.860   8.591  0.1143 -0.4698  0.0475
  151SAPE  H17X16816   6.460   2.880   8.661  0.0840 -0.0621 -0.1007
  151SAPE  H17Y16817   6.625   2.807   8.644 -0.3714 -1.0621  0.2149
  151SAPE  C31816818   6.492   2.793   8.460 -0.0414 -0.4339 -0.6147
  151SAPE  H18X16819   6.395   2.834   8.423  0.3487  0.3403 -0.8019
  151SAPE  H18Y16820   6.478   2.687   8.490  1.4483 -0.0272  1.7668
  151SAPE  H18Z16821   6.577   2.806   8.390  2.3494  0.7839  2.2664
  152SAPE     N16822   1.904   2.974  11.113  0.2480  0.1101 -0.1320
  152SAPE   HN116823   1.968   2.989  11.193  0.2972 -1.8959  0.2503
  152SAPE   HN216824   1.887   3.070  11.077  0.5944  0.4552  0.6095
  152SAPE   HN316825   1.814   2.948  11.157  0.4594 -0.9071 -0.2715
  152SAPE   C1216826   1.944   2.877  11.007  0.3845 -0.0463 -0.0431
  152SAPE  H12A16827   1.877   2.790  11.016  0.2075  0.0242 -0.6492
  152SAPE  H12B16828   2.046   2.841  11.033  0.1706 -0.5529  0.0927
  152SAPE   C1116829   1.916   2.945  10.867 -0.0387  0.2036  0.2172
  152SAPE  H11A16830   1.806   2.936  10.854  0.0153 -1.1450  0.5283
  152SAPE  H11B16831   1.966   2.872  10.799 -0.6149 -0.8041  0.8587
  152SAPE     P16832   1.935   3.146  10.699  0.3419 -0.1377 -0.3453
  152SAPE   O1316833   1.857   3.269  10.714 -0.2494 -0.4024  0.5491
  152SAPE   O1416834   2.071   3.149  10.642 -0.8054 -0.0130 -0.5838
  152SAPE   O1216835   1.957   3.075  10.845  0.4259 -0.2299  0.1324
  152SAPE   O1116836   1.851   3.049  10.613 -0.3611 -0.5490 -0.0614
  152SAPE    C116837   1.879   3.034  10.475  1.3269 -0.0515 -0.3439
  152SAPE    HA16838   1.872   3.126  10.413  2.4706  0.5148  0.3232
  152SAPE    HB16839   1.977   2.987  10.452  1.9946  2.4523 -3.4084
  152SAPE    C216840   1.764   2.954  10.405 -0.3677 -0.1923 -0.0443
  152SAPE    HS16841   1.782   2.845  10.418 -2.6760 -0.6226 -0.1079
  152SAPE   O2116842   1.767   2.988  10.263  0.1077 -0.0279  0.5207
  152SAPE   C2116843   1.873   2.938  10.198  0.6251  0.0442  0.4974
  152SAPE   O2216844   1.931   2.834  10.239 -0.0183 -0.3525  0.2119
  152SAPE   C2216845   1.877   2.995  10.057  0.1692 -0.1260  0.1341
  152SAPE   H2R16846   1.877   3.106  10.053  1.3297 -0.1250 -3.2682
  152SAPE   H2S16847   1.978   2.965  10.020  1.7807  1.1710  3.1312
  152SAPE    C316848   1.622   2.986  10.456  0.1204  0.2964  0.8784
  152SAPE    HX16849   1.606   3.095  10.461  0.0410  0.3819 -0.6183
  152SAPE    HY16850   1.605   2.957  10.562 -0.1714 -0.0662  0.7359
  152SAPE   O3116851   1.514   2.931  10.379 -0.0187 -0.2357 -0.3614
  152SAPE   C3116852   1.509   2.802  10.381  0.1301  0.5900 -0.4273
  152SAPE   O3216853   1.575   2.722  10.444 -0.1356 -0.1374 -0.0240
  152SAPE   C3216854   1.396   2.771  10.289 -0.1301  0.1825 -0.1599
  152SAPE   H2X16855   1.370   2.859  10.226 -0.3169  0.3027  0.0799
  152SAPE   H2Y16856   1.304   2.764  10.350 -1.0848  0.9110 -1.4579
  152SAPE   C2316857   1.759   2.934   9.972 -0.5118 -0.2659  0.3393
  152SAPE   H3R16858   1.671   2.939  10.040  0.6103 -0.2059  1.8408
  152SAPE   H3S16859   1.766   2.823   9.968 -0.4609 -0.5153  3.9270
  152SAPE   C2416860   1.715   3.006   9.842 -0.0654  0.4660 -0.1803
  152SAPE   H4R16861   1.700   3.112   9.871 -1.1607 -0.0379  1.2287
  152SAPE   H4S16862   1.617   2.958   9.821 -0.5809  1.1290  0.6244
  152SAPE   C2516863   1.820   2.993   9.736 -0.0209 -0.4578  0.5440
  152SAPE   H5R16864   1.918   3.024   9.774 -0.8665  1.0941  1.5879
  152SAPE   C2616865   1.804   2.948   9.613  0.3154 -0.3412 -0.0545
  152SAPE   H6R16866   1.892   2.940   9.549  0.9996  1.3453  0.6095
  152SAPE   C2716867   1.674   2.894   9.553  0.1354  0.2991  0.6234
  152SAPE   H7R16868   1.584   2.912   9.616  1.2638 -0.0326  2.3621
  152SAPE   H7S16869   1.682   2.784   9.542 -2.2878  0.0617  0.6246
  152SAPE   C2816870   1.638   2.956   9.422  0.0343 -0.0800  0.4268
  152SAPE   H8R16871   1.677   3.059   9.412  1.7059 -0.7156  0.0725
  152SAPE   C2916872   1.585   2.889   9.314  0.1493 -1.1471  0.0648
  152SAPE   H9R16873   1.567   2.947   9.222 -0.6732 -0.8103  0.4355
  152SAPE  C21016874   1.563   2.744   9.304  0.4418 -0.1713 -0.1961
  152SAPE  H10R16875   1.473   2.718   9.364 -0.5483 -1.1512 -2.0056
  152SAPE  H10S16876   1.644   2.689   9.356 -0.5717 -1.4826  0.0469
  152SAPE  C21116877   1.553   2.695   9.164 -0.6225 -0.0642 -1.0788
  152SAPE  H11R16878   1.653   2.693   9.118 -0.3283  0.4585 -0.4976
  152SAPE  C21216879   1.446   2.672   9.094  0.5250 -0.3309 -0.4177
  152SAPE  H12R16880   1.453   2.640   8.989  0.2046  0.9526 -0.8509
  152SAPE  C21316881   1.295   2.706   9.135  0.1040  0.3583  0.1934
  152SAPE  H13R16882   1.285   2.816   9.142 -1.2103  0.2646  0.0852
  152SAPE  H13S16883   1.282   2.663   9.236 -0.8235  2.3523  0.9692
  152SAPE  C21416884   1.187   2.648   9.039 -0.2070 -0.9567 -0.0385
  152SAPE  H14R16885   1.123   2.582   9.100 -2.2391  0.6086 -0.3801
  152SAPE  C21516886   1.163   2.685   8.913 -0.4239  0.9028  0.0572
  152SAPE  H15R16887   1.076   2.634   8.868  1.4609 -3.7814  1.1232
  152SAPE  C21616888   1.231   2.796   8.829 -0.4244  0.0126  0.8591
  152SAPE  H16R16889   1.303   2.855   8.888  1.5108  0.8706 -2.1414
  152SAPE  H16S16890   1.147   2.858   8.791  0.3151 -0.8063 -2.4819
  152SAPE  C21716891   1.297   2.753   8.700 -0.6011 -0.0190 -0.4898
  152SAPE  H17R16892   1.224   2.723   8.621 -0.3115 -1.0214 -0.3817
  152SAPE  H17S16893   1.346   2.656   8.722  0.7071  0.8134  0.4636
  152SAPE  C21816894   1.397   2.861   8.658  0.2075 -1.3967 -0.3823
  152SAPE  H18R16895   1.486   2.849   8.723  0.0739 -0.7197 -0.0590
  152SAPE  H18S16896   1.350   2.959   8.684 -0.4077 -2.1273  1.3790
  152SAPE  C21916897   1.421   2.887   8.505  0.4235 -0.1479 -0.2088
  152SAPE  H19R16898   1.332   2.877   8.439  2.0382  3.3405 -3.2486
  152SAPE  H19S16899   1.489   2.801   8.485  0.3226 -0.6277  1.3033
  152SAPE  C22016900   1.498   3.010   8.458 -0.1038  0.4764  0.1688
  152SAPE  H20R16901   1.596   3.012   8.512 -1.1865  2.1773  2.2312
  152SAPE  H20S16902   1.440   3.104   8.463 -0.0548  0.6045 -1.3254
  152SAPE  H20T16903   1.531   3.001   8.352 -1.3898 -0.0157 -0.2049
  152SAPE   C3316904   1.433   2.656  10.197 -0.0034 -0.4140 -1.1064
  152SAPE   H3X16905   1.334   2.611  10.172 -1.1820  0.9797  0.8300
  152SAPE   H3Y16906   1.495   2.580  10.249  0.9512 -1.0108 -3.0053
  152SAPE   C3416907   1.502   2.701  10.069 -0.4455  0.3763  0.0805
  152SAPE   H4X16908   1.608   2.718  10.095 -0.1334  2.1853 -2.0746
  152SAPE   H4Y16909   1.450   2.795  10.038 -0.3090  0.4543  0.0901
  152SAPE   C3516910   1.495   2.592   9.968 -0.0158  0.0959 -0.1369
  152SAPE   H5X16911   1.395   2.560   9.932 -0.3189 -0.0991  0.8410
  152SAPE   H5Y16912   1.545   2.506  10.016 -2.2346  0.7051  3.7074
  152SAPE   C3616913   1.567   2.630   9.837 -0.3807 -0.0522 -0.1457
  152SAPE   H6X16914   1.677   2.638   9.851 -0.6386 -0.0427  2.3868
  152SAPE   H6Y16915   1.529   2.730   9.806  2.0039  0.4968 -1.5151
  152SAPE   C3716916   1.533   2.543   9.716  0.1323 -0.0193 -0.2381
  152SAPE   H7X16917   1.583   2.596   9.633  0.2027 -1.3505 -1.0754
  152SAPE   H7Y16918   1.425   2.545   9.691  0.0011 -1.3956  0.1025
  152SAPE   C3816919   1.578   2.396   9.727  0.1022 -0.2472 -0.1576
  152SAPE   H8X16920   1.509   2.347   9.798  0.3283 -0.1623  0.1210
  152SAPE   H8Y16921   1.680   2.387   9.769  0.6254  4.1091 -0.0222
  152SAPE   C3916922   1.584   2.333   9.590 -0.0324  0.1935 -0.8748
  152SAPE   H9X16923   1.485   2.337   9.540 -1.1622  0.5943  1.2647
  152SAPE   H9Y16924   1.604   2.225   9.606 -1.1676  0.0324 -0.4379
  152SAPE  C31016925   1.681   2.398   9.494 -0.1089  0.0414  0.2465
  152SAPE  H10X16926   1.777   2.403   9.550 -1.1998  0.0922  2.1841
  152SAPE  H10Y16927   1.636   2.490   9.451 -1.5836  0.2938  2.2028
  152SAPE  C31116928   1.702   2.310   9.367  0.7668  0.0727 -0.1957
  152SAPE  H11X16929   1.598   2.288   9.334  1.7606 -4.5893 -1.0111
  152SAPE  H11Y16930   1.751   2.213   9.391  1.3465  0.2849 -0.5123
  152SAPE  C31216931   1.765   2.375   9.242  0.0373  0.2361 -0.1513
  152SAPE  H12X16932   1.869   2.377   9.279 -0.3414 -1.7614  1.1867
  152SAPE  H12Y16933   1.720   2.475   9.227 -0.8969  0.0802  1.3666
  152SAPE  C31316934   1.766   2.284   9.119 -0.1841  0.8232  0.9206
  152SAPE  H13X16935   1.664   2.249   9.091 -0.2107  1.5132  0.1156
  152SAPE  H13Y16936   1.835   2.199   9.135  0.8338  1.6690  1.1462
  152SAPE  C31416937   1.827   2.355   8.993  0.2595  0.0425  0.3140
  152SAPE  H14X16938   1.815   2.275   8.916  1.8385  0.4979 -0.4574
  152SAPE  H14Y16939   1.936   2.366   9.012  0.3700 -0.9038  0.2750
  152SAPE  C31516940   1.771   2.486   8.952  0.7478 -0.2574 -0.3213
  152SAPE  H15X16941   1.828   2.565   9.006  0.3740 -0.9064  1.0413
  152SAPE  H15Y16942   1.663   2.494   8.975  0.7377 -1.3329  0.0174
  152SAPE  C31616943   1.784   2.510   8.803  0.1540  1.0488  0.6180
  152SAPE  H16X16944   1.734   2.432   8.741 -0.7627  1.0612  1.3360
  152SAPE  H16Y16945   1.891   2.523   8.776  0.3342  2.0973  1.7476
  152SAPE  C31716946   1.731   2.648   8.762 -0.0774 -0.1987 -0.1226
  152SAPE  H17X16947   1.794   2.716   8.822  0.3992 -1.6760  1.1388
  152SAPE  H17Y16948   1.629   2.664   8.802  0.0842 -0.0016  0.2079
  152SAPE  C31816949   1.746   2.670   8.608 -0.7584 -0.2501 -0.4662
  152SAPE  H18X16950   1.682   2.594   8.559 -1.1019 -0.9905  1.0754
  152SAPE  H18Y16951   1.853   2.655   8.581 -0.6141  1.3892 -0.8928
  152SAPE  H18Z16952   1.706   2.772   8.591 -0.4023  0.3451  1.8722
  153SAPE     N16953   2.110   5.850  11.001 -0.5408  0.1394 -0.7201
  153SAPE   HN116954   2.209   5.879  10.985 -0.6511  0.0537 -1.5925
  153SAPE   HN216955   2.093   5.862  11.103 -1.6288  1.7106 -1.0451
  153SAPE   HN316956   2.103   5.750  10.976  0.4914 -0.2681  0.4950
  153SAPE   C1216957   2.035   5.942  10.911  0.2515  0.3724  0.5243
  153SAPE  H12A16958   2.076   6.041  10.940  2.1689  0.4693 -2.1604
  153SAPE  H12B16959   1.927   5.939  10.936 -0.1345  2.5211 -0.6544
  153SAPE   C1116960   2.044   5.900  10.765  0.7714 -0.1207  0.5342
  153SAPE  H11A16961   2.148   5.864  10.748  1.2660  0.6313  1.7812
  153SAPE  H11B16962   2.027   5.978  10.688 -0.3893 -1.7224 -0.8946
  153SAPE     P16963   1.812   5.791  10.685  0.0375  0.1418  0.1114
  153SAPE   O1316964   1.721   5.716  10.776 -0.1379 -0.2440 -0.4847
  153SAPE   O1416965   1.770   5.933  10.659 -0.6539  0.4559  0.5142
  153SAPE   O1216966   1.950   5.792  10.760  0.3126  0.0060  0.0980
  153SAPE   O1116967   1.830   5.707  10.556  0.1496  0.1248 -0.0520
  153SAPE    C116968   1.961   5.652  10.516 -0.2482  0.7711 -0.6797
  153SAPE    HA16969   2.011   5.724  10.447  2.8868 -0.6717 -0.1265
  153SAPE    HB16970   2.020   5.631  10.608 -1.4034  0.7097  0.0659
  153SAPE    C216971   1.966   5.513  10.448 -0.0907  1.1258  0.0610
  153SAPE    HS16972   2.068   5.472  10.435 -1.2410 -1.3126 -2.2274
  153SAPE   O2116973   1.924   5.538  10.315 -0.0085 -0.0148 -0.3924
  153SAPE   C2116974   2.008   5.579  10.221  0.8862  0.8039 -0.0535
  153SAPE   O2216975   2.128   5.585  10.236 -0.1806 -0.3508 -0.5618
  153SAPE   C2216976   1.936   5.616  10.095  0.1665 -0.0362 -0.2076
  153SAPE   H2R16977   1.846   5.552  10.086  0.0686 -0.7725  3.8886
  153SAPE   H2S16978   1.909   5.723  10.107 -1.7448 -0.4913  0.0031
  153SAPE    C316979   1.867   5.416  10.518 -0.2932 -0.8759  0.2839
  153SAPE    HX16980   1.771   5.469  10.537 -0.3470 -1.1803  0.9157
  153SAPE    HY16981   1.894   5.382  10.620  1.5427 -0.1727  0.0547
  153SAPE   O3116982   1.834   5.315  10.430  0.2203  0.6879 -0.1178
  153SAPE   C3116983   1.916   5.211  10.430 -0.2134 -0.5829 -0.1470
  153SAPE   O3216984   2.004   5.188  10.514  0.4131 -0.1664  0.0147
  153SAPE   C3216985   1.899   5.121  10.300 -0.0476 -0.6413 -0.1766
  153SAPE   H2X16986   1.788   5.117  10.290 -0.1072 -0.4976  0.3825
  153SAPE   H2Y16987   1.934   5.018  10.320 -1.8150 -1.5078 -1.3117
  153SAPE   C2316988   2.022   5.594   9.970  0.1217 -0.3408 -0.5533
  153SAPE   H3R16989   2.035   5.484   9.961 -1.7105 -0.6458  0.1349
  153SAPE   H3S16990   2.113   5.657   9.957 -0.2701  0.0739 -1.3837
  153SAPE   C2416991   1.938   5.645   9.842 -0.4389  0.6866 -1.1894
  153SAPE   H4R16992   1.923   5.755   9.845  0.3579  0.7776  0.0317
  153SAPE   H4S16993   1.839   5.594   9.851  0.9650 -2.0856 -0.3138
  153SAPE   C2516994   2.028   5.615   9.722 -0.0603  0.3736 -0.1929
  153SAPE   H5R16995   2.132   5.599   9.755  0.4781  0.5629 -1.6822
  153SAPE   C2616996   1.996   5.598   9.594 -0.2704 -0.1597 -0.2155
  153SAPE   H6R16997   2.076   5.577   9.521  1.7713  0.2691  1.8033
  153SAPE   C2716998   1.858   5.612   9.531 -0.2312 -0.5350 -0.2439
  153SAPE   H7R16999   1.870   5.706   9.473 -2.7360 -0.1161 -0.1959
  153SAPE   H7S17000   1.770   5.633   9.596  0.5289 -0.2914  0.7283
  153SAPE   C2817001   1.835   5.500   9.436 -0.1985 -1.2436 -0.3181
  153SAPE   H8R17002   1.849   5.397   9.471  0.0393 -0.5152  1.8787
  153SAPE   C2917003   1.774   5.512   9.315  0.0127 -0.2062  0.5977
  153SAPE   H9R17004   1.779   5.426   9.246 -0.7970 -0.2561  0.5943
  153SAPE  C21017005   1.732   5.640   9.246  0.3230  0.1869  0.2832
  153SAPE  H10R17006   1.706   5.619   9.140 -0.6676 -0.7956  0.6976
  153SAPE  H10S17007   1.814   5.715   9.243  1.5468 -1.1237  0.0697
  153SAPE  C21117008   1.620   5.703   9.314 -0.0678  0.0245 -0.2151
  153SAPE  H11R17009   1.617   5.712   9.423  1.4200 -0.2569 -0.1285
  153SAPE  C21217010   1.512   5.736   9.250  0.1539  0.0461  0.2380
  153SAPE  H12R17011   1.438   5.790   9.312 -0.0755  0.5009 -0.4281
  153SAPE  C21317012   1.468   5.715   9.103  0.3369 -0.0110  0.6111
  153SAPE  H13R17013   1.364   5.678   9.109 -0.2882  1.2397 -1.4488
  153SAPE  H13S17014   1.516   5.633   9.045 -0.5394 -0.4311  0.4749
  153SAPE  C21417015   1.480   5.841   9.028  0.5479 -0.5167 -0.2973
  153SAPE  H14R17016   1.554   5.911   9.069  0.1648  0.0545 -0.5555
  153SAPE  C21517017   1.398   5.868   8.922  0.7071  0.3192 -0.0352
  153SAPE  H15R17018   1.420   5.959   8.864  0.6855  0.6546  0.4721
  153SAPE  C21617019   1.298   5.776   8.858 -0.5459 -0.4630 -0.6565
  153SAPE  H16R17020   1.216   5.838   8.815  0.1343  1.1214  0.2261
  153SAPE  H16S17021   1.258   5.711   8.938  1.6222 -0.6489  0.3463
  153SAPE  C21717022   1.356   5.672   8.757 -0.0332  0.0684 -0.1358
  153SAPE  H17R17023   1.291   5.582   8.768 -1.3026  1.0033  0.2421
  153SAPE  H17S17024   1.457   5.656   8.801 -0.2747  3.0171  1.7414
  153SAPE  C21817025   1.352   5.731   8.613  0.2995  0.2391 -0.6293
  153SAPE  H18R17026   1.412   5.824   8.603 -0.0966  0.4531 -1.0321
  153SAPE  H18S17027   1.246   5.747   8.586  0.1341 -0.4890 -0.4240
  153SAPE  C21917028   1.398   5.617   8.514  0.0734 -0.4798  0.1849
  153SAPE  H19R17029   1.337   5.526   8.529 -0.3535 -0.4969 -1.4816
  153SAPE  H19S17030   1.502   5.594   8.546 -0.0794 -1.0274  0.2945
  153SAPE  C22017031   1.404   5.659   8.365 -0.2810 -0.1989 -0.2012
  153SAPE  H20R17032   1.300   5.667   8.328 -0.6247  1.0333  0.9356
  153SAPE  H20S17033   1.467   5.590   8.305  1.5691  0.9312  0.3461
  153SAPE  H20T17034   1.455   5.757   8.353 -1.3968  0.3670 -0.4547
  153SAPE   C3317035   1.963   5.181  10.176  0.3005  0.2296  0.4857
  153SAPE   H3X17036   2.074   5.175  10.180  0.3152  0.3903  0.3175
  153SAPE   H3Y17037   1.938   5.289  10.177  0.9871  0.4541 -1.7895
  153SAPE   C3417038   1.915   5.117  10.045 -0.1076 -0.4666 -0.4469
  153SAPE   H4X17039   1.805   5.132  10.049 -0.1586 -0.2636 -1.7946
  153SAPE   H4Y17040   1.932   5.009  10.062  0.2110 -0.1535  1.4058
  153SAPE   C3517041   1.986   5.173   9.915  0.2485 -0.3034  0.5113
  153SAPE   H5X17042   2.088   5.130   9.920  0.8313  1.0007  0.3497
  153SAPE   H5Y17043   1.986   5.284   9.909 -0.2410 -0.3303 -0.0904
  153SAPE   C3617044   1.924   5.114   9.786 -0.1012  0.0474  0.4797
  153SAPE   H6X17045   1.829   5.170   9.773 -0.2703 -0.4890 -0.6916
  153SAPE   H6Y17046   1.907   5.006   9.802 -0.4196  0.3615  2.4733
  153SAPE   C3717047   2.011   5.142   9.662  0.1038 -0.2368  0.2580
  153SAPE   H7X17048   2.116   5.105   9.659  1.2987  2.7438  1.5075
  153SAPE   H7Y17049   2.025   5.251   9.649  0.1630 -0.1873  0.7304
  153SAPE   C3817050   1.943   5.089   9.533  0.1829  0.4327 -0.6273
  153SAPE   H8X17051   1.853   5.152   9.516 -0.0112  0.3642  0.0766
  153SAPE   H8Y17052   1.907   4.986   9.555 -4.4978  1.6518 -1.4195
  153SAPE   C3917053   2.030   5.094   9.415 -0.1029 -0.7801 -0.5600
  153SAPE   H9X17054   2.131   5.054   9.437  0.3819  0.5088 -0.3120
  153SAPE   H9Y17055   2.044   5.203   9.399  1.6198 -0.6111  1.6086
  153SAPE  C31017056   1.968   5.024   9.295  0.6250  0.1192  0.2684
  153SAPE  H10X17057   1.882   5.085   9.259  0.2864  0.7688  2.0857
  153SAPE  H10Y17058   1.931   4.926   9.333 -0.2301  1.1224  2.1296
  153SAPE  C31117059   2.064   5.009   9.179 -0.4285 -0.2899 -0.5650
  153SAPE  H11X17060   2.136   4.927   9.203 -2.5634 -1.9774  0.4923
  153SAPE  H11Y17061   2.110   5.109   9.163  0.5670 -0.9340 -1.9682
  153SAPE  C31217062   1.980   4.953   9.056 -0.0693 -0.5664  0.2189
  153SAPE  H12X17063   1.881   5.003   9.067 -0.0892 -0.1882 -1.3708
  153SAPE  H12Y17064   1.976   4.843   9.070  1.8424 -0.6809  0.1100
  153SAPE  C31317065   2.047   4.988   8.920  0.1451 -0.0269 -0.0631
  153SAPE  H13X17066   2.144   4.937   8.935 -0.1179 -0.1112  1.5959
  153SAPE  H13Y17067   2.056   5.098   8.912  1.0071 -0.0632  0.2821
  153SAPE  C31417068   1.982   4.920   8.796  0.9643 -0.1532 -0.2451
  153SAPE  H14X17069   1.886   4.976   8.791  1.0841  0.3160  1.7854
  153SAPE  H14Y17070   1.956   4.815   8.821  1.1324 -0.2978 -0.6747
  153SAPE  C31517071   2.053   4.937   8.661  0.3333  0.5805  0.6158
  153SAPE  H15X17072   2.035   5.043   8.630 -0.8754 -0.2744 -1.8549
  153SAPE  H15Y17073   2.008   4.875   8.581  1.7838  0.2233  0.0513
  153SAPE  C31617074   2.203   4.896   8.668  1.3470 -0.1375  0.2305
  153SAPE  H16X17075   2.206   4.795   8.714 -1.0816  0.6719  2.3793
  153SAPE  H16Y17076   2.261   4.967   8.731  1.6022 -0.6872  0.6228
  153SAPE  C31717077   2.260   4.890   8.528 -0.4936 -0.5292  0.1054
  153SAPE  H17X17078   2.266   4.985   8.471  4.3303 -1.0459 -0.7633
  153SAPE  H17Y17079   2.198   4.823   8.464 -0.8101 -2.5042  2.3220
  153SAPE  C31817080   2.396   4.829   8.533 -0.8209  0.4066  0.0740
  153SAPE  H18X17081   2.473   4.902   8.567 -2.3390  1.0837  2.2070
  153SAPE  H18Y17082   2.434   4.801   8.432  1.2399  1.9004  0.3603
  153SAPE  H18Z17083   2.398   4.737   8.595 -0.0599  1.1369  1.1856
  154SAPE     N17084   1.608   3.340  10.794 -0.1184 -0.4245 -0.2731
  154SAPE   HN117085   1.565   3.248  10.816 -1.8619  0.3576 -0.3038
  154SAPE   HN217086   1.711   3.324  10.784 -0.4768 -2.0618 -1.9262
  154SAPE   HN317087   1.581   3.400  10.874  1.6577  0.7216 -0.4744
  154SAPE   C1217088   1.565   3.403  10.671 -0.6504  0.1946  0.1899
  154SAPE  H12A17089   1.454   3.413  10.677 -0.9040 -1.9894  0.0384
  154SAPE  H12B17090   1.600   3.337  10.589 -1.4456  0.2451 -0.2051
  154SAPE   C1117091   1.642   3.534  10.647  0.3792 -0.8224 -0.6663
  154SAPE  H11A17092   1.598   3.585  10.559  0.0422 -0.6811 -0.4157
  154SAPE  H11B17093   1.747   3.509  10.623  0.7928  0.1264  0.1131
  154SAPE     P17094   1.506   3.720  10.762  0.8757  0.4532 -0.2299
  154SAPE   O1317095   1.370   3.663  10.756  0.4025 -0.1371 -0.1429
  154SAPE   O1417096   1.528   3.811  10.877 -0.5325  0.5362  0.3861
  154SAPE   O1217097   1.630   3.617  10.762 -0.3606  0.2206  0.0608
  154SAPE   O1117098   1.518   3.810  10.634 -0.1332 -0.1771  0.3799
  154SAPE    C117099   1.628   3.892  10.607  0.0376  0.0039 -0.2255
  154SAPE    HA17100   1.610   3.990  10.656 -1.9910 -0.5546  0.2434
  154SAPE    HB17101   1.711   3.848  10.666 -1.6608 -0.4217  1.9579
  154SAPE    C217102   1.661   3.903  10.452 -0.1923 -0.8757 -0.4394
  154SAPE    HS17103   1.644   3.800  10.414 -2.8948 -0.2404 -1.0984
  154SAPE   O2117104   1.798   3.954  10.434 -0.3794 -0.1074  0.1368
  154SAPE   C2117105   1.889   3.855  10.439  0.7055 -0.9882 -0.1518
  154SAPE   O2217106   1.878   3.735  10.471  0.1381 -0.2046  0.3529
  154SAPE   C2217107   2.024   3.920  10.389 -0.0658  1.1079 -0.6563
  154SAPE   H2R17108   2.014   3.954  10.284  1.3913  0.9585 -0.8564
  154SAPE   H2S17109   2.051   4.001  10.460 -0.0486  0.3326  0.2424
  154SAPE    C317110   1.568   3.998  10.380  0.5973 -0.3357  0.1144
  154SAPE    HX17111   1.587   4.103  10.413  1.1593  0.5143 -2.6658
  154SAPE    HY17112   1.464   3.965  10.402 -0.0749  0.0900 -2.1385
  154SAPE   O3117113   1.583   3.991  10.240 -0.3394 -0.1871 -0.1760
  154SAPE   C3117114   1.662   4.080  10.184 -0.1598  0.0128 -0.3851
  154SAPE   O3217115   1.699   4.181  10.239  0.5323  0.5827  0.0363
  154SAPE   C3217116   1.728   4.027  10.060  0.7831 -0.0882 -0.0126
  154SAPE   H2X17117   1.648   4.010   9.984  0.0768 -2.1169  1.0833
  154SAPE   H2Y17118   1.776   3.929  10.080 -2.9548 -2.0606  0.3475
  154SAPE   C2317119   2.141   3.821  10.388  1.0197 -0.0310 -0.3554
  154SAPE   H3R17120   2.097   3.724  10.355  1.0004  0.1497 -0.8653
  154SAPE   H3S17121   2.170   3.796  10.492 -0.4016 -1.3662 -0.2462
  154SAPE   C2417122   2.250   3.845  10.289  0.1715 -0.4701 -0.3041
  154SAPE   H4R17123   2.317   3.928  10.323 -1.2295  1.7957 -2.7181
  154SAPE   H4S17124   2.203   3.881  10.195  0.0484  0.6642  0.1685
  154SAPE   C2517125   2.328   3.725  10.259 -0.2305 -0.2734 -0.0407
  154SAPE   H5R17126   2.355   3.669  10.350 -0.4288  1.3720  1.0785
  154SAPE   C2617127   2.355   3.671  10.141 -0.6130 -0.5519 -0.1090
  154SAPE   H6R17128   2.426   3.587  10.150  3.0106  2.3596  0.9187
  154SAPE   C2717129   2.318   3.709   9.999 -0.6394  0.0403 -0.7056
  154SAPE   H7R17130   2.376   3.628   9.951 -0.9465 -0.6187  0.0004
  154SAPE   H7S17131   2.367   3.800   9.959 -0.3708  0.6688  0.9511
  154SAPE   C2817132   2.168   3.703   9.966 -0.3387  0.1309 -0.5314
  154SAPE   H8R17133   2.109   3.689  10.058  0.6826 -1.4547 -0.0922
  154SAPE   C2917134   2.102   3.731   9.852 -0.0887 -0.3084  0.5116
  154SAPE   H9R17135   1.993   3.728   9.843 -0.0546  0.5589 -0.3764
  154SAPE  C21017136   2.163   3.759   9.718  0.1734  0.3912  0.5436
  154SAPE  H10R17137   2.258   3.813   9.738  0.6089 -0.6016  1.2088
  154SAPE  H10S17138   2.104   3.833   9.660  1.6296  1.7229  0.6810
  154SAPE  C21117139   2.199   3.628   9.645 -0.2687 -0.6048  0.0130
  154SAPE  H11R17140   2.216   3.544   9.714 -1.0223  0.2729  1.3214
  154SAPE  C21217141   2.219   3.608   9.510  1.0371 -0.3183  0.0749
  154SAPE  H12R17142   2.221   3.502   9.480  0.2952 -0.5578  0.8324
  154SAPE  C21317143   2.198   3.699   9.389  0.2708  0.6026 -0.3595
  154SAPE  H13R17144   2.285   3.701   9.320  0.8275 -0.7128  0.2882
  154SAPE  H13S17145   2.200   3.805   9.423 -0.9042  0.3655  0.5117
  154SAPE  C21417146   2.062   3.668   9.337  0.2031  0.4769 -0.3937
  154SAPE  H14R17147   1.986   3.704   9.407 -0.1739  0.8441 -0.9905
  154SAPE  C21517148   2.019   3.626   9.214 -0.7698  0.2595  0.1234
  154SAPE  H15R17149   1.914   3.604   9.192 -1.2456  3.1653 -0.9289
  154SAPE  C21617150   2.118   3.601   9.105 -0.5475 -0.9402  0.1144
  154SAPE  H16R17151   2.118   3.494   9.073  0.6881 -1.1173  0.6567
  154SAPE  H16S17152   2.224   3.620   9.131  0.3621 -3.0855 -1.6904
  154SAPE  C21717153   2.082   3.703   8.994 -0.0168  0.9892 -0.5248
  154SAPE  H17R17154   2.158   3.707   8.914 -1.0743 -0.0642 -1.6266
  154SAPE  H17S17155   2.071   3.806   9.034  0.7318  0.7963  0.1936
  154SAPE  C21817156   1.964   3.655   8.914  0.2849 -0.5447  0.0005
  154SAPE  H18R17157   1.877   3.626   8.978 -1.2990  2.2351 -0.7197
  154SAPE  H18S17158   1.994   3.557   8.871  2.1857 -0.2123  0.4891
  154SAPE  C21917159   1.941   3.755   8.803 -0.2043 -0.2624 -0.4556
  154SAPE  H19R17160   2.038   3.768   8.751 -0.1643 -2.2318 -0.9122
  154SAPE  H19S17161   1.893   3.843   8.853 -1.1108  0.7925 -3.0145
  154SAPE  C22017162   1.833   3.712   8.701  0.0363 -0.3324  0.1667
  154SAPE  H20R17163   1.826   3.771   8.607 -0.8111 -1.7726 -0.7128
  154SAPE  H20S17164   1.737   3.708   8.756 -0.2985  0.5615 -0.3263
  154SAPE  H20T17165   1.860   3.612   8.661  1.6883  0.8804 -2.0005
  154SAPE   C3317166   1.819   4.136  10.006  0.5000 -0.0010 -0.6875
  154SAPE   H3X17167   1.910   4.134  10.071  1.1983  0.9644 -1.6045
  154SAPE   H3Y17168   1.774   4.235   9.986  4.8679  2.6726  1.2961
  154SAPE   C3417169   1.879   4.079   9.874  0.5584  0.6186 -0.3644
  154SAPE   H4X17170   1.900   3.970   9.881 -1.2069  0.1413 -1.6200
  154SAPE   H4Y17171   1.974   4.135   9.859  1.3600 -0.7443 -0.5615
  154SAPE   C3517172   1.778   4.095   9.752 -0.3527 -0.0429  0.1144
  154SAPE   H5X17173   1.757   4.203   9.735  0.6531  0.2156  0.5067
  154SAPE   H5Y17174   1.685   4.041   9.780 -0.7466  1.3283  1.6037
  154SAPE   C3617175   1.827   4.041   9.614  0.4065 -0.0082 -0.0524
  154SAPE   H6X17176   1.872   3.941   9.632 -0.9556 -0.8696 -1.2935
  154SAPE   H6Y17177   1.916   4.097   9.577 -0.0237 -0.0793 -1.2226
  154SAPE   C3717178   1.727   4.026   9.496  0.3403  0.4607 -0.5346
  154SAPE   H7X17179   1.675   4.124   9.499  2.6412  1.7204  1.2408
  154SAPE   H7Y17180   1.658   3.946   9.530  0.1029 -0.0018 -1.9916
  154SAPE   C3817181   1.798   3.996   9.366  0.0363 -0.7743 -0.4365
  154SAPE   H8X17182   1.893   3.947   9.396  1.0832  1.4081 -0.0207
  154SAPE   H8Y17183   1.825   4.091   9.315  2.7804 -1.3668 -0.2257
  154SAPE   C3917184   1.721   3.916   9.268  0.6660  0.7258  0.6592
  154SAPE   H9X17185   1.673   3.826   9.313  0.5866 -0.1533 -1.0949
  154SAPE   H9Y17186   1.777   3.875   9.181  1.2653 -0.2866  1.5004
  154SAPE  C31017187   1.608   4.000   9.201 -0.3085 -0.1701 -0.5277
  154SAPE  H10X17188   1.648   4.101   9.176 -0.8710  0.0185 -0.6849
  154SAPE  H10Y17189   1.522   4.001   9.271 -0.8444 -2.3832 -1.0879
  154SAPE  C31117190   1.564   3.934   9.070  0.5460  0.6513  0.2954
  154SAPE  H11X17191   1.523   3.832   9.080  2.6478 -0.3974 -1.1114
  154SAPE  H11Y17192   1.658   3.919   9.014 -0.3342 -2.0698 -0.5801
  154SAPE  C31217193   1.462   4.024   8.995 -0.6790  0.3046 -0.1038
  154SAPE  H12X17194   1.512   4.112   8.952 -0.0599 -0.4441 -0.9577
  154SAPE  H12Y17195   1.405   4.070   9.078  1.4044  0.4791  1.2691
  154SAPE  C31317196   1.382   3.949   8.892  0.2612  0.2397  0.4496
  154SAPE  H13X17197   1.310   4.025   8.855  2.0969  2.9346  2.0349
  154SAPE  H13Y17198   1.316   3.874   8.941  2.6774 -2.1699  0.2840
  154SAPE  C31417199   1.473   3.876   8.796 -0.0700  0.1930 -0.2908
  154SAPE  H14X17200   1.542   3.801   8.841  2.6139  1.2746 -2.3898
  154SAPE  H14Y17201   1.543   3.942   8.741 -1.6686  1.0658 -1.3639
  154SAPE  C31517202   1.399   3.804   8.690  0.2537 -0.3057  0.2981
  154SAPE  H15X17203   1.300   3.773   8.730 -0.1507  0.5376 -0.0391
  154SAPE  H15Y17204   1.454   3.715   8.652 -1.0884 -0.4127 -1.5585
  154SAPE  C31617205   1.379   3.885   8.557  0.0210  0.7105 -0.2140
  154SAPE  H16X17206   1.477   3.935   8.535  0.1486  0.5490 -0.0064
  154SAPE  H16Y17207   1.307   3.967   8.575  0.3763  0.8888  0.4230
  154SAPE  C31717208   1.335   3.790   8.443  0.4307 -0.8445 -0.0248
  154SAPE  H17X17209   1.398   3.699   8.451  1.4105 -0.0315  2.0514
  154SAPE  H17Y17210   1.356   3.845   8.348 -2.8730  0.6942 -0.0369
  154SAPE  C31817211   1.188   3.753   8.431 -0.2098  0.7916  0.2794
  154SAPE  H18X17212   1.144   3.721   8.528 -0.8900  3.3079  0.8699
  154SAPE  H18Y17213   1.177   3.669   8.359  0.8325  2.7668 -2.3383
  154SAPE  H18Z17214   1.124   3.835   8.393 -0.7893  0.7277  1.0873
  155SAPE     N17215   2.289   3.338  10.759 -0.1347 -0.2000  0.4027
  155SAPE   HN117216   2.306   3.304  10.663  1.4711 -0.9883  0.9274
  155SAPE   HN217217   2.378   3.370  10.803 -1.0155  0.9449  1.4501
  155SAPE   HN317218   2.251   3.258  10.814 -1.1580  0.2878  0.4202
  155SAPE   C1217219   2.186   3.448  10.770 -0.3531  0.0184 -0.0802
  155SAPE  H12A17220   2.087   3.405  10.745 -1.0786  1.3276  0.4287
  155SAPE  H12B17221   2.205   3.523  10.690  1.5468 -0.1186  0.1803
  155SAPE   C1117222   2.197   3.507  10.913 -0.0561  0.5052  0.3908
  155SAPE  H11A17223   2.190   3.431  10.994 -1.1734 -1.5865 -1.5671
  155SAPE  H11B17224   2.104   3.567  10.923 -1.1197 -0.9524 -0.3836
  155SAPE     P17225   2.350   3.717  10.961 -0.1779  0.3712 -0.7065
  155SAPE   O1317226   2.216   3.783  10.980 -0.1896  0.0925  0.1615
  155SAPE   O1417227   2.444   3.715  11.079  0.3635  0.4931  0.0484
  155SAPE   O1217228   2.316   3.568  10.929 -0.0587 -0.3277 -0.2888
  155SAPE   O1117229   2.423   3.782  10.842  0.2622  0.6565  0.9049
  155SAPE    C117230   2.506   3.684  10.761 -0.5352 -0.3771  0.0635
  155SAPE    HA17231   2.560   3.609  10.823 -0.5755  0.2003  0.8142
  155SAPE    HB17232   2.437   3.630  10.693  1.8966 -0.4518 -2.4906
  155SAPE    C217233   2.586   3.758  10.652 -0.0239 -0.2867  0.3449
  155SAPE    HS17234   2.684   3.782  10.699 -0.8360 -0.2504  2.0800
  155SAPE   O2117235   2.517   3.880  10.610  0.2409 -0.0910 -0.5216
  155SAPE   C2117236   2.537   3.991  10.683 -0.0237 -0.2613  0.2981
  155SAPE   O2217237   2.615   4.003  10.778  0.3332  0.4518  0.1914
  155SAPE   C2217238   2.455   4.107  10.618 -0.8601 -0.1401  0.6001
  155SAPE   H2R17239   2.402   4.076  10.526 -1.3130  0.6581  0.5837
  155SAPE   H2S17240   2.373   4.159  10.671  0.5299  1.5652  1.1886
  155SAPE    C317241   2.605   3.666  10.530 -0.3081  0.0625  0.5944
  155SAPE    HX17242   2.503   3.642  10.491 -0.8647  3.3899 -0.2677
  155SAPE    HY17243   2.661   3.579  10.570  0.6462  1.1921  1.7734
  155SAPE   O3117244   2.689   3.730  10.428 -0.6919 -0.0559  0.2023
  155SAPE   C3117245   2.686   3.676  10.314  0.0985  0.1112  0.4160
  155SAPE   O3217246   2.627   3.569  10.287  0.0703 -0.1240 -0.2961
  155SAPE   C3217247   2.760   3.766  10.212 -0.1942 -0.4275 -0.0613
  155SAPE   H2X17248   2.851   3.713  10.179 -0.9573 -1.6753 -0.2473
  155SAPE   H2Y17249   2.781   3.868  10.251  0.4714 -0.8063  0.6045
  155SAPE   C2317250   2.551   4.216  10.574 -0.4810 -0.0568 -0.3263
  155SAPE   H3R17251   2.580   4.274  10.665 -0.0755 -0.5010 -0.1718
  155SAPE   H3S17252   2.491   4.284  10.511  0.1617  1.3850  0.5522
  155SAPE   C2417253   2.665   4.169  10.484 -0.6677 -0.5662 -0.2269
  155SAPE   H4R17254   2.732   4.093  10.530  2.2564  2.4127  0.7922
  155SAPE   H4S17255   2.733   4.250  10.450  0.9621 -1.7978 -0.0395
  155SAPE   C2517256   2.602   4.117  10.351  0.1296  0.4716 -0.2253
  155SAPE   H5R17257   2.554   4.018  10.354  0.7697  0.1299 -0.8238
  155SAPE   C2617258   2.589   4.180  10.232 -0.4851  0.0305  0.6202
  155SAPE   H6R17259   2.551   4.125  10.144 -2.0554  0.7855  0.8046
  155SAPE   C2717260   2.645   4.316  10.196  0.1175 -0.2768  0.8436
  155SAPE   H7R17261   2.612   4.399  10.262  0.6606  0.4784  0.1945
  155SAPE   H7S17262   2.590   4.327  10.100  0.5613 -1.8063  0.3763
  155SAPE   C2817263   2.789   4.317  10.178 -1.2292 -0.4613  0.6355
  155SAPE   H8R17264   2.851   4.301  10.267  0.5636  0.1030 -0.4714
  155SAPE   C2917265   2.852   4.345  10.059 -0.1521  0.8276 -0.0352
  155SAPE   H9R17266   2.961   4.333  10.060 -0.2309  0.0706 -0.3192
  155SAPE  C21017267   2.784   4.355   9.919 -0.5299  0.6858  0.8255
  155SAPE  H10R17268   2.819   4.453   9.881  0.0019 -0.2854 -1.3005
  155SAPE  H10S17269   2.673   4.360   9.926 -0.4702  2.3712  0.8653
  155SAPE  C21117270   2.816   4.256   9.810  0.0361 -0.3424  0.4883
  155SAPE  H11R17271   2.851   4.156   9.841 -0.5016 -0.9819 -0.8777
  155SAPE  C21217272   2.803   4.270   9.673  0.8516 -0.6638  0.1600
  155SAPE  H12R17273   2.813   4.183   9.606 -0.8082 -0.5613 -0.2742
  155SAPE  C21317274   2.748   4.393   9.608  0.0318 -0.0817  0.1233
  155SAPE  H13R17275   2.749   4.486   9.670  2.3634  1.5717 -2.1753
  155SAPE  H13S17276   2.646   4.363   9.575  1.5035 -1.5523 -3.5604
  155SAPE  C21417277   2.829   4.448   9.490  0.1157 -0.1804 -0.4722
  155SAPE  H14R17278   2.894   4.532   9.515  1.4142 -0.7728 -1.7207
  155SAPE  C21517279   2.816   4.404   9.363  0.1932 -0.3995  0.1892
  155SAPE  H15R17280   2.878   4.451   9.286  2.7446 -2.2245  1.0176
  155SAPE  C21617281   2.727   4.292   9.308  0.0486  0.0680  0.0208
  155SAPE  H16R17282   2.661   4.257   9.390  0.1823 -0.2752 -0.0165
  155SAPE  H16S17283   2.772   4.209   9.249  0.5925  2.6453 -3.5139
  155SAPE  C21717284   2.629   4.353   9.195 -0.5481  0.4991  0.1127
  155SAPE  H17R17285   2.586   4.453   9.217 -1.8404  0.1574 -0.7721
  155SAPE  H17S17286   2.551   4.274   9.190  0.6911 -0.9433  1.7867
  155SAPE  C21817287   2.695   4.353   9.055  0.0366  0.9281 -0.1910
  155SAPE  H18R17288   2.653   4.282   8.981 -1.5420  1.7713 -0.1610
  155SAPE  H18S17289   2.801   4.323   9.071  0.0681  1.1449  0.0234
  155SAPE  C21917290   2.683   4.490   9.003 -0.6175 -0.1885 -0.7210
  155SAPE  H19R17291   2.721   4.566   9.074  0.6176 -1.6554  0.2606
  155SAPE  H19S17292   2.575   4.513   8.987 -0.7621 -0.9513 -0.8967
  155SAPE  C22017293   2.745   4.514   8.867  0.0178 -0.1403 -0.0454
  155SAPE  H20R17294   2.718   4.615   8.830  0.6330  0.0212 -0.0560
  155SAPE  H20S17295   2.711   4.442   8.790  0.2928  0.0476 -0.3433
  155SAPE  H20T17296   2.856   4.517   8.877  0.2567  1.1634 -2.2947
  155SAPE   C3317297   2.660   3.790  10.098  0.0916 -0.7837  0.4137
  155SAPE   H3X17298   2.563   3.841  10.118 -0.6456 -1.7071 -0.6241
  155SAPE   H3Y17299   2.628   3.688  10.065 -3.7531 -0.3923  2.3891
  155SAPE   C3417300   2.742   3.859   9.985 -0.1465 -0.0118  0.0203
  155SAPE   H4X17301   2.835   3.801   9.964 -0.5109 -0.0322 -1.7396
  155SAPE   H4Y17302   2.787   3.957  10.011 -0.0113 -0.0148 -0.1957
  155SAPE   C3517303   2.667   3.881   9.855  0.5589 -0.2978 -0.5098
  155SAPE   H5X17304   2.725   3.946   9.785  1.0947  0.0228  0.2131
  155SAPE   H5Y17305   2.569   3.929   9.874  0.5196 -0.6467  0.1955
  155SAPE   C3617306   2.641   3.754   9.777 -0.2331  0.7504 -0.0206
  155SAPE   H6X17307   2.586   3.678   9.836  0.5717 -0.7375 -1.1213
  155SAPE   H6Y17308   2.737   3.706   9.748 -0.6293 -0.1687  0.1522
  155SAPE   C3717309   2.566   3.781   9.649 -0.1244 -0.3756  0.4986
  155SAPE   H7X17310   2.477   3.846   9.661  0.0582 -0.0976  0.3682
  155SAPE   H7Y17311   2.526   3.687   9.605 -0.1470 -0.2893  0.3297
  155SAPE   C3817312   2.668   3.836   9.542 -0.4266 -0.2108  0.6416
  155SAPE   H8X17313   2.769   3.790   9.545 -0.5809 -0.6075 -0.0125
  155SAPE   H8Y17314   2.679   3.944   9.566  0.9749 -0.4570  1.1864
  155SAPE   C3917315   2.617   3.824   9.392  0.3271 -0.4622 -0.3435
  155SAPE   H9X17316   2.506   3.817   9.390  0.2549  0.2071  0.6084
  155SAPE   H9Y17317   2.651   3.731   9.341  3.3655  1.4784 -2.2269
  155SAPE  C31017318   2.670   3.945   9.311 -1.1733  0.4724  0.2212
  155SAPE  H10X17319   2.781   3.951   9.302 -1.0427 -0.7720  0.8363
  155SAPE  H10Y17320   2.627   4.032   9.365 -0.9013  0.0088  1.2143
  155SAPE  C31117321   2.617   3.941   9.167  0.0453  0.1832  0.5967
  155SAPE  H11X17322   2.642   4.039   9.120 -0.4595 -0.4591 -1.0785
  155SAPE  H11Y17323   2.510   3.914   9.158  0.6187 -1.5612 -2.6154
  155SAPE  C31217324   2.697   3.844   9.078 -0.2439 -0.6013  1.0841
  155SAPE  H12X17325   2.700   3.745   9.130  0.2841 -1.7091 -0.9569
  155SAPE  H12Y17326   2.796   3.894   9.080 -0.4864 -0.1144  0.8481
  155SAPE  C31317327   2.644   3.816   8.933  0.0320 -1.4330 -0.1284
  155SAPE  H13X17328   2.730   3.775   8.876  0.3021  0.5227 -1.1965
  155SAPE  H13Y17329   2.636   3.915   8.883 -0.9336 -1.6990 -0.5204
  155SAPE  C31417330   2.508   3.748   8.921 -0.5635  0.0926  0.2239
  155SAPE  H14X17331   2.486   3.739   8.812  0.3930 -2.2740  0.1700
  155SAPE  H14Y17332   2.434   3.819   8.964 -1.0992  1.2556 -2.3849
  155SAPE  C31517333   2.503   3.606   8.992 -0.2825 -0.0915  0.5928
  155SAPE  H15X17334   2.400   3.567   9.008  0.5272 -1.2426  3.8486
  155SAPE  H15Y17335   2.542   3.618   9.096  1.7511  1.3074 -0.2731
  155SAPE  C31617336   2.579   3.506   8.906 -0.0215 -0.0175  0.2476
  155SAPE  H16X17337   2.685   3.539   8.902  0.0958 -0.1379  1.7842
  155SAPE  H16Y17338   2.537   3.506   8.803  1.9924  0.4921 -0.6266
  155SAPE  C31717339   2.572   3.366   8.964 -0.8227  0.4488 -0.0582
  155SAPE  H17X17340   2.471   3.322   8.974  0.2035 -2.3525 -0.9101
  155SAPE  H17Y17341   2.614   3.369   9.067 -3.0743  0.5170  0.9156
  155SAPE  C31817342   2.655   3.269   8.882  0.8520 -0.0960 -0.1818
  155SAPE  H18X17343   2.626   3.177   8.936 -2.4504  2.1578  2.2619
  155SAPE  H18Y17344   2.763   3.291   8.886  0.5773  1.1601  2.6542
  155SAPE  H18Z17345   2.613   3.261   8.779 -0.0110 -1.0844  0.2203
  156SAPE     N17346   0.317   3.900  10.681 -0.2609 -0.7745 -0.2945
  156SAPE   HN117347   0.385   3.974  10.709  0.8468 -2.0297  0.4510
  156SAPE   HN217348   0.262   3.935  10.600 -0.2536 -1.1321 -0.4533
  156SAPE   HN317349   0.248   3.879  10.756 -2.9579 -0.3636 -2.4765
  156SAPE   C1217350   0.400   3.778  10.649  0.2451 -0.0493 -0.2747
  156SAPE  H12A17351   0.335   3.714  10.585  1.2918 -0.2587 -1.1611
  156SAPE  H12B17352   0.436   3.719  10.737  0.3647  0.4393  0.0057
  156SAPE   C1117353   0.525   3.819  10.571 -0.2399  0.3518  0.4022
  156SAPE  H11A17354   0.486   3.874  10.483  1.4377  1.0296  0.0467
  156SAPE  H11B17355   0.573   3.722  10.545  0.0782  0.6010  0.0473
  156SAPE     P17356   0.753   3.956  10.625  0.2054  0.0954  0.0547
  156SAPE   O1317357   0.745   4.104  10.621  0.6644 -0.1749  0.1784
  156SAPE   O1417358   0.828   3.893  10.733  0.1482 -0.2134 -0.2530
  156SAPE   O1217359   0.604   3.911  10.652 -0.5105  0.1554  0.3132
  156SAPE   O1117360   0.791   3.886  10.487  0.2754  0.2345  0.2234
  156SAPE    C117361   0.849   3.758  10.477 -0.5738  0.4358  0.3472
  156SAPE    HA17362   0.950   3.760  10.522  0.4985  0.7322 -1.9311
  156SAPE    HB17363   0.789   3.678  10.527  1.4717 -0.4462  1.4888
  156SAPE    C217364   0.861   3.705  10.327 -0.1806 -0.4525 -1.0564
  156SAPE    HS17365   0.917   3.609  10.338 -1.0997 -0.9351 -0.4935
  156SAPE   O2117366   0.933   3.813  10.259 -0.3074  0.9050 -0.1507
  156SAPE   C2117367   1.059   3.819  10.284  0.3137 -0.5192 -0.1604
  156SAPE   O2217368   1.128   3.741  10.348  0.5111 -0.0943  0.6427
  156SAPE   C2217369   1.124   3.945  10.221 -0.5478 -0.4157  0.2183
  156SAPE   H2R17370   1.075   4.037  10.258  0.2665 -0.0975  0.5301
  156SAPE   H2S17371   1.232   3.949  10.248 -0.7830  1.0912  1.0100
  156SAPE    C317372   0.730   3.663  10.249 -0.2141  0.1945 -0.2819
  156SAPE    HX17373   0.664   3.752  10.248 -0.1487  0.2445 -0.0580
  156SAPE    HY17374   0.675   3.582  10.302  0.2998  1.1632  1.8145
  156SAPE   O3117375   0.771   3.617  10.123 -0.2775 -0.1100  0.4006
  156SAPE   C3117376   0.773   3.703  10.021  0.2560 -0.6224 -0.4954
  156SAPE   O3217377   0.737   3.822  10.030  0.4702  0.5094  0.0096
  156SAPE   C3217378   0.814   3.635   9.895 -0.5415 -0.2256  0.1180
  156SAPE   H2X17379   0.824   3.531   9.932  0.8106  0.4592  1.8621
  156SAPE   H2Y17380   0.917   3.665   9.867 -1.1646  1.1527 -0.8582
  156SAPE   C2317381   1.105   3.944  10.065 -0.2364 -0.8835  0.2764
  156SAPE   H3R17382   1.168   4.028  10.029 -1.5589  0.7533  1.5985
  156SAPE   H3S17383   0.999   3.972  10.048 -0.9449 -3.2638  0.4338
  156SAPE   C2417384   1.151   3.817   9.999  0.0964  0.1335  0.1221
  156SAPE   H4R17385   1.114   3.806   9.895  1.3863  1.0727 -0.4550
  156SAPE   H4S17386   1.099   3.733  10.051 -1.3577 -0.9988 -2.9250
  156SAPE   C2517387   1.299   3.815   9.993 -0.4048  0.4478 -0.4695
  156SAPE   H5R17388   1.356   3.813  10.087  2.2442 -0.0155 -1.9861
  156SAPE   C2617389   1.370   3.803   9.881  0.0881 -0.3815  0.6217
  156SAPE   H6R17390   1.479   3.819   9.889  0.1577  1.3299 -2.3445
  156SAPE   C2717391   1.316   3.789   9.741 -0.5531  0.3871  0.4375
  156SAPE   H7R17392   1.210   3.820   9.737 -0.1990  1.6692  0.4470
  156SAPE   H7S17393   1.324   3.680   9.722  0.0680  0.7906 -1.9055
  156SAPE   C2817394   1.390   3.865   9.636  0.1266  0.1568 -0.1646
  156SAPE   H8R17395   1.476   3.926   9.667  0.5389 -0.7147  0.4637
  156SAPE   C2917396   1.365   3.860   9.504 -0.1125  0.3277  0.1387
  156SAPE   H9R17397   1.428   3.923   9.440 -1.0764  0.9189 -0.2463
  156SAPE  C21017398   1.260   3.769   9.430 -0.0133  0.2317 -0.3047
  156SAPE  H10R17399   1.178   3.841   9.409 -0.2030  0.3552  0.7693
  156SAPE  H10S17400   1.223   3.686   9.494  1.2956 -0.8290 -0.8768
  156SAPE  C21117401   1.307   3.725   9.293 -0.3073  0.5982  0.7740
  156SAPE  H11R17402   1.417   3.721   9.285 -0.4375 -0.6611 -0.8595
  156SAPE  C21217403   1.233   3.684   9.187 -0.0040  0.7147 -0.2729
  156SAPE  H12R17404   1.292   3.656   9.099 -1.1623 -1.9559 -0.2891
  156SAPE  C21317405   1.076   3.683   9.194 -0.7047  0.2491 -0.2723
  156SAPE  H13R17406   1.051   3.785   9.159 -0.9402  0.0319 -0.7395
  156SAPE  H13S17407   1.047   3.677   9.301  0.1953 -0.9450 -0.0788
  156SAPE  C21417408   1.019   3.573   9.106  0.0471 -0.3647  0.6332
  156SAPE  H14R17409   0.995   3.485   9.168 -0.1138  1.8628  3.9701
  156SAPE  C21517410   0.989   3.577   8.973 -0.5979  0.4336 -0.1686
  156SAPE  H15R17411   0.959   3.481   8.927  2.9811  0.1590 -2.3419
  156SAPE  C21617412   1.014   3.695   8.887  0.4158 -0.0633  0.6313
  156SAPE  H16R17413   1.105   3.669   8.830 -0.7781 -0.0664 -1.3891
  156SAPE  H16S17414   1.035   3.790   8.940 -3.3560  1.9073 -1.0467
  156SAPE  C21717415   0.895   3.716   8.786  0.1386  0.0996  0.3225
  156SAPE  H17R17416   0.884   3.616   8.739  0.7151  0.6463 -1.0289
  156SAPE  H17S17417   0.924   3.795   8.714  0.6118  0.6677  1.1123
  156SAPE  C21817418   0.757   3.762   8.848 -0.1163  0.1222  0.3076
  156SAPE  H18R17419   0.770   3.867   8.882 -0.1324  0.3035 -0.2424
  156SAPE  H18S17420   0.732   3.692   8.930 -1.5393 -1.6661 -1.5531
  156SAPE  C21917421   0.647   3.750   8.749  0.4741  0.3710  0.0016
  156SAPE  H19R17422   0.631   3.642   8.725  1.8061 -0.3278  2.0420
  156SAPE  H19S17423   0.677   3.795   8.653  0.1696  0.5744 -0.0006
  156SAPE  C22017424   0.513   3.815   8.803  0.8357  0.1017 -0.0783
  156SAPE  H20R17425   0.527   3.918   8.842 -1.6763  0.5574 -0.2473
  156SAPE  H20S17426   0.481   3.745   8.883 -0.6285 -0.2498 -0.9536
  156SAPE  H20T17427   0.436   3.802   8.725  0.8329 -4.2948  0.4242
  156SAPE   C3317428   0.706   3.650   9.785  0.2624 -0.7865  0.3979
  156SAPE   H3X17429   0.686   3.757   9.763  2.5437 -0.3562  0.1040
  156SAPE   H3Y17430   0.616   3.593   9.815 -0.9581 -0.3534 -2.1600
  156SAPE   C3417431   0.755   3.585   9.655  0.2963 -0.5121  0.5198
  156SAPE   H4X17432   0.767   3.475   9.650  1.0071 -0.3959 -0.8851
  156SAPE   H4Y17433   0.856   3.627   9.636  0.1448 -0.4016 -0.0583
  156SAPE   C3517434   0.665   3.623   9.529  0.6687 -0.0706 -0.3238
  156SAPE   H5X17435   0.666   3.734   9.532 -0.3211 -0.0664  1.1210
  156SAPE   H5Y17436   0.558   3.596   9.544  0.3135  0.8689 -1.0639
  156SAPE   C3617437   0.711   3.578   9.390  0.3834 -0.4572 -0.1291
  156SAPE   H6X17438   0.767   3.482   9.385  0.2963 -0.5253  0.1963
  156SAPE   H6Y17439   0.783   3.645   9.338 -0.8695  0.4973 -0.6792
  156SAPE   C3717440   0.596   3.569   9.298  0.1461  0.6792  0.6209
  156SAPE   H7X17441   0.543   3.666   9.310  0.8655  1.0988  0.4007
  156SAPE   H7Y17442   0.530   3.483   9.327  0.6860 -0.1584 -0.5514
  156SAPE   C3817443   0.617   3.561   9.149 -0.5709  0.3705 -0.2877
  156SAPE   H8X17444   0.704   3.624   9.120  0.3910 -1.3080 -1.2351
  156SAPE   H8Y17445   0.535   3.599   9.084  1.2416  3.6489 -0.8844
  156SAPE   C3917446   0.641   3.431   9.071 -0.2416  0.2522  0.2733
  156SAPE   H9X17447   0.719   3.364   9.114 -0.7684  0.2159  1.1931
  156SAPE   H9Y17448   0.663   3.454   8.964 -1.2096 -0.3970 -0.0751
  156SAPE  C31017449   0.514   3.342   9.060  0.0739 -0.2167  0.4636
  156SAPE  H10X17450   0.474   3.361   9.162 -2.0835 -0.3027 -0.3176
  156SAPE  H10Y17451   0.543   3.240   9.028 -0.2975 -0.9648  2.3791
  156SAPE  C31117452   0.405   3.394   8.954  0.0394 -0.5097  0.1428
  156SAPE  H11X17453   0.380   3.503   8.951 -0.4745 -0.6296 -0.1816
  156SAPE  H11Y17454   0.314   3.336   8.978  0.9180 -1.6804  0.7088
  156SAPE  C31217455   0.442   3.364   8.811 -0.1636  0.5172  0.0307
  156SAPE  H12X17456   0.470   3.257   8.795  0.3019  0.7383 -0.6964
  156SAPE  H12Y17457   0.543   3.407   8.795  1.5614 -1.8617  3.1958
  156SAPE  C31317458   0.353   3.414   8.690 -0.8019 -0.2308  0.4509
  156SAPE  H13X17459   0.393   3.364   8.599 -2.2156  0.5016 -0.5989
  156SAPE  H13Y17460   0.374   3.523   8.692 -0.4738 -0.2658 -0.5478
  156SAPE  C31417461   0.205   3.373   8.708  0.3902 -0.1348 -0.1324
  156SAPE  H14X17462   0.165   3.430   8.795  1.7234 -0.2149  0.5468
  156SAPE  H14Y17463   0.209   3.263   8.722  0.2701 -0.1349 -0.0899
  156SAPE  C31517464   0.121   3.405   8.582  0.0801 -0.3742  0.1004
  156SAPE  H15X17465   0.026   3.349   8.593  0.4604 -1.0189  0.1240
  156SAPE  H15Y17466   0.181   3.367   8.497  0.1859 -1.8828  0.8085
  156SAPE  C31617467   0.092   3.560   8.547  0.4982 -0.0315  0.0528
  156SAPE  H16X17468   0.194   3.600   8.562  0.3446 -0.0380  1.2683
  156SAPE  H16Y17469   0.019   3.593   8.625  2.2423 -0.3068  1.9012
  156SAPE  C31717470   0.027   3.567   8.406  0.2554  0.2198 -0.3094
  156SAPE  H17X17471   0.080   3.512   8.326  0.6298  0.5877 -0.3178
  156SAPE  H17Y17472   0.029   3.669   8.363  0.0388 -0.2559 -1.4705
  156SAPE  C31817473  -0.118   3.515   8.412 -0.5387  0.1056 -0.4039
  156SAPE  H18X17474  -0.165   3.534   8.313 -0.5048 -1.0550 -0.6571
  156SAPE  H18Y17475  -0.175   3.558   8.496 -1.8896  0.7828 -1.6142
  156SAPE  H18Z17476  -0.115   3.405   8.428 -0.2461  0.2314  0.4572
  157SAPE     N17477   6.156   3.540  10.883  0.1432  0.0006  0.1629
  157SAPE   HN117478   6.139   3.442  10.850  1.0341  0.2962 -1.2560
  157SAPE   HN217479   6.110   3.561  10.974 -1.7814  2.0015 -1.1745
  157SAPE   HN317480   6.129   3.614  10.815 -0.0884  0.5862  0.8817
  157SAPE   C1217481   6.298   3.560  10.906 -0.3459  0.2855 -0.8163
  157SAPE  H12A17482   6.324   3.514  11.003 -0.1061  0.1008 -0.9673
  157SAPE  H12B17483   6.315   3.669  10.918 -0.3034  0.3676 -1.5447
  157SAPE   C1117484   6.375   3.509  10.782 -0.6911  0.0288 -0.9628
  157SAPE  H11A17485   6.362   3.400  10.763 -0.1271 -0.1606 -0.3281
  157SAPE  H11B17486   6.480   3.526  10.813 -0.9419  0.3064 -0.2537
  157SAPE     P17487   6.424   3.669  10.577 -0.0387 -0.0318  0.2736
  157SAPE   O1317488   6.382   3.814  10.580 -0.5906  0.8410  0.1747
  157SAPE   O1417489   6.566   3.634  10.596  0.1263 -0.5904  0.6219
  157SAPE   O1217490   6.336   3.583  10.673 -0.3036  0.6051 -0.3600
  157SAPE   O1117491   6.392   3.617  10.436 -0.2762 -0.4203 -0.5150
  157SAPE    C117492   6.409   3.490  10.377 -0.0687 -0.6767 -0.1285
  157SAPE    HA17493   6.467   3.502  10.283 -0.7675 -0.2688 -0.5115
  157SAPE    HB17494   6.471   3.421  10.439 -2.4362  0.4438  3.9075
  157SAPE    C217495   6.283   3.400  10.355  0.9176 -0.3381  0.8770
  157SAPE    HS17496   6.307   3.314  10.290  0.8448 -2.4975  3.5321
  157SAPE   O2117497   6.184   3.486  10.296 -0.1409  0.2054 -0.3210
  157SAPE   C2117498   6.210   3.510  10.170  0.5442  0.1163  0.0009
  157SAPE   O2217499   6.300   3.470  10.102  0.1241 -0.1361  0.1767
  157SAPE   C2217500   6.093   3.600  10.112  0.6364 -0.1386  0.2713
  157SAPE   H2R17501   5.994   3.560  10.142  0.4054 -0.9015 -1.3595
  157SAPE   H2S17502   6.096   3.701  10.158 -1.1818 -0.9715  2.3687
  157SAPE    C317503   6.217   3.339  10.480 -0.0648 -0.3792 -0.2884
  157SAPE    HX17504   6.196   3.421  10.552  2.2279 -0.2065  0.2768
  157SAPE    HY17505   6.297   3.274  10.522 -1.3472 -1.9215 -0.1832
  157SAPE   O3117506   6.102   3.259  10.464 -0.2413  0.5557 -0.2361
  157SAPE   C3117507   5.988   3.294  10.513 -0.4175  0.8105  0.0477
  157SAPE   O3217508   5.965   3.399  10.565 -0.0805  0.0186  0.4393
  157SAPE   C3217509   5.879   3.186  10.485  0.4757 -0.6353 -0.1930
  157SAPE   H2X17510   5.875   3.130  10.580 -1.0822  0.6472  0.5562
  157SAPE   H2Y17511   5.920   3.122  10.404  1.8055 -2.4745  1.8453
  157SAPE   C2317512   6.096   3.611   9.955  0.1776  0.5852  0.2593
  157SAPE   H3R17513   6.088   3.517   9.898 -2.4191  2.0070 -1.9452
  157SAPE   H3S17514   6.195   3.652   9.925  0.1188  1.2318  0.8973
  157SAPE   C2417515   5.980   3.694   9.899  0.2706 -0.4092  0.7720
  157SAPE   H4R17516   5.891   3.680   9.965 -0.6025 -0.9593 -0.4758
  157SAPE   H4S17517   5.954   3.655   9.798  1.2171  2.2405 -0.5643
  157SAPE   C2517518   6.013   3.843   9.907  0.0357  0.0879  0.0230
  157SAPE   H5R17519   5.998   3.882  10.008 -1.4991  1.4521 -0.6840
  157SAPE   C2617520   6.041   3.926   9.806  0.1829  0.3429 -0.8824
  157SAPE   H6R17521   6.073   4.024   9.844 -2.9637  0.7700  1.0143
  157SAPE   C2717522   6.042   3.897   9.661 -0.1520 -0.0140  0.7229
  157SAPE   H7R17523   6.033   3.997   9.616 -0.8123  0.5203  1.9756
  157SAPE   H7S17524   5.947   3.842   9.641  0.7168 -1.3054  0.0077
  157SAPE   C2817525   6.161   3.822   9.612 -0.7406 -0.8453 -0.6240
  157SAPE   H8R17526   6.223   3.791   9.698 -0.1043  3.2967  0.6251
  157SAPE   C2917527   6.197   3.814   9.484 -1.1002 -0.0159 -0.4075
  157SAPE   H9R17528   6.293   3.773   9.450 -1.0323 -0.7753  0.6481
  157SAPE  C21017529   6.116   3.860   9.366 -0.0334  0.1281 -0.2222
  157SAPE  H10R17530   6.176   3.893   9.279  1.1476  1.3979  1.0210
  157SAPE  H10S17531   6.066   3.950   9.406  1.1187  0.9333 -0.5370
  157SAPE  C21117532   6.012   3.765   9.311  0.1247 -0.7775 -0.2523
  157SAPE  H11R17533   5.994   3.671   9.365 -0.9877  0.6871  2.0595
  157SAPE  C21217534   5.938   3.789   9.199  0.3267 -0.5545 -0.4945
  157SAPE  H12R17535   5.864   3.712   9.170  0.7948 -0.1681 -2.9307
  157SAPE  C21317536   5.946   3.916   9.104  0.4739  0.4216 -0.9998
  157SAPE  H13R17537   6.042   3.907   9.049 -0.0352 -1.9279 -1.6133
  157SAPE  H13S17538   5.937   4.012   9.160  0.4440 -0.3595  0.3842
  157SAPE  C21417539   5.831   3.911   8.995 -0.4157  0.2014  0.2643
  157SAPE  H14R17540   5.737   3.959   9.025  0.7070  2.6410  0.1680
  157SAPE  C21517541   5.843   3.855   8.874  0.6539 -0.3557  0.3230
  157SAPE  H15R17542   5.752   3.838   8.814  1.3306 -0.1599 -0.7897
  157SAPE  C21617543   5.961   3.779   8.818  0.7799 -0.8495  0.0825
  157SAPE  H16R17544   5.927   3.677   8.788 -2.6326  0.3903 -0.7235
  157SAPE  H16S17545   6.033   3.760   8.901 -0.0018  0.2536  1.0403
  157SAPE  C21717546   6.019   3.866   8.706 -0.2468  0.0095  0.4912
  157SAPE  H17R17547   6.073   3.953   8.750 -0.4499  1.3370 -1.7511
  157SAPE  H17S17548   5.940   3.896   8.635 -2.4536  0.8614  3.1478
  157SAPE  C21817549   6.133   3.795   8.630 -0.0763 -0.2749  0.1599
  157SAPE  H18R17550   6.194   3.732   8.699  0.2413  0.9140  0.9931
  157SAPE  H18S17551   6.204   3.864   8.580 -0.1113 -2.5742 -3.4279
  157SAPE  C21917552   6.072   3.711   8.511  0.0965 -0.2980  0.0091
  157SAPE  H19R17553   6.027   3.784   8.441  1.5542  0.0631 -0.5756
  157SAPE  H19S17554   5.992   3.646   8.552  1.4289 -2.9853 -1.3754
  157SAPE  C22017555   6.185   3.634   8.427  0.3064  0.0254 -0.3801
  157SAPE  H20R17556   6.232   3.706   8.357 -0.0342 -0.7008 -1.3776
  157SAPE  H20S17557   6.139   3.554   8.365  1.5949 -0.7296 -0.3791
  157SAPE  H20T17558   6.259   3.587   8.495  1.1446  0.7013 -0.8168
  157SAPE   C3317559   5.735   3.236  10.472  0.5249  0.2388 -0.6624
  157SAPE   H3X17560   5.716   3.301  10.559 -1.6202  0.8487 -1.5252
  157SAPE   H3Y17561   5.661   3.154  10.466 -1.1514  1.7424 -1.8648
  157SAPE   C3417562   5.726   3.329  10.349  1.0583  0.2906 -0.3676
  157SAPE   H4X17563   5.754   3.431  10.383  1.3443  0.3011 -0.6350
  157SAPE   H4Y17564   5.619   3.344  10.324  1.4156  1.7658 -1.1153
  157SAPE   C3517565   5.791   3.290  10.219 -0.1625  0.6455  0.8632
  157SAPE   H5X17566   5.768   3.182  10.208 -1.0088  0.6701  2.1591
  157SAPE   H5Y17567   5.900   3.310  10.220 -0.2090  1.0049  0.0341
  157SAPE   C3617568   5.726   3.360  10.099 -0.6143 -0.0306 -0.2481
  157SAPE   H6X17569   5.743   3.469  10.111 -1.8925  0.7074 -3.7368
  157SAPE   H6Y17570   5.617   3.338  10.098 -0.1416 -2.7104 -0.2705
  157SAPE   C3717571   5.789   3.329   9.959 -0.0981  0.4187 -0.2991
  157SAPE   H7X17572   5.754   3.224   9.949 -1.9393  1.1554 -2.2794
  157SAPE   H7Y17573   5.898   3.344   9.947 -0.1831 -0.2962 -2.3675
  157SAPE   C3817574   5.711   3.396   9.852  0.5019  0.0618  0.1879
  157SAPE   H8X17575   5.728   3.505   9.865 -1.7673  0.3047  1.6281
  157SAPE   H8Y17576   5.603   3.373   9.856  0.1046  1.6148 -0.5597
  157SAPE   C3917577   5.757   3.357   9.712  0.5401  0.3062 -0.0301
  157SAPE   H9X17578   5.719   3.260   9.671 -2.7613  2.0911 -1.6257
  157SAPE   H9Y17579   5.868   3.357   9.711  0.5366  0.7664 -0.6818
  157SAPE  C31017580   5.697   3.453   9.602  0.1461  0.1900  0.1066
  157SAPE  H10X17581   5.688   3.554   9.646 -0.2160  0.3621 -0.3562
  157SAPE  H10Y17582   5.597   3.412   9.578  0.2208  0.8184 -1.3621
  157SAPE  C31117583   5.787   3.466   9.475  0.6196 -0.0259 -0.8216
  157SAPE  H11X17584   5.877   3.526   9.501 -1.4098  2.7263  0.4489
  157SAPE  H11Y17585   5.733   3.539   9.410  1.8946 -0.2677 -2.2057
  157SAPE  C31217586   5.837   3.341   9.406  0.5197  0.4566 -0.1668
  157SAPE  H12X17587   5.740   3.286   9.397  0.4884  0.4562  0.1599
  157SAPE  H12Y17588   5.907   3.280   9.467  1.1876  0.5806 -0.7909
  157SAPE  C31317589   5.900   3.367   9.271 -1.1578  0.3944  0.3469
  157SAPE  H13X17590   5.953   3.273   9.245  0.0695  0.8782  1.0227
  157SAPE  H13Y17591   5.988   3.433   9.286  0.6993 -1.4922 -1.4745
  157SAPE  C31417592   5.799   3.411   9.163 -0.1401  0.6400  0.3688
  157SAPE  H14X17593   5.778   3.518   9.183  0.2937  0.3461  2.6652
  157SAPE  H14Y17594   5.713   3.341   9.171  1.6502 -1.7547  0.1504
  157SAPE  C31517595   5.854   3.402   9.016 -0.5983  0.6666 -0.4711
  157SAPE  H15X17596   5.900   3.301   9.005 -0.4943  0.6766 -0.1212
  157SAPE  H15Y17597   5.932   3.481   9.006  0.6760 -0.4641  0.2163
  157SAPE  C31617598   5.746   3.421   8.913  0.4576  0.7706  1.1836
  157SAPE  H16X17599   5.727   3.530   8.904  1.8056  0.9334  0.0119
  157SAPE  H16Y17600   5.652   3.369   8.942 -0.9299  2.5749  0.1487
  157SAPE  C31717601   5.789   3.376   8.769  0.0666 -0.7080 -0.4558
  157SAPE  H17X17602   5.774   3.266   8.760  2.8176 -1.0818 -1.4788
  157SAPE  H17Y17603   5.899   3.391   8.777  0.2381 -2.4979  1.5878
  157SAPE  C31817604   5.724   3.456   8.649  0.2877  0.1252 -0.0625
  157SAPE  H18X17605   5.752   3.562   8.663  1.1170 -0.0137 -0.6039
  157SAPE  H18Y17606   5.613   3.445   8.651 -0.1168  2.9438 -1.6801
  157SAPE  H18Z17607   5.760   3.413   8.553 -0.9491 -2.0044  0.3450
  158SAPE     N17608   1.092   3.898  10.814 -0.1760  0.0876  0.6092
  158SAPE   HN117609   1.144   3.835  10.879 -0.1169  1.7211  2.2391
  158SAPE   HN217610   1.072   3.995  10.847  1.3049  1.3693 -1.9436
  158SAPE   HN317611   0.998   3.861  10.789 -0.2424 -0.0378  1.0338
  158SAPE   C1217612   1.182   3.900  10.697 -0.7692  0.0868  0.6017
  158SAPE  H12A17613   1.173   3.800  10.648 -4.8730  1.5858 -2.2889
  158SAPE  H12B17614   1.287   3.906  10.731 -0.4927 -1.8216  0.1908
  158SAPE   C1117615   1.143   4.001  10.589 -0.6507 -0.1572  0.0596
  158SAPE  H11A17616   1.042   3.974  10.551 -0.7917 -0.0790  0.3792
  158SAPE  H11B17617   1.214   3.993  10.504  0.4836 -1.6424  1.0886
  158SAPE     P17618   1.257   4.241  10.628 -0.4960  0.1695  0.7015
  158SAPE   O1317619   1.226   4.376  10.676 -0.7443  0.1187 -0.1282
  158SAPE   O1417620   1.384   4.179  10.668  0.1805 -0.1612  1.1043
  158SAPE   O1217621   1.142   4.138  10.648  0.4951 -0.2108  0.1378
  158SAPE   O1117622   1.264   4.237  10.460 -0.1183  0.1891  0.0962
  158SAPE    C117623   1.146   4.292  10.404  0.4993 -0.2689  0.3387
  158SAPE    HA17624   1.064   4.218  10.392 -2.0528  2.3247  0.7220
  158SAPE    HB17625   1.105   4.386  10.447 -0.7388 -1.2477  1.4015
  158SAPE    C217626   1.180   4.341  10.257  0.4928  0.3569  0.4026
  158SAPE    HS17627   1.194   4.451  10.247  1.2517  0.2083 -0.2856
  158SAPE   O2117628   1.080   4.304  10.163 -0.1322 -0.3712  0.0919
  158SAPE   C2117629   0.979   4.392  10.160 -0.3293 -0.2867  1.4194
  158SAPE   O2217630   0.959   4.481  10.236 -0.3556 -0.4878  0.2268
  158SAPE   C2217631   0.891   4.359  10.035  0.2243  0.8383  0.5089
  158SAPE   H2R17632   0.855   4.254  10.040  0.5885  0.4693 -2.4951
  158SAPE   H2S17633   0.804   4.427  10.048 -0.6239 -0.5185  2.2810
  158SAPE    C317634   1.315   4.273  10.207 -0.0933 -0.3937  0.2015
  158SAPE    HX17635   1.281   4.167  10.207 -1.7293  0.0887 -0.5313
  158SAPE    HY17636   1.397   4.300  10.276 -0.7880 -2.2545  1.8648
  158SAPE   O3117637   1.339   4.322  10.070  0.1023 -0.4468 -0.3347
  158SAPE   C3117638   1.381   4.246   9.967  0.9431 -0.6010 -0.0796
  158SAPE   O3217639   1.422   4.133   9.983  0.1789 -0.2733  0.5178
  158SAPE   C3217640   1.354   4.327   9.846  0.1955  0.6103  0.0358
  158SAPE   H2X17641   1.445   4.383   9.816 -1.2386  2.2702 -1.4521
  158SAPE   H2Y17642   1.273   4.402   9.851 -0.1557  0.6323 -3.4120
  158SAPE   C2317643   0.954   4.369   9.900 -0.5713  0.1317 -0.2766
  158SAPE   H3R17644   1.030   4.288   9.908 -1.5832 -1.1213 -2.4695
  158SAPE   H3S17645   1.007   4.467   9.894  1.0983 -0.7284  0.0214
  158SAPE   C2417646   0.871   4.350   9.779  0.3613  0.6209 -0.3993
  158SAPE   H4R17647   0.927   4.357   9.683 -1.2275  1.0276 -1.3258
  158SAPE   H4S17648   0.797   4.434   9.779 -0.0752  0.2741  1.6361
  158SAPE   C2517649   0.798   4.215   9.792 -0.2221  0.4622 -0.1817
  158SAPE   H5R17650   0.735   4.203   9.881  0.3925 -0.9842  0.0850
  158SAPE   C2617651   0.808   4.106   9.711 -0.0668  0.0952  0.0186
  158SAPE   H6R17652   0.754   4.015   9.742 -0.8416  0.5550  0.0574
  158SAPE   C2717653   0.908   4.100   9.596  0.5337 -0.4447 -0.7674
  158SAPE   H7R17654   1.001   4.072   9.651 -0.1811  1.6851  1.7646
  158SAPE   H7S17655   0.932   4.195   9.544  1.6255 -1.1264 -1.5520
  158SAPE   C2817656   0.877   4.000   9.494  0.1141 -0.5322 -0.0179
  158SAPE   H8R17657   0.908   3.898   9.522  1.3002 -0.3199 -0.5161
  158SAPE   C2917658   0.846   4.020   9.361 -0.2888  0.3139  0.5363
  158SAPE   H9R17659   0.812   3.932   9.302  0.2276  0.2473  0.3314
  158SAPE  C21017660   0.823   4.159   9.303 -0.0483  0.0712 -0.3215
  158SAPE  H10R17661   0.813   4.151   9.193  2.0030 -1.5720 -0.4600
  158SAPE  H10S17662   0.919   4.213   9.322  0.6734 -1.1982 -0.2321
  158SAPE  C21117663   0.699   4.222   9.360 -0.0523 -0.1266 -0.4164
  158SAPE  H11R17664   0.720   4.274   9.455 -1.0170 -0.5226  0.0361
  158SAPE  C21217665   0.574   4.233   9.302 -0.4867 -0.3515 -0.6728
  158SAPE  H12R17666   0.497   4.294   9.352  1.3460  3.0455 -1.6986
  158SAPE  C21317667   0.536   4.175   9.165  0.8741 -0.2598  0.1190
  158SAPE  H13R17668   0.426   4.157   9.165  0.8518 -0.1568  0.7871
  158SAPE  H13S17669   0.586   4.081   9.137  2.2406  1.1465 -2.4809
  158SAPE  C21417670   0.559   4.272   9.056  0.6003  0.3432 -0.3502
  158SAPE  H14R17671   0.664   4.290   9.029  1.0792  0.0814  1.2295
  158SAPE  C21517672   0.463   4.314   8.967 -0.6756  0.0215 -0.2740
  158SAPE  H15R17673   0.497   4.376   8.883  2.6709 -0.5901  0.4658
  158SAPE  C21617674   0.315   4.278   8.963  0.6400  0.3660  0.4927
  158SAPE  H16R17675   0.256   4.365   8.927  2.7674  2.0408  0.8298
  158SAPE  H16S17676   0.278   4.234   9.058  1.2734 -1.0128  0.1278
  158SAPE  C21717677   0.279   4.159   8.874 -0.2740  0.1217  0.1053
  158SAPE  H17R17678   0.169   4.150   8.873 -0.1481 -1.9029 -0.4383
  158SAPE  H17S17679   0.329   4.070   8.918 -0.1576 -0.3728 -0.9891
  158SAPE  C21817680   0.313   4.158   8.726  0.5568  0.0119  0.4118
  158SAPE  H18R17681   0.423   4.171   8.720  0.4354  2.1643  1.8106
  158SAPE  H18S17682   0.268   4.249   8.681 -1.1282 -1.8027 -1.7744
  158SAPE  C21917683   0.269   4.045   8.635  0.6200  0.3829  0.1879
  158SAPE  H19R17684   0.164   4.067   8.605  0.4579 -1.9666 -1.2347
  158SAPE  H19S17685   0.282   3.954   8.696  0.8242  1.0435  1.1486
  158SAPE  C22017686   0.353   4.029   8.513 -0.0274 -0.8774 -0.6262
  158SAPE  H20R17687   0.351   4.121   8.450 -1.6660 -1.1356 -0.9888
  158SAPE  H20S17688   0.310   3.945   8.455  1.0748 -0.7295 -1.7009
  158SAPE  H20T17689   0.453   4.011   8.558 -0.6094 -3.0696 -0.1037
  158SAPE   C3317690   1.328   4.233   9.724 -0.0604  0.5188 -0.0686
  158SAPE   H3X17691   1.246   4.161   9.749  0.3988  0.1443  0.3799
  158SAPE   H3Y17692   1.419   4.171   9.710  0.0496  0.6481  0.0808
  158SAPE   C3417693   1.293   4.317   9.601 -0.0593  0.1307 -0.2104
  158SAPE   H4X17694   1.363   4.397   9.571 -0.5556  0.2152 -1.1690
  158SAPE   H4Y17695   1.200   4.373   9.624 -1.7119 -1.5788 -2.3722
  158SAPE   C3517696   1.265   4.229   9.478  0.2824 -0.4797  0.3589
  158SAPE   H5X17697   1.187   4.151   9.495  0.2964 -0.3461  1.0550
  158SAPE   H5Y17698   1.357   4.172   9.450 -1.4056 -2.8354 -0.7381
  158SAPE   C3617699   1.213   4.316   9.365  0.4616  0.4047 -0.2862
  158SAPE   H6X17700   1.285   4.401   9.357 -0.5727  1.0752 -5.1085
  158SAPE   H6Y17701   1.114   4.363   9.382 -1.9397 -3.3564 -2.7073
  158SAPE   C3717702   1.204   4.241   9.234  0.2139  0.1354 -0.0319
  158SAPE   H7X17703   1.162   4.139   9.244 -1.4969  0.8370  0.2561
  158SAPE   H7Y17704   1.307   4.230   9.193 -1.0339 -0.5111 -3.3629
  158SAPE   C3817705   1.124   4.310   9.130 -0.0902  0.5412 -0.3548
  158SAPE   H8X17706   1.136   4.421   9.131 -0.1004  0.5414  0.3107
  158SAPE   H8Y17707   1.016   4.293   9.146 -0.0104  0.7092  0.4223
  158SAPE   C3917708   1.154   4.246   8.989 -0.3995 -0.4216 -0.9992
  158SAPE   H9X17709   1.151   4.136   9.007 -1.6046  0.1589  3.7188
  158SAPE   H9Y17710   1.258   4.266   8.955 -0.0868 -1.9398 -1.0334
  158SAPE  C31017711   1.059   4.297   8.886  0.4886 -0.2120  1.0013
  158SAPE  H10X17712   1.096   4.278   8.782  1.6263  0.7147  1.2217
  158SAPE  H10Y17713   1.054   4.408   8.887  0.3817 -0.1605 -0.8131
  158SAPE  C31117714   0.917   4.235   8.876 -0.4999  0.0082 -0.0636
  158SAPE  H11X17715   0.872   4.274   8.970 -0.4784 -1.7344  0.7133
  158SAPE  H11Y17716   0.917   4.124   8.867  2.8538 -0.0036 -1.6876
  158SAPE  C31217717   0.832   4.293   8.758 -0.8897  0.0911 -0.3282
  158SAPE  H12X17718   0.850   4.402   8.747 -0.2135  0.4148  2.9683
  158SAPE  H12Y17719   0.725   4.275   8.781 -0.7970  0.4568  0.4099
  158SAPE  C31317720   0.859   4.220   8.623  0.2577  0.0487  0.1311
  158SAPE  H13X17721   0.965   4.227   8.590 -0.1485 -0.4767 -1.3352
  158SAPE  H13Y17722   0.784   4.260   8.552  0.0536 -0.3364  0.1299
  158SAPE  C31417723   0.830   4.072   8.611  0.4284  0.7485 -0.4761
  158SAPE  H14X17724   0.751   4.049   8.685  2.0694  2.1236  1.8287
  158SAPE  H14Y17725   0.921   4.013   8.631 -1.2915 -1.5775  1.0105
  158SAPE  C31517726   0.784   4.039   8.470 -0.4662 -0.1717  0.2557
  158SAPE  H15X17727   0.691   4.091   8.438 -1.0708 -0.5568  1.3673
  158SAPE  H15Y17728   0.759   3.932   8.450 -2.6139  0.4281 -0.5003
  158SAPE  C31617729   0.895   4.042   8.361 -0.4597  0.4871 -0.5718
  158SAPE  H16X17730   0.985   3.985   8.392 -0.4438  0.7385 -0.1484
  158SAPE  H16Y17731   0.915   4.151   8.360 -1.1410  0.6401 -2.6523
  158SAPE  C31717732   0.851   4.000   8.222  0.2287  0.0237 -0.3988
  158SAPE  H17X17733   0.751   4.044   8.204  0.6618  1.1646 -0.0372
  158SAPE  H17Y17734   0.847   3.889   8.216  0.6500 -0.0768  0.9852
  158SAPE  C31817735   0.952   4.044   8.117  0.2292  0.0369 -0.2936
  158SAPE  H18X17736   1.055   4.005   8.133  0.2017  0.1009  0.0369
  158SAPE  H18Y17737   0.954   4.155   8.122 -0.9143  0.1159 -1.1076
  158SAPE  H18Z17738   0.914   4.015   8.017 -3.0337  0.0767  0.8200
  159SAPE     N17739   1.371   6.697   6.463  0.3363 -0.7699  0.0988
  159SAPE   HN117740   1.330   6.768   6.399 -1.9529 -1.6439  0.4927
  159SAPE   HN217741   1.457   6.665   6.415  1.2048 -0.8538  1.6414
  159SAPE   HN317742   1.307   6.615   6.457 -1.2389  0.4421 -0.5376
  159SAPE   C1217743   1.388   6.735   6.608 -0.3196 -0.0856 -0.3061
  159SAPE  H12A17744   1.447   6.828   6.612  0.2675 -0.4615 -0.1108
  159SAPE  H12B17745   1.433   6.657   6.672 -2.9870 -1.8451 -0.3791
  159SAPE   C1117746   1.253   6.761   6.671 -0.0533  0.6990  0.7055
  159SAPE  H11A17747   1.263   6.823   6.762  3.4552 -0.1726  1.0654
  159SAPE  H11B17748   1.225   6.659   6.705  0.7949 -0.1045 -0.9037
  159SAPE     P17749   1.014   6.758   6.559  0.1080  0.5759  0.0945
  159SAPE   O1317750   0.949   6.822   6.446  0.4147  0.2250  0.0633
  159SAPE   O1417751   1.035   6.611   6.545  0.1941  1.0261  0.1855
  159SAPE   O1217752   1.157   6.827   6.590 -0.4082  0.1118 -0.3005
  159SAPE   O1117753   0.932   6.789   6.694  0.1772  0.4484 -0.2423
  159SAPE    C117754   0.935   6.927   6.739  0.4951  0.2065 -0.6803
  159SAPE    HA17755   1.039   6.954   6.765  0.0311  1.6684 -0.2617
  159SAPE    HB17756   0.900   6.986   6.652 -0.3508 -0.3563 -0.7420
  159SAPE    C217757   0.847   6.952   6.859 -0.0360  0.5084 -0.0342
  159SAPE    HS17758   0.744   6.914   6.842  0.7681 -1.6810 -0.4171
  159SAPE   O2117759   0.847   7.094   6.877  0.3851 -0.5762 -0.9573
  159SAPE   C2117760   0.751   7.127   6.960 -0.7702  0.6566  0.5776
  159SAPE   O2217761   0.678   7.048   7.010  0.6280  0.2660 -0.5486
  159SAPE   C2217762   0.748   7.273   6.995  0.6006  0.1552  0.4781
  159SAPE   H2R17763   0.787   7.332   6.910  2.0429 -1.0795  0.2372
  159SAPE   H2S17764   0.641   7.301   7.003 -0.0982 -2.2132  0.3387
  159SAPE    C317765   0.900   6.862   6.977  0.5714 -0.3080  0.5782
  159SAPE    HX17766   0.876   6.761   6.940  2.1892 -0.2167 -0.8351
  159SAPE    HY17767   0.844   6.892   7.069 -0.7048  2.5630 -1.0043
  159SAPE   O3117768   1.043   6.873   7.005  0.2298 -0.3374  0.2419
  159SAPE   C3117769   1.091   6.788   7.098  0.1428  0.5726  0.7290
  159SAPE   O3217770   1.021   6.714   7.167 -0.3119 -0.3986  0.1832
  159SAPE   C3217771   1.246   6.800   7.104 -0.7694 -0.3374 -0.5768
  159SAPE   H2X17772   1.270   6.909   7.103  1.3659 -0.7603 -1.7512
  159SAPE   H2Y17773   1.287   6.756   7.011  2.3731  0.2832  0.4129
  159SAPE   C2317774   0.820   7.301   7.125 -0.1639  0.6487 -0.2453
  159SAPE   H3R17775   0.798   7.404   7.162  2.3576  1.0690  0.2931
  159SAPE   H3S17776   0.926   7.280   7.098 -0.8854 -1.4586 -1.6337
  159SAPE   C2417777   0.781   7.207   7.247 -0.2359 -0.0158 -0.8115
  159SAPE   H4R17778   0.859   7.196   7.325  0.1308 -1.0908 -1.3155
  159SAPE   H4S17779   0.770   7.099   7.223  2.6685 -0.9520  1.4799
  159SAPE   C2517780   0.639   7.250   7.297  0.0548 -0.1998 -0.1102
  159SAPE   H5R17781   0.566   7.241   7.215  0.2121  0.2816 -0.3052
  159SAPE   C2617782   0.603   7.296   7.417 -0.5557 -1.0392 -0.4141
  159SAPE   H6R17783   0.502   7.338   7.425 -0.1132  0.0949 -0.6332
  159SAPE   C2717784   0.688   7.303   7.544  0.3916  0.1677  0.8893
  159SAPE   H7R17785   0.696   7.408   7.580 -3.3080  0.2931  1.7183
  159SAPE   H7S17786   0.791   7.273   7.517 -0.3632 -2.0113  0.2175
  159SAPE   C2817787   0.644   7.226   7.664  0.4249  0.0124  0.1755
  159SAPE   H8R17788   0.557   7.160   7.649  0.1242 -0.2631  2.7105
  159SAPE   C2917789   0.686   7.236   7.789 -0.1822 -0.6945  0.1182
  159SAPE   H9R17790   0.633   7.176   7.865 -2.1652 -0.3769 -0.9465
  159SAPE  C21017791   0.792   7.331   7.842 -0.1901 -0.1878  0.6773
  159SAPE  H10R17792   0.738   7.424   7.872 -1.1663  0.3151 -2.2710
  159SAPE  H10S17793   0.858   7.361   7.757  1.9059 -1.3435  1.8116
  159SAPE  C21117794   0.877   7.278   7.956  0.6792  0.5510 -0.2728
  159SAPE  H11R17795   0.978   7.242   7.935  0.0359 -0.5292 -1.6740
  159SAPE  C21217796   0.836   7.262   8.083  0.6523 -0.9659 -0.0466
  159SAPE  H12R17797   0.917   7.227   8.149  1.7740 -1.1328 -1.4346
  159SAPE  C21317798   0.699   7.295   8.142  0.1569 -0.6867 -0.2796
  159SAPE  H13R17799   0.618   7.276   8.068  0.7885  0.2476 -1.2271
  159SAPE  H13S17800   0.699   7.401   8.174  0.9468 -0.6893 -0.2501
  159SAPE  C21417801   0.672   7.210   8.265 -0.1026 -0.0074 -0.2618
  159SAPE  H14R17802   0.716   7.110   8.262 -0.8438 -0.3258 -1.0908
  159SAPE  C21517803   0.587   7.237   8.367 -0.4485 -0.3870 -0.1856
  159SAPE  H15R17804   0.586   7.161   8.447 -0.1511 -0.8934 -0.6526
  159SAPE  C21617805   0.509   7.362   8.388  0.3734 -0.3633  0.0288
  159SAPE  H16R17806   0.403   7.331   8.391  0.2564  0.0906  1.1188
  159SAPE  H16S17807   0.513   7.433   8.303 -0.4512 -1.5775 -1.0658
  159SAPE  C21717808   0.563   7.436   8.510  0.1879 -0.0966 -0.2210
  159SAPE  H17R17809   0.512   7.535   8.515  0.3082 -0.0701  0.5801
  159SAPE  H17S17810   0.673   7.445   8.499  0.2694 -1.0196 -0.2259
  159SAPE  C21817811   0.521   7.383   8.650  0.9112 -0.0928 -0.5391
  159SAPE  H18R17812   0.572   7.285   8.661  1.3364  0.2639  0.8900
  159SAPE  H18S17813   0.411   7.380   8.661  0.9760  1.4987  0.9863
  159SAPE  C21917814   0.565   7.470   8.759 -0.3795 -0.2213 -0.9944
  159SAPE  H19R17815   0.541   7.574   8.729 -1.7933 -0.5764 -1.1417
  159SAPE  H19S17816   0.675   7.453   8.759 -0.3067  0.1497 -2.1939
  159SAPE  C22017817   0.504   7.447   8.899  0.0271 -0.0059  0.1356
  159SAPE  H20R17818   0.545   7.358   8.951 -0.0577  1.0133  2.0375
  159SAPE  H20S17819   0.393   7.441   8.894 -0.0571  0.7806  0.8490
  159SAPE  H20T17820   0.538   7.525   8.971 -0.0568 -0.6584  0.8947
  159SAPE   C3317821   1.308   6.745   7.232  0.0195  0.3321  0.7285
  159SAPE   H3X17822   1.302   6.634   7.237 -0.1817  0.3987  2.5403
  159SAPE   H3Y17823   1.247   6.783   7.316  0.5395  1.4734  0.5998
  159SAPE   C3417824   1.449   6.801   7.260 -0.4479 -0.2682  0.0150
  159SAPE   H4X17825   1.438   6.911   7.271  0.5780 -0.1394 -0.1640
  159SAPE   H4Y17826   1.522   6.781   7.178  2.2811  1.8679  1.7885
  159SAPE   C3517827   1.499   6.747   7.394 -0.4025  0.3133 -0.1121
  159SAPE   H5X17828   1.609   6.758   7.404 -0.4257  0.6358 -0.1891
  159SAPE   H5Y17829   1.477   6.638   7.400 -0.5709  0.2687 -1.2995
  159SAPE   C3617830   1.419   6.816   7.513 -0.5957 -0.2495  0.2553
  159SAPE   H6X17831   1.318   6.769   7.512 -1.5547  1.6556 -1.8734
  159SAPE   H6Y17832   1.408   6.926   7.503 -3.0545 -0.3381  1.1586
  159SAPE   C3717833   1.492   6.790   7.644 -0.0247 -0.4417  0.1753
  159SAPE   H7X17834   1.593   6.833   7.632  0.2686 -0.9719  0.7085
  159SAPE   H7Y17835   1.498   6.679   7.634  1.4545 -0.3142 -0.5876
  159SAPE   C3817836   1.415   6.826   7.772 -0.2076  0.0791  0.2430
  159SAPE   H8X17837   1.318   6.773   7.780  0.1217 -0.4198  1.0117
  159SAPE   H8Y17838   1.398   6.936   7.774  0.0697  0.1467 -0.6679
  159SAPE   C3917839   1.485   6.786   7.899  0.2117  0.3788  0.0217
  159SAPE   H9X17840   1.592   6.816   7.896 -0.1011  1.5240 -0.5124
  159SAPE   H9Y17841   1.474   6.676   7.909 -1.8570  0.5244 -0.1300
  159SAPE  C31017842   1.428   6.853   8.023  0.4709  0.1661  0.1389
  159SAPE  H10X17843   1.319   6.829   8.020  0.9277 -2.8630  2.8254
  159SAPE  H10Y17844   1.434   6.963   8.006 -0.5555  0.1659 -0.3159
  159SAPE  C31117845   1.464   6.812   8.166 -0.3042 -0.5961 -0.2240
  159SAPE  H11X17846   1.575   6.807   8.177 -0.4635 -0.0893  2.3594
  159SAPE  H11Y17847   1.419   6.714   8.192  0.4433 -1.1899 -1.1039
  159SAPE  C31217848   1.428   6.924   8.270 -0.7749  0.4066  0.2100
  159SAPE  H12X17849   1.317   6.924   8.281 -0.7682  0.0863  0.2902
  159SAPE  H12Y17850   1.480   7.012   8.227 -0.6264 -1.3194 -3.5673
  159SAPE  C31317851   1.473   6.895   8.411 -0.4976  0.5655 -0.0509
  159SAPE  H13X17852   1.584   6.891   8.417 -0.5340 -1.4960  0.2217
  159SAPE  H13Y17853   1.448   6.791   8.441  1.5428  0.2736  0.7794
  159SAPE  C31417854   1.414   6.989   8.517 -0.4596 -0.1394  0.3652
  159SAPE  H14X17855   1.305   6.993   8.495 -0.1114  2.0701 -1.2783
  159SAPE  H14Y17856   1.454   7.089   8.493 -0.4306 -0.0319  0.8520
  159SAPE  C31517857   1.445   6.960   8.664  0.0272 -0.4231 -0.0284
  159SAPE  H15X17858   1.554   6.968   8.678  0.2095  0.0812 -1.5393
  159SAPE  H15Y17859   1.412   6.855   8.680 -0.0701 -0.2621  0.9261
  159SAPE  C31617860   1.363   7.044   8.770 -0.0014 -0.5543  0.1540
  159SAPE  H16X17861   1.421   7.049   8.865  1.1823 -1.4773 -0.4998
  159SAPE  H16Y17862   1.270   6.991   8.800 -0.1022  0.3491  1.5496
  159SAPE  C31717863   1.336   7.189   8.732 -0.0635 -0.1678  0.1830
  159SAPE  H17X17864   1.248   7.188   8.665 -0.1682 -1.7141  0.3066
  159SAPE  H17Y17865   1.425   7.228   8.678  2.0040 -3.3393  0.9968
  159SAPE  C31817866   1.327   7.267   8.860  0.0548  0.2209  0.5291
  159SAPE  H18X17867   1.301   7.375   8.850  0.8835  0.6876  2.7563
  159SAPE  H18Y17868   1.427   7.264   8.908  0.0875 -1.0842  0.4253
  159SAPE  H18Z17869   1.254   7.219   8.929  0.6636  1.4708  2.0988
  160SAPE     N17870   0.059   1.512   6.283 -0.0842  0.2321 -0.0302
  160SAPE   HN117871   0.109   1.578   6.221  0.3922 -1.1915 -1.2102
  160SAPE   HN217872   0.087   1.535   6.381  0.1024 -1.9950  0.5027
  160SAPE   HN317873   0.079   1.413   6.258 -3.5362 -0.8949  1.0582
  160SAPE   C1217874  -0.087   1.526   6.258  0.4627  0.4356  0.4186
  160SAPE  H12A17875  -0.105   1.453   6.177  0.7074 -1.6724  2.1850
  160SAPE  H12B17876  -0.110   1.623   6.208  0.4145 -0.3401 -1.1493
  160SAPE   C1117877  -0.178   1.486   6.378 -0.0697  0.5458 -0.2107
  160SAPE  H11A17878  -0.134   1.398   6.428  0.0273  0.3911 -0.5692
  160SAPE  H11B17879  -0.277   1.451   6.340 -0.1179  1.1888 -0.6861
  160SAPE     P17880  -0.100   1.652   6.569  0.0927  0.1330 -0.1079
  160SAPE   O1317881   0.034   1.602   6.528 -0.4365 -0.2828 -0.1097
  160SAPE   O1417882  -0.114   1.800   6.587  0.1571 -0.0438 -0.2118
  160SAPE   O1217883  -0.206   1.593   6.467  0.3145 -0.2263 -0.5110
  160SAPE   O1117884  -0.131   1.580   6.703 -0.3824  0.2430 -0.0196
  160SAPE    C117885  -0.263   1.536   6.723 -0.3839 -0.3946 -0.2878
  160SAPE    HA17886  -0.327   1.624   6.697 -0.1756 -0.5919 -1.5044
  160SAPE    HB17887  -0.287   1.450   6.657  1.5160 -0.3523 -1.0878
  160SAPE    C217888  -0.282   1.485   6.871  0.4632  0.4291  0.3300
  160SAPE    HS17889  -0.240   1.383   6.884 -1.4500 -0.4132  0.1882
  160SAPE   O2117890  -0.420   1.481   6.900  0.6495  0.1171 -0.3550
  160SAPE   C2117891  -0.477   1.372   6.860 -0.2639 -0.3726  0.1788
  160SAPE   O2217892  -0.422   1.280   6.798  0.7235  0.4104  0.3532
  160SAPE   C2217893  -0.622   1.372   6.920  0.1344 -0.2322 -0.9516
  160SAPE   H2R17894  -0.667   1.471   6.901 -0.1115 -0.2902 -0.6748
  160SAPE   H2S17895  -0.672   1.295   6.857 -0.2085 -0.1259 -0.8081
  160SAPE    C317896  -0.214   1.580   6.968  0.1537 -0.5302 -0.0995
  160SAPE    HX17897  -0.254   1.683   6.954 -2.0813 -1.4274 -0.8878
  160SAPE    HY17898  -0.106   1.593   6.945 -0.1059 -0.8932 -1.6511
  160SAPE   O3117899  -0.218   1.550   7.113  0.1915  0.7949  0.1516
  160SAPE   C3117900  -0.322   1.608   7.178 -0.3057 -0.2391 -1.2828
  160SAPE   O3217901  -0.408   1.684   7.133  0.0814  0.4880 -0.0203
  160SAPE   C3217902  -0.321   1.557   7.326 -0.7350 -0.2206  0.2470
  160SAPE   H2X17903  -0.216   1.578   7.357  0.0921  0.2375 -2.5719
  160SAPE   H2Y17904  -0.335   1.446   7.330  1.8375 -0.5777  1.9463
  160SAPE   C2317905  -0.625   1.324   7.072  0.6339  0.5384 -0.6731
  160SAPE   H3R17906  -0.564   1.383   7.143 -0.7701 -0.6126  1.6073
  160SAPE   H3S17907  -0.603   1.216   7.083 -0.8618  0.3631  1.0244
  160SAPE   C2417908  -0.772   1.335   7.119  0.4342  0.0530  0.6470
  160SAPE   H4R17909  -0.843   1.316   7.036 -0.1564 -0.0850  1.1713
  160SAPE   H4S17910  -0.795   1.441   7.141 -2.2820 -0.7060  1.9118
  160SAPE   C2517911  -0.828   1.237   7.222  0.4869  0.3700  0.2870
  160SAPE   H5R17912  -0.854   1.138   7.183 -0.7313 -0.3992  2.8026
  160SAPE   C2617913  -0.838   1.257   7.353  0.1630 -0.8012 -0.2420
  160SAPE   H6R17914  -0.884   1.180   7.416  1.0464 -1.0664  0.0891
  160SAPE   C2717915  -0.799   1.399   7.405 -0.2526  0.2807 -0.2372
  160SAPE   H7R17916  -0.858   1.482   7.361 -1.2893 -0.2902  0.0322
  160SAPE   H7S17917  -0.695   1.421   7.374  0.4088 -2.2231  0.0229
  160SAPE   C2817918  -0.803   1.414   7.551 -0.7123 -0.6272 -0.3656
  160SAPE   H8R17919  -0.719   1.376   7.610 -0.8515 -0.8902 -0.3350
  160SAPE   C2917920  -0.885   1.488   7.625 -0.1259  0.8319  0.2002
  160SAPE   H9R17921  -0.873   1.480   7.734  0.1968 -2.1560  0.0200
  160SAPE  C21017922  -1.000   1.568   7.571 -0.4244  0.1247  0.2198
  160SAPE  H10R17923  -1.096   1.514   7.582 -1.6170  2.0940 -0.1350
  160SAPE  H10S17924  -0.999   1.583   7.461  0.5150  2.2105  0.4520
  160SAPE  C21117925  -1.000   1.699   7.644  0.3561  0.3375 -0.2017
  160SAPE  H11R17926  -0.912   1.761   7.621 -0.6588  1.2481 -1.8638
  160SAPE  C21217927  -1.097   1.745   7.718  0.2397  0.5521  0.9409
  160SAPE  H12R17928  -1.092   1.849   7.755 -1.1220  1.6707 -1.7375
  160SAPE  C21317929  -1.229   1.675   7.757 -0.0244 -0.2477 -0.4785
  160SAPE  H13R17930  -1.200   1.576   7.798  3.0120  0.5446 -0.4603
  160SAPE  H13S17931  -1.290   1.655   7.667 -1.8450 -1.9562  1.0477
  160SAPE  C21417932  -1.305   1.745   7.860 -0.0909 -0.6418 -0.1187
  160SAPE  H14R17933  -1.361   1.834   7.829  2.0609  1.6236  2.0757
  160SAPE  C21517934  -1.304   1.722   7.993  0.1488  0.3186  0.2196
  160SAPE  H15R17935  -1.364   1.789   8.056  0.2276 -1.4653  2.3299
  160SAPE  C21617936  -1.218   1.628   8.063  0.2538 -0.2110  0.0443
  160SAPE  H16R17937  -1.123   1.601   8.012  1.0245 -0.5823  1.5914
  160SAPE  H16S17938  -1.268   1.529   8.061 -0.3093  0.0514 -3.2244
  160SAPE  C21717939  -1.178   1.682   8.205 -0.2240 -0.5985 -0.0672
  160SAPE  H17R17940  -1.161   1.791   8.200 -0.4717 -0.6283 -2.7223
  160SAPE  H17S17941  -1.080   1.637   8.232 -0.4450 -0.1616  1.5991
  160SAPE  C21817942  -1.284   1.651   8.316  0.1088 -0.5975 -0.7703
  160SAPE  H18R17943  -1.267   1.550   8.359  0.6220  0.4842  1.7072
  160SAPE  H18S17944  -1.388   1.644   8.277 -1.1756 -1.8121  2.4814
  160SAPE  C21917945  -1.279   1.753   8.428  0.6392  0.5014 -0.0816
  160SAPE  H19R17946  -1.356   1.736   8.506 -0.1558  1.1946 -0.6890
  160SAPE  H19S17947  -1.324   1.849   8.396 -0.4464  0.1206  0.2598
  160SAPE  C22017948  -1.145   1.764   8.495  0.3469 -1.0451  0.1361
  160SAPE  H20R17949  -1.154   1.833   8.581  1.6639 -0.8055  0.1166
  160SAPE  H20S17950  -1.075   1.812   8.423 -0.1530 -0.3766  0.0886
  160SAPE  H20T17951  -1.116   1.661   8.525 -0.7028 -0.8094  2.1439
  160SAPE   C3317952  -0.432   1.630   7.418 -0.5935  0.2628 -0.4145
  160SAPE   H3X17953  -0.538   1.618   7.384 -1.5524 -2.6014  2.9901
  160SAPE   H3Y17954  -0.409   1.739   7.417  1.8912 -0.1537 -3.0930
  160SAPE   C3417955  -0.432   1.583   7.560 -0.4519 -0.2888 -0.4673
  160SAPE   H4X17956  -0.328   1.599   7.598 -0.9248  1.2625  0.2488
  160SAPE   H4Y17957  -0.472   1.479   7.556 -0.0032 -0.4562 -3.2339
  160SAPE   C3517958  -0.520   1.672   7.650 -0.9822  1.0667  0.2755
  160SAPE   H5X17959  -0.626   1.665   7.620 -1.7209  1.5753  2.5616
  160SAPE   H5Y17960  -0.493   1.780   7.647  0.4818  0.7701  1.3033
  160SAPE   C3617961  -0.534   1.622   7.792 -0.0780  0.0031 -0.1925
  160SAPE   H6X17962  -0.525   1.512   7.799  2.9001  0.0725 -1.4392
  160SAPE   H6Y17963  -0.636   1.645   7.832 -0.3995  1.2534 -1.6331
  160SAPE   C3717964  -0.423   1.680   7.881 -0.6370 -0.2212  0.3955
  160SAPE   H7X17965  -0.390   1.784   7.860  0.8430 -1.1038 -2.1068
  160SAPE   H7Y17966  -0.329   1.632   7.846  0.6287  2.2952  0.1257
  160SAPE   C3817967  -0.432   1.658   8.032 -0.1252 -0.1569  0.4619
  160SAPE   H8X17968  -0.442   1.550   8.057  5.4513 -0.5601  2.3095
  160SAPE   H8Y17969  -0.518   1.714   8.074 -0.0392 -1.4885  2.5580
  160SAPE   C3917970  -0.316   1.721   8.118  0.1216 -0.1092  0.2970
  160SAPE   H9X17971  -0.302   1.821   8.072  0.5120 -1.2978 -2.3878
  160SAPE   H9Y17972  -0.221   1.664   8.117 -0.7700 -1.6624  0.6269
  160SAPE  C31017973  -0.344   1.721   8.269 -0.5392 -0.5088 -0.2202
  160SAPE  H10X17974  -0.445   1.766   8.281  0.8849  2.6727  0.9821
  160SAPE  H10Y17975  -0.273   1.787   8.325  0.9884  0.5029 -3.1398
  160SAPE  C31117976  -0.347   1.581   8.337 -0.2790 -0.3076 -0.2648
  160SAPE  H11X17977  -0.243   1.547   8.318  0.3189 -0.1553  2.3888
  160SAPE  H11Y17978  -0.409   1.522   8.267 -1.1835 -1.5981  1.5515
  160SAPE  C31217979  -0.365   1.576   8.491 -0.1359  0.3633 -0.5905
  160SAPE  H12X17980  -0.308   1.659   8.538 -1.1911 -0.0695  1.6023
  160SAPE  H12Y17981  -0.325   1.474   8.514  0.6028  0.8302  0.2413
  160SAPE  C31317982  -0.522   1.573   8.513 -0.0292 -0.1038  0.5501
  160SAPE  H13X17983  -0.567   1.492   8.453 -0.1079 -2.0272  3.0401
  160SAPE  H13Y17984  -0.575   1.664   8.476  1.4590  0.0762 -1.2537
  160SAPE  C31417985  -0.560   1.564   8.658  0.3356 -0.5918  0.5875
  160SAPE  H14X17986  -0.492   1.638   8.706 -1.4686  1.9857 -0.6517
  160SAPE  H14Y17987  -0.536   1.460   8.689  0.8254 -0.2812  1.2793
  160SAPE  C31517988  -0.703   1.601   8.692  0.6782 -0.0386 -0.1410
  160SAPE  H15X17989  -0.770   1.551   8.618  0.2754 -1.5231  1.1793
  160SAPE  H15Y17990  -0.713   1.711   8.678 -0.0884  0.0189  0.7270
  160SAPE  C31617991  -0.735   1.574   8.839 -0.7158  0.6275 -1.3636
  160SAPE  H16X17992  -0.668   1.632   8.906 -0.8700  0.8126 -1.3735
  160SAPE  H16Y17993  -0.709   1.469   8.867  0.1361  1.3046  0.5800
  160SAPE  C31717994  -0.877   1.603   8.873 -0.9932  0.7228  0.9537
  160SAPE  H17X17995  -0.934   1.527   8.816 -0.6232  0.0569  1.4607
  160SAPE  H17Y17996  -0.913   1.697   8.826  0.4187 -0.3110 -2.4701
  160SAPE  C31817997  -0.910   1.585   9.022 -0.1548  0.3067 -0.4512
  160SAPE  H18X17998  -0.904   1.686   9.067  0.9979  0.6966 -1.4389
  160SAPE  H18Y17999  -0.866   1.502   9.082 -0.4848  0.6428  0.2697
  160SAPE  H18Z18000  -1.018   1.563   9.040  0.1598 -0.2732  0.8146
  161SAPE     N18001   3.133   5.910   6.459  0.3773  0.0184 -0.1717
  161SAPE   HN118002   3.174   6.003   6.441 -0.9994  0.2897 -2.2094
  161SAPE   HN218003   3.035   5.922   6.493  0.1394 -0.1932 -0.7782
  161SAPE   HN318004   3.193   5.874   6.536  0.3479 -1.9038 -0.9720
  161SAPE   C1218005   3.123   5.825   6.338 -0.7936 -0.4195 -0.0168
  161SAPE  H12A18006   3.227   5.826   6.299 -0.3705  1.4560  1.0581
  161SAPE  H12B18007   3.056   5.869   6.262 -0.4804  0.1625  0.0396
  161SAPE   C1118008   3.078   5.687   6.370  0.2251 -0.4338 -0.6089
  161SAPE  H11A18009   3.140   5.664   6.459 -1.0796  2.6450  1.2750
  161SAPE  H11B18010   3.105   5.624   6.283 -0.3248 -0.1763 -0.9770
  161SAPE     P18011   2.862   5.569   6.435  0.2359  0.0731 -0.0284
  161SAPE   O1318012   2.721   5.608   6.466 -0.3967  0.1802 -0.5044
  161SAPE   O1418013   2.887   5.449   6.350 -0.1283  0.1965  0.4157
  161SAPE   O1218014   2.938   5.694   6.382 -0.1840 -0.2286  0.3742
  161SAPE   O1118015   2.931   5.529   6.570 -0.0582 -0.2725  0.0739
  161SAPE    C118016   2.916   5.623   6.676 -0.9418 -0.1732  0.2315
  161SAPE    HA18017   3.006   5.618   6.741  0.8768  0.5046 -2.0820
  161SAPE    HB18018   2.910   5.728   6.638 -1.3563 -0.6772 -1.1608
  161SAPE    C218019   2.793   5.586   6.769 -0.4173  0.3267 -0.9950
  161SAPE    HS18020   2.698   5.596   6.714 -1.4168 -0.6507  0.4852
  161SAPE   O2118021   2.794   5.666   6.885  0.0454  0.5943  0.6282
  161SAPE   C2118022   2.742   5.788   6.859 -0.9156 -0.1423  0.1673
  161SAPE   O2218023   2.710   5.829   6.746 -0.5054 -0.2706 -0.0127
  161SAPE   C2218024   2.734   5.872   6.991 -0.1549  0.0688 -0.2547
  161SAPE   H2R18025   2.721   5.804   7.077  0.0778  0.7179  0.3045
  161SAPE   H2S18026   2.833   5.920   7.007 -0.1375 -0.2847  0.7465
  161SAPE    C318027   2.805   5.435   6.814  0.3469 -0.6418  0.4309
  161SAPE    HX18028   2.912   5.420   6.836  0.2764  0.5786  1.7342
  161SAPE    HY18029   2.782   5.375   6.723  0.9755  0.4125 -0.4411
  161SAPE   O3118030   2.721   5.397   6.928  0.2735  0.3929  0.1609
  161SAPE   C3118031   2.792   5.386   7.037  0.4083 -0.9443 -0.1150
  161SAPE   O3218032   2.913   5.382   7.049  0.4061  0.3912 -1.0370
  161SAPE   C3218033   2.694   5.378   7.149  0.2929 -0.1832 -0.2063
  161SAPE   H2X18034   2.753   5.337   7.235 -0.4675 -3.0307 -0.9186
  161SAPE   H2Y18035   2.624   5.292   7.139  0.6115 -0.7633  1.9428
  161SAPE   C2318036   2.617   5.965   6.988  0.9831  0.0310  0.1925
  161SAPE   H3R18037   2.528   5.900   6.981 -0.3854  1.7467  0.9499
  161SAPE   H3S18038   2.603   6.032   6.901 -1.4999 -0.5779  0.0439
  161SAPE   C2418039   2.604   6.041   7.123 -0.0988  0.1418  0.0992
  161SAPE   H4R18040   2.577   5.972   7.206  0.2130  1.1917  1.0897
  161SAPE   H4S18041   2.531   6.123   7.105  0.6123  0.8680  0.5102
  161SAPE   C2518042   2.724   6.114   7.168  0.1610 -0.5406 -0.4731
  161SAPE   H5R18043   2.742   6.207   7.113 -0.5221 -0.9357 -1.3961
  161SAPE   C2618044   2.811   6.085   7.271  0.0550 -0.6236  0.3186
  161SAPE   H6R18045   2.890   6.158   7.294 -0.5282  0.2700 -0.4422
  161SAPE   C2718046   2.803   5.976   7.370 -0.0370  0.0922  0.4831
  161SAPE   H7R18047   2.715   5.909   7.365 -1.6445  1.7707  3.3937
  161SAPE   H7S18048   2.793   6.025   7.470  2.2981  0.7749  0.4466
  161SAPE   C2818049   2.926   5.887   7.370 -0.1451 -0.0409  0.1359
  161SAPE   H8R18050   2.998   5.878   7.287  1.9127 -0.5049  1.8827
  161SAPE   C2918051   2.973   5.817   7.472 -0.8129  0.0377 -0.0043
  161SAPE   H9R18052   3.066   5.758   7.460 -0.3963  0.0780  2.5642
  161SAPE  C21018053   2.917   5.813   7.612 -0.1309 -0.5238  0.7634
  161SAPE  H10R18054   2.958   5.730   7.673  0.1910 -0.2752  0.8881
  161SAPE  H10S18055   2.807   5.800   7.613 -0.2792 -0.2386 -2.1079
  161SAPE  C21118056   2.940   5.944   7.679  0.5190 -0.0387 -0.6370
  161SAPE  H11R18057   3.000   6.018   7.623  0.3756  2.3346  2.1284
  161SAPE  C21218058   2.892   5.981   7.798 -0.1147 -0.2386  0.9091
  161SAPE  H12R18059   2.910   6.079   7.843 -1.2279 -0.4657  1.9004
  161SAPE  C21318060   2.807   5.891   7.879 -0.6387 -0.2197  0.4968
  161SAPE  H13R18061   2.766   5.802   7.827 -0.0943  0.4899 -1.2368
  161SAPE  H13S18062   2.712   5.939   7.912  0.0445  1.5511  0.0303
  161SAPE  C21418063   2.874   5.839   7.999 -0.0807  0.3584 -0.5456
  161SAPE  H14R18064   2.943   5.756   7.976 -0.8182 -0.5048  0.2921
  161SAPE  C21518065   2.856   5.878   8.128  0.1533  0.3537  0.5526
  161SAPE  H15R18066   2.920   5.830   8.203 -1.4904 -0.6434  1.3772
  161SAPE  C21618067   2.762   5.994   8.167 -0.1478 -0.4005 -0.0519
  161SAPE  H16R18068   2.699   5.956   8.250  1.6488 -1.7828  0.7382
  161SAPE  H16S18069   2.689   6.031   8.092  1.2202  0.7698 -0.8640
  161SAPE  C21718070   2.840   6.118   8.230 -0.1735 -0.4028  0.0650
  161SAPE  H17R18071   2.761   6.193   8.252  1.8639  2.1997 -0.8305
  161SAPE  H17S18072   2.907   6.163   8.154 -1.2734  1.9774  0.4174
  161SAPE  C21818073   2.916   6.085   8.359 -0.4919  0.4708  0.0338
  161SAPE  H18R18074   3.021   6.062   8.331  0.2043  1.7372  1.4391
  161SAPE  H18S18075   2.860   6.006   8.413  1.7617  0.2193  2.1827
  161SAPE  C21918076   2.938   6.204   8.458 -0.6169 -0.0791 -0.1723
  161SAPE  H19R18077   2.850   6.257   8.501 -0.0328  0.2063  0.6820
  161SAPE  H19S18078   2.986   6.284   8.397 -0.9201 -1.3095 -2.1469
  161SAPE  C22018079   3.039   6.167   8.567 -0.1395 -0.2979  0.1118
  161SAPE  H20R18080   2.997   6.094   8.640  1.4804 -1.7488 -0.3432
  161SAPE  H20S18081   3.055   6.262   8.623 -1.5038 -1.1948  2.1603
  161SAPE  H20T18082   3.137   6.128   8.533 -0.2494 -0.9802  0.5497
  161SAPE   C3318083   2.610   5.507   7.175  0.1123 -0.1948  0.6814
  161SAPE   H3X18084   2.500   5.500   7.157 -0.0409  0.7196  1.2018
  161SAPE   H3Y18085   2.636   5.577   7.093 -0.9716 -1.1520 -0.5256
  161SAPE   C3418086   2.647   5.577   7.310 -0.1540  0.1546  0.2510
  161SAPE   H4X18087   2.624   5.685   7.322  0.7120  0.2088  1.6260
  161SAPE   H4Y18088   2.758   5.577   7.317 -0.0690 -1.2038 -0.7023
  161SAPE   C3518089   2.586   5.502   7.431  0.1210 -0.0206  0.1051
  161SAPE   H5X18090   2.632   5.401   7.422  0.3344  0.2169 -1.9867
  161SAPE   H5Y18091   2.475   5.497   7.429 -0.0680  1.2165  2.8585
  161SAPE   C3618092   2.613   5.580   7.559 -0.2939 -0.2851  0.4516
  161SAPE   H6X18093   2.617   5.691   7.548 -1.3167 -0.3619 -0.9128
  161SAPE   H6Y18094   2.719   5.557   7.583  0.2414  0.1976 -1.2958
  161SAPE   C3718095   2.533   5.532   7.676  0.0986  0.1181  0.8907
  161SAPE   H7X18096   2.536   5.422   7.682  2.1254  0.2140  2.7374
  161SAPE   H7Y18097   2.424   5.547   7.657 -0.5950 -4.6033  0.0478
  161SAPE   C3818098   2.579   5.591   7.809  0.6894  0.0459 -0.2938
  161SAPE   H8X18099   2.606   5.698   7.804 -1.2161  0.6398  0.7923
  161SAPE   H8Y18100   2.663   5.532   7.851 -0.1419 -0.0240  1.3904
  161SAPE   C3918101   2.469   5.577   7.923  0.1477  0.0182  0.4296
  161SAPE   H9X18102   2.458   5.472   7.957 -0.1244  0.4413  1.7427
  161SAPE   H9Y18103   2.370   5.605   7.881  0.7423  2.1487  0.3308
  161SAPE  C31018104   2.516   5.660   8.042 -0.0176 -0.3812 -0.2669
  161SAPE  H10X18105   2.481   5.764   8.024 -2.5868 -0.6843  2.2157
  161SAPE  H10Y18106   2.626   5.660   8.061 -0.0576  1.4507  0.1243
  161SAPE  C31118107   2.457   5.603   8.174  0.3063  0.8396 -0.1275
  161SAPE  H11X18108   2.523   5.517   8.200  1.5096  0.9649 -2.4587
  161SAPE  H11Y18109   2.356   5.557   8.168  0.1103  1.4015 -1.4194
  161SAPE  C31218110   2.465   5.698   8.295  0.1705  0.2468 -1.1035
  161SAPE  H12X18111   2.406   5.790   8.278 -1.7261 -0.7452 -0.1460
  161SAPE  H12Y18112   2.570   5.732   8.310  0.3032 -0.6807  0.2074
  161SAPE  C31318113   2.408   5.625   8.416  0.2320 -1.0803 -0.1833
  161SAPE  H13X18114   2.473   5.537   8.436  0.5434 -0.4095  2.0523
  161SAPE  H13Y18115   2.306   5.585   8.399 -0.7585 -0.4782  3.3659
  161SAPE  C31418116   2.392   5.722   8.531 -0.5832 -0.2457 -0.1677
  161SAPE  H14X18117   2.339   5.819   8.518  2.6332  2.0257  2.1892
  161SAPE  H14Y18118   2.494   5.765   8.538 -1.0329  0.6535  1.4106
  161SAPE  C31518119   2.356   5.662   8.669 -0.2121 -0.8830  0.3388
  161SAPE  H15X18120   2.428   5.581   8.693 -1.1450 -1.3880  1.5219
  161SAPE  H15Y18121   2.258   5.610   8.657  0.0129 -1.0623 -0.8839
  161SAPE  C31618122   2.347   5.774   8.772 -0.1920  0.1375 -0.1742
  161SAPE  H16X18123   2.331   5.736   8.875 -2.0405  1.8346  0.2141
  161SAPE  H16Y18124   2.256   5.830   8.742 -1.6291 -1.6547  0.6457
  161SAPE  C31718125   2.453   5.875   8.785 -0.9025 -0.4927  0.6217
  161SAPE  H17X18126   2.470   5.919   8.685 -1.3626 -1.4939  0.0892
  161SAPE  H17Y18127   2.551   5.829   8.813 -0.6245 -1.1600 -1.3177
  161SAPE  C31818128   2.420   5.989   8.887  0.6023  0.0797 -0.5897
  161SAPE  H18X18129   2.367   6.068   8.828  2.6879 -0.0069 -2.7329
  161SAPE  H18Y18130   2.516   6.021   8.933  0.6618 -1.3566  0.3273
  161SAPE  H18Z18131   2.344   5.950   8.958  0.2119  0.9909 -0.4892
  162SAPE     N18132   0.945   1.407   6.540 -0.0048  0.2227  0.0739
  162SAPE   HN118133   1.044   1.440   6.536 -0.1839  0.7123 -0.6013
  162SAPE   HN218134   0.894   1.447   6.621  0.2316 -0.3013  0.4800
  162SAPE   HN318135   0.936   1.304   6.541 -1.2271  0.2833 -1.1600
  162SAPE   C1218136   0.890   1.465   6.421  0.9062 -0.9200 -0.4090
  162SAPE  H12A18137   0.779   1.465   6.428  0.9104 -0.3851 -0.3678
  162SAPE  H12B18138   0.915   1.418   6.323 -1.1244 -0.2261 -1.3185
  162SAPE   C1118139   0.920   1.618   6.415  0.0104  0.1947  0.6976
  162SAPE  H11A18140   0.893   1.653   6.517 -2.0572  0.7795  0.0109
  162SAPE  H11B18141   0.846   1.673   6.352 -0.0308  0.5718  1.0682
  162SAPE     P18142   1.173   1.663   6.457 -0.0737  0.0355 -0.0071
  162SAPE   O1318143   1.187   1.531   6.520  0.0227  0.3558  0.2752
  162SAPE   O1418144   1.286   1.713   6.372 -0.3819 -0.1994  0.3211
  162SAPE   O1218145   1.051   1.651   6.365 -0.8090 -0.3769 -0.0430
  162SAPE   O1118146   1.123   1.761   6.566 -0.3788 -0.3768  0.3070
  162SAPE    C118147   1.111   1.903   6.523 -0.3781 -0.0545  0.3819
  162SAPE    HA18148   1.164   1.927   6.428  0.1210 -0.0116  0.6689
  162SAPE    HB18149   1.007   1.934   6.502  0.5735  2.8330 -0.5042
  162SAPE    C218150   1.164   1.994   6.646 -0.3505 -0.0023  0.9463
  162SAPE    HS18151   1.173   2.101   6.619  2.8292 -0.2252  0.6917
  162SAPE   O2118152   1.288   1.944   6.703  0.0244 -0.6700  0.4920
  162SAPE   C2118153   1.393   1.965   6.620 -0.3512  0.0230 -1.0221
  162SAPE   O2218154   1.385   2.024   6.516 -0.3188  0.6526  0.4614
  162SAPE   C2218155   1.524   1.905   6.677 -0.4505 -0.5889  0.0421
  162SAPE   H2R18156   1.506   1.855   6.775  1.5943  0.9831  1.3016
  162SAPE   H2S18157   1.563   1.834   6.602 -2.4783 -0.1097 -1.5689
  162SAPE    C318158   1.060   1.983   6.763  0.1760  0.2629  0.4449
  162SAPE    HX18159   1.071   1.878   6.798  1.9984 -0.1371 -1.1680
  162SAPE    HY18160   0.954   2.006   6.739  0.1108  0.2994  0.7656
  162SAPE   O3118161   1.090   2.067   6.874 -0.1392 -0.1279 -0.4332
  162SAPE   C3118162   1.084   2.198   6.856 -0.2644  0.2833  0.4129
  162SAPE   O3218163   1.042   2.256   6.754 -0.4380  0.1364  0.5036
  162SAPE   C3218164   1.152   2.266   6.977 -0.2125  0.4302  0.3255
  162SAPE   H2X18165   1.102   2.224   7.068  0.2890  0.2026  0.5013
  162SAPE   H2Y18166   1.144   2.376   6.982  1.3509  0.5133  2.6225
  162SAPE   C2318167   1.628   2.018   6.693 -0.6100 -0.5044  0.1454
  162SAPE   H3R18168   1.578   2.111   6.728 -0.3647  0.0334 -0.8898
  162SAPE   H3S18169   1.664   2.048   6.592  0.7900 -0.2753  0.6872
  162SAPE   C2418170   1.747   1.983   6.781  0.0697 -0.8186  0.3734
  162SAPE   H4R18171   1.795   1.893   6.738  0.0134  0.0314 -1.5636
  162SAPE   H4S18172   1.707   1.970   6.884 -1.6858 -0.0680 -0.1715
  162SAPE   C2518173   1.857   2.091   6.791  0.5630  0.6434  0.4409
  162SAPE   H5R18174   1.894   2.108   6.688  0.6928  0.4956  0.4633
  162SAPE   C2618175   1.902   2.163   6.897  0.3062 -0.1511  0.0339
  162SAPE   H6R18176   1.981   2.237   6.879 -0.6071  0.8594  0.0994
  162SAPE   C2718177   1.841   2.147   7.033 -0.5674  0.3457 -0.5857
  162SAPE   H7R18178   1.829   2.038   7.051  1.1661  0.2145 -0.0365
  162SAPE   H7S18179   1.738   2.189   7.031 -0.8652 -0.3801 -0.7478
  162SAPE   C2818180   1.923   2.210   7.143  0.0407 -0.8015  0.3840
  162SAPE   H8R18181   2.027   2.230   7.113 -0.4180 -2.6118 -2.8256
  162SAPE   C2918182   1.884   2.237   7.270 -0.6234 -0.3853  0.3255
  162SAPE   H9R18183   1.952   2.293   7.336  0.9037  0.9893 -2.2541
  162SAPE  C21018184   1.749   2.217   7.333  1.2478 -0.0375  0.0587
  162SAPE  H10R18185   1.679   2.154   7.274 -1.7092  0.4426  2.8379
  162SAPE  H10S18186   1.698   2.315   7.336  0.6759 -0.2897 -0.9470
  162SAPE  C21118187   1.763   2.155   7.469 -0.4157  0.2490  0.3300
  162SAPE  H11R18188   1.788   2.048   7.464 -0.5503  0.2223  0.2193
  162SAPE  C21218189   1.777   2.225   7.585  0.7572 -0.3973 -0.8488
  162SAPE  H12R18190   1.793   2.167   7.677  1.7861 -0.6686 -1.1908
  162SAPE  C21318191   1.762   2.369   7.611 -0.3275 -0.3692  0.1098
  162SAPE  H13R18192   1.688   2.392   7.692  0.5715  3.2175  0.0903
  162SAPE  H13S18193   1.726   2.414   7.516 -1.5491 -1.5045  0.0049
  162SAPE  C21418194   1.900   2.422   7.632 -0.5296 -1.3372  0.5675
  162SAPE  H14R18195   1.956   2.413   7.538 -1.0761  0.8735 -0.0429
  162SAPE  C21518196   1.960   2.476   7.739 -0.3097 -0.1186  0.7855
  162SAPE  H15R18197   2.065   2.506   7.727 -0.0449 -1.2644  0.0519
  162SAPE  C21618198   1.880   2.497   7.863 -0.1739  0.0782  0.0906
  162SAPE  H16R18199   1.773   2.474   7.847 -0.4871  2.4102 -1.6019
  162SAPE  H16S18200   1.899   2.604   7.888  2.3289  0.2403 -2.0767
  162SAPE  C21718201   1.954   2.418   7.982 -0.3747  0.9870 -0.6711
  162SAPE  H17R18202   2.055   2.465   7.987 -1.0642  2.4034  1.2315
  162SAPE  H17S18203   1.964   2.311   7.955 -0.1929  1.0128 -0.7056
  162SAPE  C21818204   1.880   2.427   8.118  0.1265  0.0423  0.1563
  162SAPE  H18R18205   1.774   2.395   8.118  0.0634  0.1484  1.8341
  162SAPE  H18S18206   1.867   2.534   8.144  1.8779 -0.1434  2.1083
  162SAPE  C21918207   1.953   2.350   8.230 -0.2199 -0.0425 -0.5060
  162SAPE  H19R18208   2.057   2.387   8.226 -0.4857  1.2201  2.2886
  162SAPE  H19S18209   1.949   2.243   8.198 -1.5923 -0.3485  0.5739
  162SAPE  C22018210   1.898   2.366   8.374  0.3023 -0.3768 -0.1293
  162SAPE  H20R18211   1.911   2.471   8.409  0.6679 -0.9313  1.4865
  162SAPE  H20S18212   1.964   2.306   8.440 -0.2243 -0.3529  0.4276
  162SAPE  H20T18213   1.795   2.328   8.386  0.3626 -0.3922  0.3695
  162SAPE   C3318214   1.298   2.223   6.997 -0.0858  0.1005 -0.6584
  162SAPE   H3X18215   1.351   2.249   6.903  0.4318  0.0243 -0.3917
  162SAPE   H3Y18216   1.300   2.112   7.002  1.0204 -0.1738 -4.1377
  162SAPE   C3418217   1.359   2.280   7.131 -0.2851  0.6435  1.1255
  162SAPE   H4X18218   1.342   2.389   7.146 -1.0323  0.6755  0.1600
  162SAPE   H4Y18219   1.466   2.277   7.104 -0.3135  1.0518  0.9580
  162SAPE   C3518220   1.319   2.207   7.258 -0.0401  0.0893  0.4818
  162SAPE   H5X18221   1.349   2.101   7.241  1.1374  0.1949  1.6897
  162SAPE   H5Y18222   1.212   2.222   7.282 -0.3201 -3.0438  1.7545
  162SAPE   C3618223   1.382   2.246   7.390 -0.2052 -0.2611 -0.0022
  162SAPE   H6X18224   1.379   2.355   7.412 -1.1023 -0.1735 -0.5068
  162SAPE   H6Y18225   1.489   2.221   7.375  0.0308 -0.0120  1.1763
  162SAPE   C3718226   1.347   2.169   7.511 -0.3445 -0.0257  0.0741
  162SAPE   H7X18227   1.375   2.062   7.505  3.2630  0.8783 -1.9714
  162SAPE   H7Y18228   1.236   2.164   7.510 -0.3533 -0.0885 -1.6473
  162SAPE   C3818229   1.394   2.237   7.644 -0.4452 -0.6614 -0.3434
  162SAPE   H8X18230   1.384   2.347   7.634 -0.2397 -0.1976  3.1375
  162SAPE   H8Y18231   1.499   2.217   7.675 -0.1615 -0.1311 -0.9527
  162SAPE   C3918232   1.299   2.192   7.758  1.2008  0.2178  0.5248
  162SAPE   H9X18233   1.316   2.083   7.771 -0.9542 -0.1162  1.0411
  162SAPE   H9Y18234   1.197   2.201   7.715  2.3008 -0.7825 -2.5324
  162SAPE  C31018235   1.304   2.270   7.891 -0.1871  0.0535 -0.0104
  162SAPE  H10X18236   1.253   2.366   7.869  1.2100  0.5531 -1.3068
  162SAPE  H10Y18237   1.409   2.292   7.921 -0.1129 -0.5810  0.1924
  162SAPE  C31118238   1.216   2.207   7.995  0.0332  0.4020  0.2376
  162SAPE  H11X18239   1.217   2.272   8.086 -0.3556 -0.6763  1.0305
  162SAPE  H11Y18240   1.249   2.105   8.021 -1.1892 -0.2759 -0.7496
  162SAPE  C31218241   1.075   2.192   7.947 -0.4528  0.7812 -0.5963
  162SAPE  H12X18242   1.070   2.103   7.881  0.8715  0.1531  0.1174
  162SAPE  H12Y18243   1.035   2.285   7.901  0.5754  0.1459 -2.9220
  162SAPE  C31318244   0.985   2.171   8.077 -0.6402 -0.3085  0.2179
  162SAPE  H13X18245   1.038   2.092   8.134  0.3940  1.0414  1.1757
  162SAPE  H13Y18246   0.889   2.119   8.056 -0.9366  0.4473 -0.3544
  162SAPE  C31418247   0.941   2.304   8.150  0.3559  0.0259  0.4529
  162SAPE  H14X18248   0.867   2.357   8.085  0.4450 -2.8280 -2.1794
  162SAPE  H14Y18249   1.036   2.358   8.167 -0.1613  0.9364  0.5355
  162SAPE  C31518250   0.895   2.277   8.296 -0.3480  0.3317  0.3101
  162SAPE  H15X18251   0.791   2.242   8.283 -0.2508  0.8145 -2.5468
  162SAPE  H15Y18252   0.893   2.377   8.344  0.2660  0.6927 -0.3930
  162SAPE  C31618253   0.978   2.191   8.392 -0.0191 -0.0529 -0.4998
  162SAPE  H16X18254   1.086   2.215   8.384  0.1346 -0.6178 -0.1730
  162SAPE  H16Y18255   0.980   2.086   8.357  0.1919 -0.3417  0.3536
  162SAPE  C31718256   0.924   2.196   8.539  0.4317  0.0800 -0.2915
  162SAPE  H17X18257   0.814   2.182   8.544  0.5341 -0.3316  1.2656
  162SAPE  H17Y18258   0.965   2.291   8.578  3.7634  0.0015 -3.0802
  162SAPE  C31818259   0.987   2.080   8.617 -0.1686 -0.0098 -0.4430
  162SAPE  H18X18260   1.097   2.095   8.618 -0.2623  1.1748  1.9967
  162SAPE  H18Y18261   0.972   1.988   8.556  1.5000 -0.4040 -0.2922
  162SAPE  H18Z18262   0.964   2.078   8.726 -0.0973  2.3126 -0.3266
  163SAPE     N18263   0.496   6.540   6.671 -0.1364 -0.2618 -0.0419
  163SAPE   HN118264   0.434   6.560   6.752  1.5476 -0.7079  1.4227
  163SAPE   HN218265   0.591   6.538   6.712  0.0288  1.4974 -0.2618
  163SAPE   HN318266   0.498   6.612   6.595 -0.4153 -1.4475 -1.2190
  163SAPE   C1218267   0.456   6.400   6.635  0.0061 -0.0692 -0.1058
  163SAPE  H12A18268   0.498   6.393   6.533 -0.6773  0.7745 -0.4647
  163SAPE  H12B18269   0.347   6.389   6.617  0.3830  0.4679 -3.3236
  163SAPE   C1118270   0.518   6.305   6.739  0.2739  0.5442  0.3052
  163SAPE  H11A18271   0.481   6.207   6.702  0.0398  0.9858 -0.6444
  163SAPE  H11B18272   0.469   6.316   6.838  0.3445  2.7252  0.1350
  163SAPE     P18273   0.762   6.209   6.687 -0.4439 -0.3023  0.5838
  163SAPE   O1318274   0.701   6.167   6.561 -0.5504  0.4793  0.0712
  163SAPE   O1418275   0.900   6.264   6.692 -0.6365 -0.4533  0.2717
  163SAPE   O1218276   0.660   6.313   6.738  0.3685  0.2272  0.6470
  163SAPE   O1118277   0.761   6.091   6.791 -0.3642 -0.0814 -0.6019
  163SAPE    C118278   0.784   6.114   6.934 -0.3345  0.1732  0.6065
  163SAPE    HA18279   0.851   6.035   6.973 -3.8627 -1.7391  3.4117
  163SAPE    HB18280   0.819   6.218   6.955  1.4792 -0.6565  1.8667
  163SAPE    C218281   0.652   6.096   7.017  0.5137 -0.7017  0.2600
  163SAPE    HS18282   0.579   6.178   6.999 -0.2985 -1.8099 -1.8794
  163SAPE   O2118283   0.701   6.079   7.151  0.1710  0.3389  0.6764
  163SAPE   C2118284   0.648   6.160   7.241  0.0541 -0.3853 -0.8335
  163SAPE   O2218285   0.570   6.250   7.221 -0.0108  0.0979 -0.0839
  163SAPE   C2218286   0.713   6.122   7.373 -0.2803 -0.2664  0.0629
  163SAPE   H2R18287   0.668   6.029   7.413 -2.0751  0.3020 -0.5284
  163SAPE   H2S18288   0.819   6.091   7.366 -0.9427 -2.6932 -0.3674
  163SAPE    C318289   0.566   5.970   6.960 -0.2486 -0.5867 -1.0283
  163SAPE    HX18290   0.637   5.888   6.935  0.0484 -0.9608  0.8475
  163SAPE    HY18291   0.502   5.999   6.873 -1.6891  0.0264  0.1789
  163SAPE   O3118292   0.489   5.928   7.080  0.1586 -0.2206 -0.2076
  163SAPE   C3118293   0.352   5.926   7.063 -0.4011  0.0427 -0.0191
  163SAPE   O3218294   0.294   5.935   6.959 -0.1244  0.5320  0.3186
  163SAPE   C3218295   0.283   5.919   7.206  0.2002  0.1341  0.4701
  163SAPE   H2X18296   0.205   5.840   7.197  0.6230 -0.2341 -0.0607
  163SAPE   H2Y18297   0.251   6.025   7.212 -0.6899 -0.1483  0.9669
  163SAPE   C2318298   0.697   6.241   7.471 -0.1716 -0.2354 -0.2509
  163SAPE   H3R18299   0.593   6.274   7.490  0.9008  2.3429  1.7461
  163SAPE   H3S18300   0.748   6.328   7.425  3.2468 -2.4021 -0.9467
  163SAPE   C2418301   0.777   6.217   7.605  0.2747  0.7482  0.3310
  163SAPE   H4R18302   0.879   6.187   7.574  0.1472 -0.2344  0.8505
  163SAPE   H4S18303   0.729   6.125   7.643  0.8282  1.1760  2.1370
  163SAPE   C2518304   0.777   6.324   7.709 -0.7230 -0.4498 -0.5966
  163SAPE   H5R18305   0.840   6.404   7.667  0.8285 -0.6825  1.1945
  163SAPE   C2618306   0.743   6.334   7.836 -0.8788  0.0896 -0.1237
  163SAPE   H6R18307   0.770   6.425   7.890  0.2000  1.0273 -2.1322
  163SAPE   C2718308   0.694   6.215   7.923  0.3298 -0.6297  1.0624
  163SAPE   H7R18309   0.660   6.123   7.871 -2.5814  1.6026 -1.4083
  163SAPE   H7S18310   0.589   6.230   7.957 -0.0679  0.2767 -0.4750
  163SAPE   C2818311   0.785   6.191   8.036  0.6067  0.0280  1.1966
  163SAPE   H8R18312   0.881   6.143   8.011  0.7532  0.7831  0.2787
  163SAPE   C2918313   0.762   6.228   8.159  0.1855 -0.5355  0.5186
  163SAPE   H9R18314   0.829   6.193   8.239 -0.7741 -0.8066  1.2258
  163SAPE  C21018315   0.635   6.294   8.205  0.2382  0.1600 -0.0099
  163SAPE  H10R18316   0.576   6.216   8.259  1.5347 -0.5270  0.4510
  163SAPE  H10S18317   0.571   6.341   8.127  0.0919 -1.1651 -0.7106
  163SAPE  C21118318   0.673   6.402   8.302  0.8235  0.1799 -0.0048
  163SAPE  H11R18319   0.713   6.490   8.249  0.1744 -0.3706 -1.4665
  163SAPE  C21218320   0.645   6.410   8.435  0.1336 -0.3083 -0.1019
  163SAPE  H12R18321   0.676   6.502   8.486  0.9719  0.3747 -1.7520
  163SAPE  C21318322   0.575   6.314   8.521 -0.4992  0.3196 -0.5360
  163SAPE  H13R18323   0.656   6.258   8.573  0.5893  1.5008 -0.9072
  163SAPE  H13S18324   0.516   6.246   8.456 -1.2592 -0.3111  0.7690
  163SAPE  C21418325   0.471   6.373   8.615 -0.3025  0.2277 -0.3860
  163SAPE  H14R18326   0.416   6.459   8.574 -0.9911  0.8088  1.6455
  163SAPE  C21518327   0.441   6.340   8.743  0.1181 -0.7534 -0.8154
  163SAPE  H15R18328   0.361   6.394   8.794  1.1014 -0.0903  0.0530
  163SAPE  C21618329   0.495   6.230   8.829  0.3691  0.5168  0.0499
  163SAPE  H16R18330   0.541   6.270   8.923 -1.1807  2.4829  0.0454
  163SAPE  H16S18331   0.557   6.157   8.773  2.9566  2.9762 -0.5847
  163SAPE  C21718332   0.379   6.142   8.874  0.0314 -0.1853  0.5589
  163SAPE  H17R18333   0.326   6.118   8.779 -1.6690 -0.6046  1.5667
  163SAPE  H17S18334   0.306   6.188   8.945  0.4151 -1.9365  2.1814
  163SAPE  C21818335   0.403   6.006   8.937 -0.5110 -0.0222 -0.7951
  163SAPE  H18R18336   0.298   5.971   8.951 -0.4915  0.0104 -0.5785
  163SAPE  H18S18337   0.446   6.016   9.038  0.8197 -0.1627 -1.3276
  163SAPE  C21918338   0.498   5.912   8.853  0.6679 -0.6551  0.5488
  163SAPE  H19R18339   0.595   5.965   8.853  0.2821  0.0691  1.0695
  163SAPE  H19S18340   0.454   5.906   8.751  0.6399  0.0221  0.5152
  163SAPE  C22018341   0.530   5.776   8.902  0.4115  0.3884 -0.3371
  163SAPE  H20R18342   0.594   5.716   8.834 -1.4047 -2.1669  0.0311
  163SAPE  H20S18343   0.445   5.704   8.912  0.9602 -0.1148  0.9661
  163SAPE  H20T18344   0.591   5.769   8.995  0.8704 -1.1392 -0.7196
  163SAPE   C3318345   0.373   5.888   7.328 -0.5337  0.0841  0.4075
  163SAPE   H3X18346   0.472   5.938   7.323  0.3494 -1.6214  0.3927
  163SAPE   H3Y18347   0.382   5.778   7.325 -2.0842 -0.0469 -0.8972
  163SAPE   C3418348   0.311   5.915   7.466 -0.4819 -0.3621 -0.3594
  163SAPE   H4X18349   0.240   5.830   7.472 -0.3281 -0.4850 -0.2586
  163SAPE   H4Y18350   0.250   6.007   7.460 -0.2246 -0.0039  1.7089
  163SAPE   C3518351   0.417   5.916   7.576  0.1361 -0.4153  0.3777
  163SAPE   H5X18352   0.478   6.008   7.571  0.9873 -1.0088 -1.0211
  163SAPE   H5Y18353   0.493   5.836   7.559  0.6748  0.6229 -2.8333
  163SAPE   C3618354   0.339   5.896   7.713  0.5964  0.2134  0.1196
  163SAPE   H6X18355   0.295   5.794   7.717 -0.2448  0.4925 -1.3568
  163SAPE   H6Y18356   0.264   5.976   7.731  2.6137  1.8795  1.6242
  163SAPE   C3718357   0.434   5.908   7.840  0.1693 -0.1468  0.5204
  163SAPE   H7X18358   0.488   6.002   7.818 -0.5745  0.3332  0.6843
  163SAPE   H7Y18359   0.506   5.825   7.827  1.3174  1.2492 -3.1558
  163SAPE   C3818360   0.375   5.899   7.981  0.0918 -0.3022 -0.5879
  163SAPE   H8X18361   0.331   5.798   7.998  1.0114 -0.4731  0.9461
  163SAPE   H8Y18362   0.299   5.978   7.997 -0.9354 -0.0095 -5.2831
  163SAPE   C3918363   0.481   5.911   8.086 -0.8659 -0.7038  0.1735
  163SAPE   H9X18364   0.528   6.012   8.082  2.1201 -1.8801  2.0012
  163SAPE   H9Y18365   0.572   5.852   8.061  0.1253  0.5710  0.6971
  163SAPE  C31018366   0.435   5.860   8.222 -0.7653  0.1547  0.5259
  163SAPE  H10X18367   0.514   5.865   8.299  0.5457 -1.0392 -0.6747
  163SAPE  H10Y18368   0.405   5.754   8.211  0.9197 -0.6430  2.7845
  163SAPE  C31118369   0.325   5.942   8.289  0.0914  0.2655  0.5474
  163SAPE  H11X18370   0.244   5.963   8.216  1.0098  0.3657 -0.4602
  163SAPE  H11Y18371   0.359   6.044   8.317  1.4005 -0.8142  3.2764
  163SAPE  C31218372   0.256   5.866   8.405 -0.1925  0.2182 -0.6588
  163SAPE  H12X18373   0.325   5.804   8.466 -1.1724  0.8223  1.1449
  163SAPE  H12Y18374   0.172   5.801   8.372 -1.7883  0.8801  1.7764
  163SAPE  C31318375   0.181   5.962   8.500 -0.4214  0.1570  0.9454
  163SAPE  H13X18376   0.105   6.018   8.441  0.9599  0.0633 -1.0374
  163SAPE  H13Y18377   0.256   6.035   8.535 -0.9763  1.4494 -0.4614
  163SAPE  C31418378   0.110   5.888   8.616 -0.4640  0.6259  0.4620
  163SAPE  H14X18379   0.184   5.832   8.678 -2.1643 -1.7085  0.5275
  163SAPE  H14Y18380   0.037   5.817   8.572  0.5268  0.0062 -0.2192
  163SAPE  C31518381   0.036   5.986   8.709  0.1578 -0.1188 -0.3050
  163SAPE  H15X18382   0.111   6.061   8.741 -0.4024  0.4157 -0.2218
  163SAPE  H15Y18383  -0.000   5.939   8.802 -1.9608  0.2584 -0.8826
  163SAPE  C31618384  -0.084   6.070   8.656  0.2945  0.6198 -0.1874
  163SAPE  H16X18385  -0.162   6.005   8.610  0.5321 -0.2170  0.5646
  163SAPE  H16Y18386  -0.053   6.139   8.574  0.8851  2.2139  1.3191
  163SAPE  C31718387  -0.167   6.138   8.771 -0.6555 -0.0073  0.1302
  163SAPE  H17X18388  -0.184   6.243   8.738 -1.6874 -0.5433 -1.1097
  163SAPE  H17Y18389  -0.093   6.142   8.854  0.8896 -0.2751 -1.1650
  163SAPE  C31818390  -0.289   6.065   8.823  0.7333  0.4237  0.3314
  163SAPE  H18X18391  -0.328   6.141   8.894 -0.0423  2.0251 -1.7034
  163SAPE  H18Y18392  -0.264   5.970   8.874  2.9362  0.4994 -0.5130
  163SAPE  H18Z18393  -0.373   6.055   8.752  1.2387  0.4181 -0.2732
  164SAPE     N18394   1.862   2.934   6.034 -0.2507 -0.2424 -0.1398
  164SAPE   HN118395   1.778   2.956   6.091 -1.2606 -1.5868 -1.0394
  164SAPE   HN218396   1.824   2.924   5.938 -0.5159 -2.2295  0.1202
  164SAPE   HN318397   1.889   2.835   6.052 -0.4622 -0.1999  0.4214
  164SAPE   C1218398   1.984   3.012   6.055 -0.5398  0.3604 -0.0452
  164SAPE  H12A18399   1.962   3.094   6.127 -3.1780 -1.3521  1.2822
  164SAPE  H12B18400   2.020   3.059   5.961  0.9824  2.0710  1.3359
  164SAPE   C1118401   2.105   2.935   6.112 -0.5742  0.0073 -0.0189
  164SAPE  H11A18402   2.111   2.897   6.216  3.4221 -2.4793 -0.9222
  164SAPE  H11B18403   2.194   3.001   6.109 -0.5629  0.2497  2.8764
  164SAPE     P18404   2.076   2.673   6.076  0.2985 -0.1998 -0.0534
  164SAPE   O1318405   1.929   2.687   6.073 -0.3497  0.2352 -0.6849
  164SAPE   O1418406   2.125   2.566   5.986 -0.1124  0.1554  0.1749
  164SAPE   O1218407   2.138   2.818   6.033  0.4386 -0.2997  0.0417
  164SAPE   O1118408   2.136   2.657   6.220  0.1647 -0.3434 -0.4709
  164SAPE    C118409   2.280   2.637   6.235  0.0528 -0.5040  0.3792
  164SAPE    HA18410   2.321   2.535   6.215  2.5094  0.3908  0.5258
  164SAPE    HB18411   2.331   2.704   6.163 -1.9298  1.4542  0.6876
  164SAPE    C218412   2.330   2.679   6.373 -0.2673  0.4509 -0.0855
  164SAPE    HS18413   2.331   2.786   6.402  0.8106  1.4011 -3.2520
  164SAPE   O2118414   2.463   2.631   6.377 -0.3710  0.3969  0.4843
  164SAPE   C2118415   2.554   2.724   6.350 -0.4118 -0.1390 -0.2467
  164SAPE   O2218416   2.523   2.835   6.310  0.1696 -0.5864  0.6113
  164SAPE   C2218417   2.699   2.674   6.380 -0.4215  0.3421 -0.5234
  164SAPE   H2R18418   2.706   2.576   6.327  1.1260  0.6147 -0.8709
  164SAPE   H2S18419   2.770   2.739   6.325  2.6856 -1.8345  0.6446
  164SAPE    C318420   2.260   2.604   6.489 -0.8177 -0.6582  0.4461
  164SAPE    HX18421   2.228   2.502   6.461 -1.1476 -0.3442 -0.3514
  164SAPE    HY18422   2.167   2.661   6.513  0.2911  2.0547 -1.2025
  164SAPE   O3118423   2.339   2.609   6.608  0.3162  0.2492  0.7621
  164SAPE   C3118424   2.313   2.516   6.699 -0.1503  0.6916 -0.4100
  164SAPE   O3218425   2.224   2.431   6.688 -0.8529 -0.0407  0.2464
  164SAPE   C3218426   2.397   2.539   6.821  0.5702  0.2002 -0.0112
  164SAPE   H2X18427   2.449   2.636   6.807  0.9944  0.0285  0.3321
  164SAPE   H2Y18428   2.478   2.465   6.836  0.5976  0.2698  0.1876
  164SAPE   C2318429   2.723   2.665   6.529  0.4791  0.3397 -0.2947
  164SAPE   H3R18430   2.648   2.595   6.574  1.6306  0.0494  1.2728
  164SAPE   H3S18431   2.705   2.767   6.568 -1.7173  0.1907 -0.7794
  164SAPE   C2418432   2.866   2.623   6.569  0.1846 -0.0665 -0.1074
  164SAPE   H4R18433   2.890   2.528   6.517  2.1593 -0.2033  0.9574
  164SAPE   H4S18434   2.854   2.596   6.676  0.8538 -3.4414 -0.7714
  164SAPE   C2518435   2.973   2.729   6.541  0.4914 -0.1630  0.0336
  164SAPE   H5R18436   3.011   2.734   6.438 -3.1637  0.8983 -1.4108
  164SAPE   C2618437   3.016   2.817   6.630  0.4104 -0.1554 -0.1181
  164SAPE   H6R18438   3.092   2.891   6.601 -0.1310 -0.4015 -2.3293
  164SAPE   C2718439   2.982   2.827   6.779  0.9036 -0.4411  0.3608
  164SAPE   H7R18440   2.903   2.752   6.801 -2.6134  3.0082  0.6365
  164SAPE   H7S18441   2.940   2.927   6.805 -0.1599 -1.0733  1.1709
  164SAPE   C2818442   3.095   2.799   6.873  0.1372 -0.6521  0.8035
  164SAPE   H8R18443   3.193   2.779   6.826 -1.4563 -1.3026 -2.5278
  164SAPE   C2918444   3.092   2.804   7.005  0.2350  0.2995 -0.0476
  164SAPE   H9R18445   3.183   2.776   7.061  2.3946  2.1766 -2.4028
  164SAPE  C21018446   2.971   2.845   7.087 -0.7401 -0.5512 -0.2444
  164SAPE  H10R18447   2.905   2.918   7.033  0.7101 -0.6714 -2.2783
  164SAPE  H10S18448   3.007   2.904   7.173 -1.2099 -1.0457  0.3011
  164SAPE  C21118449   2.894   2.717   7.120 -0.1668 -0.0976 -0.9678
  164SAPE  H11R18450   2.899   2.638   7.044 -0.5603  0.2156 -1.3248
  164SAPE  C21218451   2.821   2.698   7.231 -0.5749 -0.8094 -0.2822
  164SAPE  H12R18452   2.779   2.598   7.246 -1.5456 -0.0746  2.3993
  164SAPE  C21318453   2.803   2.799   7.346 -0.0520  0.1211  0.2002
  164SAPE  H13R18454   2.700   2.785   7.386 -0.3154  1.4436  0.0613
  164SAPE  H13S18455   2.801   2.905   7.310 -0.8121  0.2205  0.5034
  164SAPE  C21418456   2.917   2.781   7.442  0.2030  0.7195 -0.3449
  164SAPE  H14R18457   3.014   2.757   7.398  0.1945  1.8495 -0.9833
  164SAPE  C21518458   2.906   2.795   7.578  0.1647 -0.6488 -0.0102
  164SAPE  H15R18459   2.992   2.778   7.644  0.7023  0.3278 -0.4269
  164SAPE  C21618460   2.784   2.832   7.661  0.0861  0.3734 -0.8131
  164SAPE  H16R18461   2.697   2.792   7.605  1.0608  0.7905 -2.7117
  164SAPE  H16S18462   2.769   2.942   7.663 -0.5194  0.3160  1.5846
  164SAPE  C21718463   2.790   2.773   7.814 -0.2278  0.1618  0.8579
  164SAPE  H17R18464   2.896   2.778   7.845 -0.6437  0.3716  2.2952
  164SAPE  H17S18465   2.751   2.669   7.810 -1.5052  0.6440 -0.4616
  164SAPE  C21818466   2.698   2.844   7.916  0.4006  0.0874  0.3901
  164SAPE  H18R18467   2.592   2.835   7.886 -0.5220 -1.0383  3.5660
  164SAPE  H18S18468   2.730   2.951   7.919 -2.3353  1.0295 -1.1724
  164SAPE  C21918469   2.707   2.790   8.057 -0.4893  0.4743  0.3743
  164SAPE  H19R18470   2.814   2.794   8.084  0.1450 -2.0629 -1.3812
  164SAPE  H19S18471   2.686   2.681   8.052 -0.5031  0.5247 -1.3330
  164SAPE  C22018472   2.616   2.861   8.158  0.1262 -0.6688 -0.5068
  164SAPE  H20R18473   2.511   2.865   8.120 -0.2504 -2.8859  0.1574
  164SAPE  H20S18474   2.646   2.961   8.194 -0.0105 -0.9553  0.4471
  164SAPE  H20T18475   2.618   2.795   8.248  2.8955  0.0635  0.0620
  164SAPE   C3318476   2.305   2.526   6.947  0.0307 -0.3147 -0.9703
  164SAPE   H3X18477   2.229   2.446   6.947 -0.0177 -0.3963  2.0411
  164SAPE   H3Y18478   2.244   2.617   6.965  0.2049 -0.4068  0.1777
  164SAPE   C3418479   2.387   2.496   7.074 -0.1509 -0.1788  0.2847
  164SAPE   H4X18480   2.437   2.397   7.071  1.0465  0.4406 -2.1594
  164SAPE   H4Y18481   2.309   2.483   7.152  0.1632 -1.6491  0.3849
  164SAPE   C3518482   2.481   2.599   7.128 -0.2558  0.2920 -1.3319
  164SAPE   H5X18483   2.472   2.696   7.075 -3.1699  0.4555 -0.6844
  164SAPE   H5Y18484   2.587   2.566   7.119  0.2813  1.9066 -1.2084
  164SAPE   C3618485   2.449   2.628   7.279  0.8103 -0.7407 -0.5405
  164SAPE   H6X18486   2.546   2.648   7.329  0.5055  0.0284 -0.2387
  164SAPE   H6Y18487   2.413   2.536   7.329 -0.3510  0.3790  0.7716
  164SAPE   C3718488   2.336   2.729   7.292  0.2953  0.3675 -0.1307
  164SAPE   H7X18489   2.244   2.708   7.232  0.8095  2.0797 -1.6016
  164SAPE   H7Y18490   2.368   2.822   7.240  0.4338  0.3386 -0.0971
  164SAPE   C3818491   2.294   2.768   7.440 -0.0313  0.0354 -0.7612
  164SAPE   H8X18492   2.258   2.673   7.485  1.3332 -2.0253 -3.6581
  164SAPE   H8Y18493   2.199   2.826   7.432 -0.5454 -0.5842  0.5865
  164SAPE   C3918494   2.408   2.832   7.516 -0.8647  0.5481 -0.9024
  164SAPE   H9X18495   2.418   2.933   7.469 -0.3052 -0.0937 -2.2077
  164SAPE   H9Y18496   2.503   2.776   7.511 -0.9789  0.4459 -2.4980
  164SAPE  C31018497   2.365   2.845   7.669 -0.7891 -0.2333  0.4162
  164SAPE  H10X18498   2.265   2.892   7.678 -0.0276  1.3260  0.9154
  164SAPE  H10Y18499   2.444   2.915   7.703 -1.8043  1.1194  0.0749
  164SAPE  C31118500   2.371   2.711   7.741 -0.0925  0.0084  0.3945
  164SAPE  H11X18501   2.478   2.681   7.735 -0.7346 -2.0658 -2.7761
  164SAPE  H11Y18502   2.330   2.629   7.678 -0.8931  1.3160 -0.8523
  164SAPE  C31218503   2.310   2.699   7.878  0.6138  1.1664 -0.0483
  164SAPE  H12X18504   2.202   2.676   7.880  0.6745  0.8534 -0.1571
  164SAPE  H12Y18505   2.327   2.790   7.939  1.2782  0.9797  0.0540
  164SAPE  C31318506   2.378   2.583   7.954 -0.9186  0.0467 -0.4100
  164SAPE  H13X18507   2.487   2.602   7.950 -0.2992 -3.1470 -1.3081
  164SAPE  H13Y18508   2.359   2.484   7.908 -1.2301  0.0542 -0.2976
  164SAPE  C31418509   2.346   2.570   8.103  0.4390 -0.4526 -0.2640
  164SAPE  H14X18510   2.235   2.573   8.112  0.2000 -1.0118 -2.3816
  164SAPE  H14Y18511   2.390   2.652   8.164  1.3148 -1.8524  1.0611
  164SAPE  C31518512   2.398   2.433   8.161 -0.7123 -0.6282 -0.6972
  164SAPE  H15X18513   2.506   2.434   8.137 -0.2696  1.2598  1.1103
  164SAPE  H15Y18514   2.355   2.352   8.098  3.2683 -1.4252 -2.6701
  164SAPE  C31618515   2.385   2.385   8.313  0.5111  0.7239 -0.0733
  164SAPE  H16X18516   2.422   2.281   8.317 -2.2395 -0.3860 -1.2353
  164SAPE  H16Y18517   2.277   2.383   8.342  0.4609 -1.1103 -0.2735
  164SAPE  C31718518   2.460   2.478   8.410  0.3663  0.2779  0.0116
  164SAPE  H17X18519   2.426   2.584   8.404  0.5467  0.5967  3.1233
  164SAPE  H17Y18520   2.569   2.478   8.384  0.5189  3.7768  0.0812
  164SAPE  C31818521   2.454   2.420   8.548 -0.7547  0.2929 -0.1331
  164SAPE  H18X18522   2.355   2.395   8.592 -0.3241 -0.9325  0.1834
  164SAPE  H18Y18523   2.520   2.467   8.623  0.9922 -1.3515 -0.5595
  164SAPE  H18Z18524   2.511   2.326   8.527  1.7734  1.1206  2.3897
  165SAPE     N18525   2.465   6.753   6.240  0.3321  0.1672  0.3997
  165SAPE   HN118526   2.438   6.653   6.249 -1.6877  0.6939  0.6643
  165SAPE   HN218527   2.507   6.786   6.329 -0.0687 -0.3829  0.7966
  165SAPE   HN318528   2.383   6.807   6.207  1.9494  3.5790  1.5285
  165SAPE   C1218529   2.579   6.773   6.140  0.1843 -0.2263 -0.3541
  165SAPE  H12A18530   2.565   6.879   6.109 -0.0133  0.3141  1.4930
  165SAPE  H12B18531   2.552   6.706   6.056  1.4742 -1.8162  0.4358
  165SAPE   C1118532   2.722   6.744   6.190 -0.7131  0.0689 -0.7146
  165SAPE  H11A18533   2.724   6.785   6.294  1.0515  1.7036 -1.3359
  165SAPE  H11B18534   2.795   6.800   6.128 -1.9665 -0.3655 -2.6709
  165SAPE     P18535   2.851   6.538   6.289  0.4393 -0.2417 -0.1143
  165SAPE   O1318536   2.784   6.410   6.331  0.4648  0.0666  0.1119
  165SAPE   O1418537   2.987   6.528   6.225  0.1882  0.1452  0.6199
  165SAPE   O1218538   2.752   6.608   6.187 -0.5694  0.1926  0.4394
  165SAPE   O1118539   2.859   6.632   6.413  0.5180 -0.5435  0.3051
  165SAPE    C118540   2.969   6.659   6.493 -0.4527  0.2800 -0.8115
  165SAPE    HA18541   3.037   6.573   6.513 -1.1038  0.1573  1.0917
  165SAPE    HB18542   3.036   6.726   6.435  0.8127 -2.8120 -3.2208
  165SAPE    C218543   2.926   6.735   6.624 -0.2098 -0.1877  0.3839
  165SAPE    HS18544   3.004   6.812   6.643 -0.9032  0.6605 -0.1145
  165SAPE   O2118545   2.909   6.637   6.726 -0.3925  0.1529  0.4163
  165SAPE   C2118546   2.977   6.656   6.831 -0.0879 -0.2446 -0.0496
  165SAPE   O2218547   3.070   6.734   6.852 -0.0195  0.1161  0.3228
  165SAPE   C2218548   2.936   6.541   6.923  0.1933 -0.3868  0.5462
  165SAPE   H2R18549   2.832   6.566   6.951 -0.8719 -1.9184 -1.7418
  165SAPE   H2S18550   2.933   6.439   6.878 -0.9635 -0.0219 -0.2468
  165SAPE    C318551   2.793   6.814   6.596 -0.8169  0.2562 -0.3797
  165SAPE    HX18552   2.706   6.746   6.582 -0.1581 -0.8372  0.7067
  165SAPE    HY18553   2.814   6.881   6.510  2.9728 -1.0068 -0.6425
  165SAPE   O3118554   2.767   6.909   6.704 -0.1377 -0.1720  0.5988
  165SAPE   C3118555   2.694   6.865   6.807  0.0816  0.1755 -0.0764
  165SAPE   O3218556   2.636   6.756   6.810 -0.5825  0.5532  0.3372
  165SAPE   C3218557   2.709   6.959   6.930 -0.0071 -0.4604  0.4873
  165SAPE   H2X18558   2.682   7.058   6.889 -0.0142 -1.0948 -1.1256
  165SAPE   H2Y18559   2.819   6.958   6.943  0.2259 -1.5517 -1.2864
  165SAPE   C2318560   3.013   6.537   7.056 -0.1846 -0.3572 -0.0095
  165SAPE   H3R18561   3.023   6.640   7.096 -2.8276  0.4702 -1.2909
  165SAPE   H3S18562   3.115   6.491   7.048 -1.2757 -3.0845  0.5168
  165SAPE   C2418563   2.948   6.460   7.164  0.3106 -0.4100  0.1734
  165SAPE   H4R18564   2.952   6.356   7.126  1.0676 -0.1054 -0.6231
  165SAPE   H4S18565   2.849   6.507   7.184 -1.1710 -3.1433 -0.2319
  165SAPE   C2518566   3.040   6.472   7.284 -0.1933 -0.0968  0.6441
  165SAPE   H5R18567   3.147   6.482   7.262 -0.1846 -1.4014  0.0328
  165SAPE   C2618568   3.007   6.484   7.416  0.0436  0.1394 -0.0635
  165SAPE   H6R18569   3.089   6.517   7.482 -0.8880  3.4257 -0.3454
  165SAPE   C2718570   2.874   6.487   7.490  0.3677 -0.7132 -0.1191
  165SAPE   H7R18571   2.800   6.460   7.411  0.3671  1.5158 -0.9539
  165SAPE   H7S18572   2.855   6.594   7.511  0.4839 -1.2691  3.4488
  165SAPE   C2818573   2.856   6.402   7.610 -0.9418 -0.5236 -0.2855
  165SAPE   H8R18574   2.792   6.313   7.600  0.2111 -1.4222  0.1554
  165SAPE   C2918575   2.912   6.424   7.734 -0.1671 -0.5371  0.4346
  165SAPE   H9R18576   2.896   6.352   7.816  0.2123  1.5001  2.3982
  165SAPE  C21018577   3.005   6.541   7.759 -0.4786  0.6353  0.6279
  165SAPE  H10R18578   3.023   6.610   7.674 -0.7015 -2.2268 -1.9050
  165SAPE  H10S18579   3.098   6.489   7.790 -0.3219  1.8103  2.2640
  165SAPE  C21118580   2.950   6.616   7.874  0.1922  0.2127  1.1672
  165SAPE  H11R18581   2.855   6.668   7.855  0.2622 -0.7008 -2.3173
  165SAPE  C21218582   3.002   6.641   7.996 -0.1732  0.6921 -0.1000
  165SAPE  H12R18583   2.937   6.697   8.065 -0.7590  0.6150 -0.5748
  165SAPE  C21318584   3.148   6.603   8.041  0.0451 -0.0998 -0.1528
  165SAPE  H13R18585   3.181   6.504   8.004  0.6961  0.2602 -0.5676
  165SAPE  H13S18586   3.141   6.584   8.150 -2.8881  0.9414 -0.0882
  165SAPE  C21418587   3.263   6.692   7.994 -0.2800  0.2532  0.4593
  165SAPE  H14R18588   3.301   6.684   7.891  1.0972 -1.4447  1.0542
  165SAPE  C21518589   3.328   6.779   8.072  0.7013  0.5888 -0.4571
  165SAPE  H15R18590   3.417   6.829   8.029  1.0475  0.4043  0.0295
  165SAPE  C21618591   3.302   6.802   8.218 -0.0373 -0.3756  0.6118
  165SAPE  H16R18592   3.211   6.759   8.263  0.8043 -2.2332  0.6158
  165SAPE  H16S18593   3.302   6.911   8.239 -0.0685 -0.0458 -0.9793
  165SAPE  C21718594   3.416   6.724   8.292 -0.7220  0.2316  0.3543
  165SAPE  H17R18595   3.413   6.619   8.257  2.5532  0.2752 -0.4532
  165SAPE  H17S18596   3.399   6.718   8.402  0.4054  2.1871  0.6919
  165SAPE  C21818597   3.564   6.777   8.266  0.1816  0.1159 -1.1054
  165SAPE  H18R18598   3.560   6.887   8.282  1.3996  0.0538 -0.2514
  165SAPE  H18S18599   3.599   6.768   8.161 -1.2336  0.9598 -1.6823
  165SAPE  C21918600   3.672   6.701   8.344 -0.3903 -0.1344  0.2302
  165SAPE  H19R18601   3.675   6.593   8.317 -1.2204  0.5242 -2.8967
  165SAPE  H19S18602   3.649   6.704   8.453 -0.7229 -1.2161  0.2059
  165SAPE  C22018603   3.811   6.764   8.321 -0.0401  0.0913  0.3377
  165SAPE  H20R18604   3.791   6.873   8.317 -4.7916 -0.6342 -2.1314
  165SAPE  H20S18605   3.862   6.729   8.229  1.4597 -0.2419  1.2489
  165SAPE  H20T18606   3.874   6.754   8.413 -0.1912  1.5429  0.6208
  165SAPE   C3318607   2.645   6.927   7.067 -0.7543 -0.2296  0.2182
  165SAPE   H3X18608   2.538   6.908   7.045  0.0602 -2.0013 -2.9592
  165SAPE   H3Y18609   2.647   7.012   7.138  0.6169 -1.6325  1.9424
  165SAPE   C3418610   2.701   6.799   7.123  0.9278 -0.3236 -0.0930
  165SAPE   H4X18611   2.809   6.821   7.137  0.5229  2.3585 -0.6854
  165SAPE   H4Y18612   2.690   6.722   7.043 -1.2207  0.2105 -0.3599
  165SAPE   C3518613   2.641   6.767   7.258 -0.1531  0.1167 -0.3716
  165SAPE   H5X18614   2.684   6.666   7.275  2.3606  1.2261  0.3467
  165SAPE   H5Y18615   2.531   6.758   7.245  0.1883 -2.6056 -2.1882
  165SAPE   C3618616   2.671   6.865   7.372  0.5783  0.6932  0.4694
  165SAPE   H6X18617   2.634   6.970   7.372  0.6149  0.7242 -0.8416
  165SAPE   H6Y18618   2.779   6.888   7.380  0.1810  2.1734  2.4130
  165SAPE   C3718619   2.607   6.801   7.498 -0.4806 -0.5843  0.7018
  165SAPE   H7X18620   2.666   6.708   7.509  0.5524  0.0741  0.8907
  165SAPE   H7Y18621   2.504   6.773   7.466 -0.3207 -0.7869  0.3637
  165SAPE   C3818622   2.604   6.889   7.622 -0.3423  0.0923  1.2954
  165SAPE   H8X18623   2.551   6.986   7.620  0.1856  0.3774  1.1037
  165SAPE   H8Y18624   2.712   6.910   7.635  0.1091  0.5776 -2.2167
  165SAPE   C3918625   2.574   6.804   7.750  0.7397  0.4097 -0.7179
  165SAPE   H9X18626   2.635   6.711   7.758 -0.9578 -0.6116  2.0897
  165SAPE   H9Y18627   2.468   6.772   7.750  0.6527  0.6081  0.8397
  165SAPE  C31018628   2.590   6.895   7.860  0.3004 -0.1575  0.3305
  165SAPE  H10X18629   2.523   6.978   7.827  0.7831 -0.5574 -1.7975
  165SAPE  H10Y18630   2.693   6.937   7.859  0.1494  0.2574 -1.4675
  165SAPE  C31118631   2.559   6.834   7.997  0.6089 -0.2890  0.1515
  165SAPE  H11X18632   2.633   6.752   8.010  0.0221 -0.5410  2.1997
  165SAPE  H11Y18633   2.462   6.778   7.989  1.3722 -1.5576 -0.6336
  165SAPE  C31218634   2.555   6.943   8.110  0.4857  0.3533 -0.9663
  165SAPE  H12X18635   2.458   6.997   8.106  0.5786  0.4798 -1.5680
  165SAPE  H12Y18636   2.643   7.009   8.099  0.7209  0.7827  2.4073
  165SAPE  C31318637   2.553   6.877   8.249  0.1085 -0.5857  0.6304
  165SAPE  H13X18638   2.490   6.786   8.256  1.0628 -1.1615  2.6749
  165SAPE  H13Y18639   2.519   6.952   8.323  1.8125  0.0468  0.8191
  165SAPE  C31418640   2.689   6.824   8.297  0.4192 -0.1624 -0.1530
  165SAPE  H14X18641   2.770   6.900   8.307  0.0159  0.1742  0.6674
  165SAPE  H14Y18642   2.716   6.759   8.211  0.4510 -1.8525  1.1008
  165SAPE  C31518643   2.671   6.741   8.429 -0.5372  0.2138 -0.0023
  165SAPE  H15X18644   2.568   6.700   8.438 -1.0369  1.5343  0.5314
  165SAPE  H15Y18645   2.666   6.819   8.508 -0.3145  1.9053 -1.5727
  165SAPE  C31618646   2.783   6.639   8.467 -0.3238  0.1891  0.1887
  165SAPE  H16X18647   2.768   6.553   8.398 -0.4906 -0.0013  0.4590
  165SAPE  H16Y18648   2.777   6.599   8.570 -1.6838  1.8181  0.8013
  165SAPE  C31718649   2.930   6.694   8.461  0.1526  0.4962 -0.1417
  165SAPE  H17X18650   2.936   6.774   8.537 -0.3741 -0.1358  0.5781
  165SAPE  H17Y18651   2.940   6.739   8.359 -1.4529  2.1142  0.3681
  165SAPE  C31818652   3.035   6.588   8.484  0.4535 -0.1601  0.7242
  165SAPE  H18X18653   3.023   6.507   8.410  0.8237  1.1650 -0.8424
  165SAPE  H18Y18654   3.026   6.539   8.583 -0.5915 -0.3429  0.5527
  165SAPE  H18Z18655   3.137   6.632   8.482  0.8195 -0.7184  3.3419
  166SAPE     N18656   3.374   1.751   5.742  0.5335  0.3560  0.2568
  166SAPE   HN118657   3.464   1.709   5.774 -0.6118 -0.9295  1.9398
  166SAPE   HN218658   3.301   1.677   5.746 -1.6948  2.4806  0.9101
  166SAPE   HN318659   3.372   1.780   5.642  0.3954 -3.1947 -0.8952
  166SAPE   C1218660   3.328   1.843   5.849  0.4076 -0.3808 -0.5160
  166SAPE  H12A18661   3.282   1.935   5.808  0.0971  0.2310  1.1393
  166SAPE  H12B18662   3.420   1.867   5.907 -0.1215  2.2103 -0.6424
  166SAPE   C1118663   3.231   1.785   5.955  0.0725  0.5076  0.3043
  166SAPE  H11A18664   3.265   1.832   6.050  1.9752  0.0905 -0.1213
  166SAPE  H11B18665   3.253   1.677   5.965  0.7866  0.7679  1.8058
  166SAPE     P18666   3.013   1.937   6.003 -0.3569 -0.1906 -0.0817
  166SAPE   O1318667   3.081   2.069   6.000  0.4586  0.2868  0.0110
  166SAPE   O1418668   2.883   1.938   5.938 -0.2405  0.2288  0.3661
  166SAPE   O1218669   3.095   1.821   5.937 -0.3461 -0.2687  0.7590
  166SAPE   O1118670   2.991   1.889   6.146 -0.3134  0.1117  0.0871
  166SAPE    C118671   2.962   1.750   6.185 -0.1522 -0.1214 -0.4379
  166SAPE    HA18672   2.854   1.733   6.171 -0.1233  0.8611 -2.1421
  166SAPE    HB18673   3.031   1.678   6.136 -1.4622 -1.3136 -0.5729
  166SAPE    C218674   2.974   1.739   6.343 -0.4876  0.4223 -0.9948
  166SAPE    HS18675   2.894   1.674   6.385  0.0301 -0.0145 -0.6661
  166SAPE   O2118676   2.965   1.867   6.405 -0.7230 -0.2190 -0.1750
  166SAPE   C2118677   2.841   1.921   6.419  0.1228 -0.0043  0.9453
  166SAPE   O2218678   2.743   1.863   6.370  0.9379  0.2966  0.5002
  166SAPE   C2218679   2.841   2.063   6.472  0.0343 -0.5741 -0.4491
  166SAPE   H2R18680   2.942   2.073   6.518  0.0474  1.0119 -0.7682
  166SAPE   H2S18681   2.840   2.133   6.385  0.6230  1.4500  1.0976
  166SAPE    C318682   3.105   1.676   6.394 -0.6916 -0.4394 -0.3323
  166SAPE    HX18683   3.198   1.731   6.372 -0.6108  0.5412  2.1094
  166SAPE    HY18684   3.107   1.585   6.330 -0.7792  0.7975 -2.1444
  166SAPE   O3118685   3.092   1.638   6.534 -0.1136  0.0940  0.7358
  166SAPE   C3118686   3.147   1.710   6.617 -0.3882  0.5832  0.1944
  166SAPE   O3218687   3.212   1.810   6.598  0.0564 -0.0496 -0.2226
  166SAPE   C3218688   3.135   1.643   6.756 -0.0279  0.1368 -0.4314
  166SAPE   H2X18689   3.227   1.583   6.774 -0.8188 -1.6370 -1.9090
  166SAPE   H2Y18690   3.041   1.584   6.757  0.9597 -1.5470  1.8683
  166SAPE   C2318691   2.732   2.087   6.573 -0.4054  0.2215  0.1338
  166SAPE   H3R18692   2.723   1.998   6.640  4.8032 -0.5516  0.2588
  166SAPE   H3S18693   2.631   2.109   6.532 -1.5975 -0.8718  2.2896
  166SAPE   C2418694   2.759   2.214   6.665 -0.2155 -0.1303 -0.7391
  166SAPE   H4R18695   2.676   2.208   6.739  0.9171  0.2370  0.6070
  166SAPE   H4S18696   2.746   2.307   6.606 -1.2498  1.6300  2.0495
  166SAPE   C2518697   2.894   2.210   6.745  0.1478  0.4070 -0.3686
  166SAPE   H5R18698   2.976   2.144   6.711  0.7333  0.9313  0.0099
  166SAPE   C2618699   2.928   2.262   6.857  0.1539 -0.1266  0.1629
  166SAPE   H6R18700   3.026   2.245   6.904 -0.0118  3.3860  2.1071
  166SAPE   C2718701   2.835   2.335   6.954  0.4893  0.1924 -0.1015
  166SAPE   H7R18702   2.750   2.264   6.962 -1.0674  2.1564  1.7743
  166SAPE   H7S18703   2.805   2.433   6.911  2.8601  1.1896  0.3389
  166SAPE   C2818704   2.897   2.353   7.091  0.4722 -0.0664  0.2621
  166SAPE   H8R18705   2.994   2.405   7.092  0.6812 -0.3120 -1.8668
  166SAPE   C2918706   2.843   2.319   7.211 -0.4575 -0.0393 -0.4920
  166SAPE   H9R18707   2.907   2.322   7.300  0.6486 -0.7922 -1.2401
  166SAPE  C21018708   2.713   2.249   7.234 -0.4235 -0.4893 -0.1539
  166SAPE  H10R18709   2.710   2.174   7.152 -0.7285 -2.1606  1.3155
  166SAPE  H10S18710   2.623   2.314   7.221 -0.9998 -0.6177  2.5363
  166SAPE  C21118711   2.699   2.181   7.368  0.5388  0.5127  0.4432
  166SAPE  H11R18712   2.684   2.072   7.355 -0.2211  0.9362 -3.1718
  166SAPE  C21218713   2.713   2.229   7.494 -0.4911  0.1143 -0.1205
  166SAPE  H12R18714   2.693   2.164   7.581 -0.1572 -1.9452 -1.5088
  166SAPE  C21318715   2.742   2.370   7.528 -0.3325 -0.5548 -0.5837
  166SAPE  H13R18716   2.652   2.415   7.573 -1.3735 -2.1709 -0.9566
  166SAPE  H13S18717   2.767   2.426   7.435  4.1891  0.6064  1.0731
  166SAPE  C21418718   2.859   2.388   7.622  0.1765 -0.1783 -0.2536
  166SAPE  H14R18719   2.938   2.453   7.582 -0.2812  1.1282  0.8842
  166SAPE  C21518720   2.861   2.373   7.749  0.1878  0.4130 -0.0840
  166SAPE  H15R18721   2.945   2.413   7.807  0.6071  0.8714 -0.9829
  166SAPE  C21618722   2.747   2.317   7.830 -0.1680  0.3089 -0.3027
  166SAPE  H16R18723   2.687   2.238   7.779  1.3700 -0.4609 -1.0023
  166SAPE  H16S18724   2.671   2.392   7.859 -0.9857  0.1172 -1.8295
  166SAPE  C21718725   2.793   2.265   7.974 -0.3149 -0.0220  0.1137
  166SAPE  H17R18726   2.890   2.211   7.967  1.1783  2.5002 -0.0683
  166SAPE  H17S18727   2.717   2.189   8.003 -0.9294 -0.1445 -1.6631
  166SAPE  C21818728   2.812   2.368   8.075  0.1121  0.6025 -0.1557
  166SAPE  H18R18729   2.723   2.434   8.083 -0.7494 -0.6863  1.8497
  166SAPE  H18S18730   2.905   2.427   8.055 -0.0781  1.0229  0.1709
  166SAPE  C21918731   2.824   2.311   8.219  0.3903 -0.5610 -0.5796
  166SAPE  H19R18732   2.905   2.236   8.231 -0.2397 -1.3517 -1.1901
  166SAPE  H19S18733   2.724   2.267   8.240  0.2235 -0.6945 -1.6161
  166SAPE  C22018734   2.849   2.423   8.324  0.2104 -0.3693 -0.2896
  166SAPE  H20R18735   2.764   2.495   8.325  0.3641 -0.1906  0.6779
  166SAPE  H20S18736   2.935   2.487   8.298  0.9047 -1.1629  0.0244
  166SAPE  H20T18737   2.862   2.394   8.430 -0.3462  1.7512  0.4139
  166SAPE   C3318738   3.125   1.735   6.868  0.5433 -0.8123 -0.6634
  166SAPE   H3X18739   3.210   1.803   6.885  0.9256 -1.6120  0.8485
  166SAPE   H3Y18740   3.134   1.682   6.966 -0.0645  1.6193  0.7881
  166SAPE   C3418741   2.998   1.819   6.885  1.1177 -0.3142 -0.0785
  166SAPE   H4X18742   2.902   1.764   6.881  1.0488 -0.1876 -0.1702
  166SAPE   H4Y18743   2.988   1.889   6.799 -1.1818  0.1869  0.5292
  166SAPE   C3518744   2.991   1.900   7.016 -0.1793  0.3425 -0.1174
  166SAPE   H5X18745   2.892   1.944   7.040  0.7447  1.5900  1.6439
  166SAPE   H5Y18746   3.051   1.989   6.987  0.1836  0.0775 -0.1933
  166SAPE   C3618747   3.039   1.834   7.143  0.3311 -0.2720  0.4136
  166SAPE   H6X18748   3.142   1.798   7.124  0.0627 -0.9019  0.1425
  166SAPE   H6Y18749   2.985   1.739   7.164  1.9639 -1.1557  0.7380
  166SAPE   C3718750   3.038   1.918   7.276 -0.1592  0.6160 -0.4933
  166SAPE   H7X18751   2.935   1.957   7.291 -0.6723 -0.3903 -1.2127
  166SAPE   H7Y18752   3.094   2.013   7.266  2.3554 -0.8122 -0.6783
  166SAPE   C3818753   3.084   1.846   7.404  0.5800 -0.2431  0.9314
  166SAPE   H8X18754   3.194   1.833   7.410  0.5690 -0.6030  0.4522
  166SAPE   H8Y18755   3.027   1.752   7.423 -2.8208  1.9784  2.7755
  166SAPE   C3918756   3.028   1.923   7.530  0.5157 -0.1962 -0.2994
  166SAPE   H9X18757   2.921   1.896   7.524  0.1367  0.7787  1.4126
  166SAPE   H9Y18758   3.034   2.034   7.522 -0.6936 -0.0091  0.9762
  166SAPE  C31018759   3.094   1.878   7.663  0.0789  0.2297 -0.4621
  166SAPE  H10X18760   3.196   1.923   7.669  0.3777 -0.5399  0.5029
  166SAPE  H10Y18761   3.104   1.768   7.666 -3.3230 -0.2283 -2.0944
  166SAPE  C31118762   3.015   1.928   7.787 -0.4982  0.1802  1.0970
  166SAPE  H11X18763   2.918   1.877   7.768 -0.1246 -0.5899  1.2051
  166SAPE  H11Y18764   3.003   2.037   7.801  1.1975  0.2103  2.5550
  166SAPE  C31218765   3.079   1.896   7.920 -0.3558  0.1167  0.0771
  166SAPE  H12X18766   3.163   1.969   7.932  2.1584 -2.7154  0.9474
  166SAPE  H12Y18767   3.134   1.800   7.912  0.8066  0.6244  1.5450
  166SAPE  C31318768   2.991   1.918   8.040  0.4147  0.0052 -0.3944
  166SAPE  H13X18769   2.907   1.846   8.033  0.6561 -0.3157 -0.0751
  166SAPE  H13Y18770   2.947   2.019   8.028 -0.4954  0.1304  2.9623
  166SAPE  C31418771   3.073   1.905   8.172  0.0437  0.1036 -0.0311
  166SAPE  H14X18772   3.135   1.996   8.183  0.2657  0.1699 -1.6118
  166SAPE  H14Y18773   3.128   1.809   8.166 -1.5040 -0.7641 -1.0979
  166SAPE  C31518774   2.978   1.890   8.296 -0.0432 -0.2253 -0.0870
  166SAPE  H15X18775   2.915   1.799   8.282  0.1056 -0.5160  1.0377
  166SAPE  H15Y18776   2.896   1.965   8.299 -1.3577 -1.6114  0.5393
  166SAPE  C31618777   3.052   1.882   8.427  0.3322 -0.4384  0.8591
  166SAPE  H16X18778   3.100   1.982   8.436 -0.3375  0.1589 -1.5718
  166SAPE  H16Y18779   3.133   1.809   8.403 -0.3781 -0.2219 -2.7825
  166SAPE  C31718780   2.963   1.831   8.544 -0.4539 -0.1647  0.0555
  166SAPE  H17X18781   2.955   1.721   8.525  0.7474 -0.5491  1.6250
  166SAPE  H17Y18782   2.862   1.870   8.519  0.2940  0.9576 -1.4329
  166SAPE  C31818783   3.011   1.850   8.687  0.2078  0.3056 -0.3795
  166SAPE  H18X18784   3.001   1.958   8.713 -0.9356  0.6095 -1.9550
  166SAPE  H18Y18785   3.118   1.826   8.699 -0.5366 -2.5846  1.3764
  166SAPE  H18Z18786   2.945   1.793   8.755 -0.8924  4.0619  2.0361
  167SAPE     N18787   4.302   3.128   6.463  0.4470  1.6946  0.8277
  167SAPE   HN118788   4.311   3.229   6.486 -1.5411  2.2830 -0.6753
  167SAPE   HN218789   4.390   3.073   6.458 -1.0379 -0.7646 -0.9781
  167SAPE   HN318790   4.266   3.128   6.366  0.0556 -3.1626  0.7337
  167SAPE   C1218791   4.209   3.078   6.560 -0.5786 -0.2748 -0.3426
  167SAPE  H12A18792   4.121   3.145   6.568  1.4986  2.4676  1.6172
  167SAPE  H12B18793   4.257   3.078   6.661  0.4967 -2.0290 -0.8127
  167SAPE   C1118794   4.180   2.924   6.533 -0.2278  0.1528  0.5482
  167SAPE  H11A18795   4.116   2.885   6.615 -1.0862  1.1160  0.3709
  167SAPE  H11B18796   4.279   2.875   6.541 -1.4292 -2.9605 -1.5030
  167SAPE     P18797   4.076   2.744   6.371 -0.0614 -0.6543 -0.2132
  167SAPE   O1318798   3.969   2.750   6.275  0.0216  0.4565  0.1030
  167SAPE   O1418799   4.198   2.664   6.329  0.2498 -0.6089 -0.5559
  167SAPE   O1218800   4.126   2.893   6.404  0.2728 -0.3916  0.0653
  167SAPE   O1118801   4.023   2.691   6.510 -0.9845 -0.6143  0.0762
  167SAPE    C118802   3.890   2.726   6.557 -0.3378  0.2495 -0.1163
  167SAPE    HA18803   3.893   2.827   6.603  3.6109  0.7260 -1.0872
  167SAPE    HB18804   3.809   2.712   6.482  1.9449 -1.7823 -2.3791
  167SAPE    C218805   3.846   2.630   6.670  0.5137  0.3147  0.5401
  167SAPE    HS18806   3.736   2.645   6.664  0.5558  0.0774 -1.5251
  167SAPE   O2118807   3.916   2.663   6.792 -0.2920 -0.2392 -0.2662
  167SAPE   C2118808   3.862   2.761   6.860 -0.1569 -0.0937 -0.1026
  167SAPE   O2218809   3.763   2.822   6.830  0.3744 -0.4479  0.3496
  167SAPE   C2218810   3.935   2.770   6.991 -0.0855 -0.4523 -0.2228
  167SAPE   H2R18811   3.999   2.682   7.011 -1.4567 -1.4088  0.1462
  167SAPE   H2S18812   4.003   2.857   6.986 -0.0817 -0.3435  1.2668
  167SAPE    C318813   3.869   2.478   6.634  0.4509 -0.6139  0.3957
  167SAPE    HX18814   3.980   2.469   6.626  1.0077  3.3550  1.5355
  167SAPE    HY18815   3.818   2.460   6.536  1.7438 -0.7193 -0.2847
  167SAPE   O3118816   3.811   2.383   6.719  0.0016 -0.0594  0.1161
  167SAPE   C3118817   3.873   2.350   6.831  0.5814 -0.0663  0.0023
  167SAPE   O3218818   3.987   2.386   6.865 -0.0543  0.0126 -0.4023
  167SAPE   C3218819   3.768   2.275   6.913 -0.3643 -0.2037  0.3404
  167SAPE   H2X18820   3.727   2.208   6.834 -0.4451  2.2910 -1.8708
  167SAPE   H2Y18821   3.693   2.349   6.947  1.1058  1.8630 -0.6818
  167SAPE   C2318822   3.835   2.771   7.115 -0.4595 -1.1070  0.1398
  167SAPE   H3R18823   3.762   2.850   7.091 -0.6445 -1.6978 -1.3362
  167SAPE   H3S18824   3.880   2.805   7.211  1.4787 -4.1616  0.4658
  167SAPE   C2418825   3.751   2.644   7.139 -0.0361  0.4176 -1.0992
  167SAPE   H4R18826   3.685   2.630   7.051 -1.1938  0.2142 -0.2301
  167SAPE   H4S18827   3.692   2.661   7.232  2.5857 -0.0659  0.7637
  167SAPE   C2518828   3.844   2.530   7.169 -0.4379  0.1066  0.2717
  167SAPE   H5R18829   3.924   2.514   7.095 -0.6341  0.9312 -0.1344
  167SAPE   C2618830   3.840   2.464   7.284 -0.2044  0.4957  0.2461
  167SAPE   H6R18831   3.920   2.390   7.298  0.6919  1.1145 -1.2892
  167SAPE   C2718832   3.755   2.468   7.407  0.6854 -0.0920 -0.1118
  167SAPE   H7R18833   3.656   2.508   7.378 -1.1025 -2.3625  2.3357
  167SAPE   H7S18834   3.802   2.543   7.475  2.1810 -1.8450  0.8733
  167SAPE   C2818835   3.747   2.343   7.478 -0.7157 -0.4306 -1.2229
  167SAPE   H8R18836   3.777   2.250   7.428  1.7413 -0.7052  0.5492
  167SAPE   C2918837   3.694   2.329   7.604 -0.4409 -0.1555 -0.4656
  167SAPE   H9R18838   3.704   2.237   7.663 -1.7905 -0.2622 -0.3761
  167SAPE  C21018839   3.648   2.448   7.689 -0.4139  0.5942 -0.1686
  167SAPE  H10R18840   3.569   2.402   7.752 -0.0682 -0.3570 -0.4055
  167SAPE  H10S18841   3.602   2.524   7.623 -0.3004  0.6163 -0.2235
  167SAPE  C21118842   3.753   2.507   7.772 -0.1011 -0.3396  0.6990
  167SAPE  H11R18843   3.826   2.548   7.700 -1.7263  1.5024  0.0110
  167SAPE  C21218844   3.773   2.506   7.903 -0.6336 -0.0631 -0.2937
  167SAPE  H12R18845   3.858   2.564   7.943 -0.8749 -0.7144  1.2542
  167SAPE  C21318846   3.695   2.443   8.019  0.3150  0.6046  0.4357
  167SAPE  H13R18847   3.765   2.397   8.092  2.2462 -1.3066 -2.4124
  167SAPE  H13S18848   3.630   2.363   7.977  1.7752 -1.1222  1.3496
  167SAPE  C21418849   3.602   2.540   8.082  0.5834 -0.4657 -0.2267
  167SAPE  H14R18850   3.532   2.595   8.017  0.8133  0.8576  0.6172
  167SAPE  C21518851   3.591   2.560   8.217  0.1734  0.1611  0.1013
  167SAPE  H15R18852   3.523   2.638   8.254  0.3094  0.5344 -0.4157
  167SAPE  C21618853   3.667   2.499   8.333 -0.9252  0.0806  0.5475
  167SAPE  H16R18854   3.723   2.588   8.369  1.6619 -1.5918  0.8805
  167SAPE  H16S18855   3.742   2.425   8.299  1.3071  2.2153  0.5875
  167SAPE  C21718856   3.588   2.436   8.452  0.0520  0.2560  0.2064
  167SAPE  H17R18857   3.546   2.346   8.403 -0.9293  1.4670 -1.2829
  167SAPE  H17S18858   3.502   2.503   8.476  0.3709  0.2895  1.3153
  167SAPE  C21818859   3.677   2.403   8.574 -0.1025 -0.4440 -0.1659
  167SAPE  H18R18860   3.735   2.491   8.609  0.8172 -1.3365  0.6445
  167SAPE  H18S18861   3.756   2.331   8.542  1.3460  0.5399  1.0027
  167SAPE  C21918862   3.592   2.353   8.693 -0.4064 -0.1331 -0.3697
  167SAPE  H19R18863   3.518   2.276   8.662  0.6535 -2.1380  1.7450
  167SAPE  H19S18864   3.530   2.435   8.735 -1.6456 -1.0180 -0.3805
  167SAPE  C22018865   3.667   2.281   8.803 -0.4303 -0.2681 -0.1925
  167SAPE  H20R18866   3.741   2.210   8.759 -0.9861  0.6213 -2.7222
  167SAPE  H20S18867   3.592   2.230   8.868  1.2453 -0.3405  1.7641
  167SAPE  H20T18868   3.721   2.355   8.866 -0.2582  1.1103 -1.8917
  167SAPE   C3318869   3.824   2.200   7.035 -0.9110  0.3545 -0.2634
  167SAPE   H3X18870   3.889   2.264   7.098 -1.3875 -0.5807  1.2304
  167SAPE   H3Y18871   3.891   2.119   6.998  0.5090 -0.1829  3.1188
  167SAPE   C3418872   3.717   2.130   7.133  0.0242 -0.6783 -0.0770
  167SAPE   H4X18873   3.695   2.204   7.213  0.5271 -0.0887 -0.4689
  167SAPE   H4Y18874   3.763   2.044   7.186  2.4459  0.6608  0.1441
  167SAPE   C3518875   3.586   2.084   7.060  0.6417 -0.4480 -0.4561
  167SAPE   H5X18876   3.613   2.033   6.965 -0.5005 -1.3686 -0.3148
  167SAPE   H5Y18877   3.522   2.166   7.023  1.3955 -0.2205 -1.2996
  167SAPE   C3618878   3.499   1.979   7.126 -1.1890  0.5452 -0.4283
  167SAPE   H6X18879   3.560   1.888   7.148  1.2231  2.1514 -0.1040
  167SAPE   H6Y18880   3.413   1.950   7.062 -0.9738 -0.0422 -0.4561
  167SAPE   C3718881   3.439   2.012   7.263  0.1919 -0.6541  0.4312
  167SAPE   H7X18882   3.347   1.949   7.268 -0.4081  0.2976  2.9833
  167SAPE   H7Y18883   3.411   2.118   7.280  0.8966 -0.5587  1.0658
  167SAPE   C3818884   3.513   1.972   7.388 -0.3928 -0.0765 -1.3646
  167SAPE   H8X18885   3.618   2.007   7.399 -1.3993  2.6680  0.7114
  167SAPE   H8Y18886   3.513   1.863   7.408 -2.6463 -0.0550 -1.0604
  167SAPE   C3918887   3.450   2.036   7.518  0.4204  0.1206  0.0115
  167SAPE   H9X18888   3.349   1.989   7.522  0.1543  0.7139  0.3776
  167SAPE   H9Y18889   3.427   2.140   7.488  1.5201  0.1043 -0.9791
  167SAPE  C31018890   3.525   2.011   7.650  0.5234 -0.0922 -0.8458
  167SAPE  H10X18891   3.631   2.045   7.654  0.0710  1.4151 -0.7869
  167SAPE  H10Y18892   3.517   1.903   7.675 -1.7518  0.3088  0.4696
  167SAPE  C31118893   3.444   2.082   7.753  0.0462 -0.4877 -0.2746
  167SAPE  H11X18894   3.336   2.091   7.729  0.3125  0.6589 -1.1673
  167SAPE  H11Y18895   3.473   2.189   7.742 -1.3077 -0.0191  0.5026
  167SAPE  C31218896   3.488   2.031   7.895  0.4089  0.2951  0.0976
  167SAPE  H12X18897   3.599   2.039   7.902  0.4226 -0.6663  1.1811
  167SAPE  H12Y18898   3.471   1.921   7.890  1.9375  0.0111  0.7627
  167SAPE  C31318899   3.414   2.096   8.016 -0.0462  0.0133  0.1055
  167SAPE  H13X18900   3.303   2.091   8.007 -0.1348 -0.1106  1.1591
  167SAPE  H13Y18901   3.441   2.203   8.003 -0.2841  0.2217  1.2473
  167SAPE  C31418902   3.460   2.041   8.154 -0.0160  0.1794 -0.7125
  167SAPE  H14X18903   3.570   2.056   8.150  0.2382 -1.6872 -1.7537
  167SAPE  H14Y18904   3.435   1.933   8.162 -1.7386  0.5846 -0.1192
  167SAPE  C31518905   3.410   2.113   8.281 -0.0561  0.7765  0.0544
  167SAPE  H15X18906   3.299   2.108   8.291  0.0662 -1.3761  0.9497
  167SAPE  H15Y18907   3.428   2.222   8.272 -0.4991  1.1593  2.8062
  167SAPE  C31618908   3.479   2.060   8.414  0.2637  0.3260 -0.2132
  167SAPE  H16X18909   3.471   2.148   8.481  0.7786  1.4983 -1.6550
  167SAPE  H16Y18910   3.588   2.041   8.414  0.2881  0.4593 -0.5518
  167SAPE  C31718911   3.403   1.935   8.472  0.3691  0.2696 -0.3509
  167SAPE  H17X18912   3.361   1.880   8.385 -1.0988 -0.2026  0.6182
  167SAPE  H17Y18913   3.322   1.986   8.529  0.8855 -0.3347  0.9758
  167SAPE  C31818914   3.476   1.849   8.568 -0.3058  0.4839 -1.2083
  167SAPE  H18X18915   3.418   1.761   8.602  0.1280  0.7951  0.4606
  167SAPE  H18Y18916   3.512   1.915   8.650  2.7825  0.6014 -2.5108
  167SAPE  H18Z18917   3.565   1.806   8.518  0.1601 -1.1014  0.8639
  168SAPE     N18918   4.599   3.423   6.223  0.5770 -0.5141  0.6116
  168SAPE   HN118919   4.504   3.384   6.208 -1.8572  4.8330 -0.1550
  168SAPE   HN218920   4.618   3.503   6.160  1.6755 -1.4109 -0.2382
  168SAPE   HN318921   4.670   3.352   6.195 -2.1087 -3.7197  1.3182
  168SAPE   C1218922   4.640   3.454   6.369  0.2793  0.6370 -0.1145
  168SAPE  H12A18923   4.750   3.470   6.374 -0.0612  3.1180  1.5078
  168SAPE  H12B18924   4.610   3.367   6.432 -0.9265  2.3348  1.7946
  168SAPE   C1118925   4.581   3.587   6.430 -0.8398 -0.3742 -0.0256
  168SAPE  H11A18926   4.621   3.666   6.363  0.1677 -1.2484 -0.4688
  168SAPE  H11B18927   4.619   3.606   6.533  0.7781  0.9449 -0.8144
  168SAPE     P18928   4.344   3.527   6.534 -0.2944 -0.0837  0.1146
  168SAPE   O1318929   4.215   3.595   6.526  0.1234 -0.2170  0.0037
  168SAPE   O1418930   4.342   3.382   6.500 -0.5143  0.8925  0.7326
  168SAPE   O1218931   4.442   3.593   6.422  0.0845 -0.1613 -0.4012
  168SAPE   O1118932   4.414   3.559   6.679 -0.1893 -0.1736 -0.0740
  168SAPE    C118933   4.416   3.692   6.730  0.3586 -0.3338 -0.4768
  168SAPE    HA18934   4.464   3.757   6.654  1.9360  0.2698  0.9503
  168SAPE    HB18935   4.314   3.729   6.752  0.5102  0.4341 -1.0177
  168SAPE    C218936   4.509   3.699   6.855  0.1739 -0.0204 -0.7667
  168SAPE    HS18937   4.599   3.642   6.823  0.1981 -0.2078 -0.3670
  168SAPE   O2118938   4.437   3.639   6.968 -0.1568 -0.0161  0.5459
  168SAPE   C2118939   4.520   3.594   7.064  0.1597  0.2313  0.4478
  168SAPE   O2218940   4.638   3.574   7.048 -0.8732 -0.5927  0.0171
  168SAPE   C2218941   4.448   3.581   7.191 -0.2785 -0.3577  0.1410
  168SAPE   H2R18942   4.357   3.643   7.205 -1.2425 -1.4515 -0.9801
  168SAPE   H2S18943   4.392   3.486   7.177  2.6459 -2.1674 -0.0863
  168SAPE    C318944   4.543   3.850   6.883  0.3643  0.2291  0.2982
  168SAPE    HX18945   4.571   3.883   6.781 -1.6592 -1.5945 -0.9193
  168SAPE    HY18946   4.628   3.854   6.954  0.2105  1.8409  0.4276
  168SAPE   O3118947   4.430   3.925   6.947 -0.0400 -0.7294 -0.4920
  168SAPE   C3118948   4.343   3.984   6.856  0.1523  0.7401 -0.0166
  168SAPE   O3218949   4.364   3.996   6.736 -0.1844  0.3463 -0.3102
  168SAPE   C3218950   4.218   4.039   6.926 -0.4981 -0.1782 -0.6270
  168SAPE   H2X18951   4.190   4.135   6.878  1.1786  1.4296  1.3887
  168SAPE   H2Y18952   4.234   4.068   7.032 -0.8840 -1.5756 -0.1596
  168SAPE   C2318953   4.531   3.593   7.316  0.0222 -0.4696  0.6730
  168SAPE   H3R18954   4.627   3.537   7.303  1.3242  2.1147 -2.4064
  168SAPE   H3S18955   4.469   3.557   7.401 -0.5316 -0.5459  0.2430
  168SAPE   C2418956   4.574   3.739   7.350 -0.3384  0.9381  0.5428
  168SAPE   H4R18957   4.654   3.769   7.278 -0.7786 -0.7824 -0.7238
  168SAPE   H4S18958   4.621   3.737   7.451  1.5242  1.9509 -0.2394
  168SAPE   C2518959   4.456   3.832   7.350  0.0596 -0.5522  0.4772
  168SAPE   H5R18960   4.440   3.881   7.253  1.4575  3.1165  1.9068
  168SAPE   C2618961   4.379   3.867   7.455 -0.2988  0.4650  0.2043
  168SAPE   H6R18962   4.294   3.934   7.436  0.0456  0.5065 -1.3388
  168SAPE   C2718963   4.397   3.821   7.601  0.0023  0.4715  0.8009
  168SAPE   H7R18964   4.400   3.710   7.607  1.8620  0.1711 -2.7782
  168SAPE   H7S18965   4.308   3.853   7.660 -2.8725  1.0147 -3.3675
  168SAPE   C2818966   4.523   3.878   7.662  1.0275  0.3505  0.4128
  168SAPE   H8R18967   4.574   3.947   7.593  1.9861 -0.8961 -0.1539
  168SAPE   C2918968   4.571   3.838   7.782 -0.2038 -0.2346  0.2388
  168SAPE   H9R18969   4.657   3.890   7.827 -0.7643  0.3984  0.5821
  168SAPE  C21018970   4.515   3.738   7.878 -0.0358  0.6887  0.0922
  168SAPE  H10R18971   4.404   3.728   7.869 -0.6947  1.8147  4.6610
  168SAPE  H10S18972   4.524   3.759   7.986 -0.8533 -1.7306  0.6858
  168SAPE  C21118973   4.578   3.598   7.847  0.5276 -0.3908 -0.7893
  168SAPE  H11R18974   4.567   3.562   7.744  0.8525 -1.2024 -0.5500
  168SAPE  C21218975   4.656   3.526   7.926  0.5925 -0.1762  0.9751
  168SAPE  H12R18976   4.705   3.445   7.870  1.1407  2.6087 -3.0029
  168SAPE  C21318977   4.711   3.551   8.061 -0.1274  0.1107 -0.3079
  168SAPE  H13R18978   4.714   3.451   8.109 -3.9025 -0.7532 -1.5104
  168SAPE  H13S18979   4.649   3.616   8.127  1.0748  2.4449 -1.3654
  168SAPE  C21418980   4.844   3.622   8.034  0.4809  0.7911 -0.9200
  168SAPE  H14R18981   4.847   3.701   7.958 -0.7540  1.7946  0.0307
  168SAPE  C21518982   4.960   3.593   8.091  0.0910 -0.2556  0.3152
  168SAPE  H15R18983   5.044   3.649   8.047 -0.8955  0.6377 -0.4805
  168SAPE  C21618984   5.005   3.484   8.187  0.1249  0.4183  0.6090
  168SAPE  H16R18985   5.053   3.393   8.146  0.4933 -0.2511  2.4676
  168SAPE  H16S18986   4.921   3.437   8.243  0.3610  0.0573  0.6616
  168SAPE  C21718987   5.089   3.543   8.297  0.2204  0.4156 -0.8923
  168SAPE  H17R18988   5.038   3.636   8.332 -1.1650 -0.1925 -1.2261
  168SAPE  H17S18989   5.190   3.574   8.262 -0.3073  2.1574 -0.9981
  168SAPE  C21818990   5.100   3.442   8.414  0.3004 -0.0801 -0.0549
  168SAPE  H18R18991   5.148   3.353   8.367  0.6955 -0.8770  1.7737
  168SAPE  H18S18992   5.000   3.408   8.446  0.9758 -3.2303 -0.9128
  168SAPE  C21918993   5.182   3.484   8.539 -0.7055 -0.0495 -0.3016
  168SAPE  H19R18994   5.176   3.398   8.609  0.7592  1.1798  1.3991
  168SAPE  H19S18995   5.128   3.568   8.586 -0.2575  0.1765 -0.1878
  168SAPE  C22018996   5.335   3.516   8.515  0.8277  0.7489 -0.4020
  168SAPE  H20R18997   5.377   3.547   8.613 -1.1793  0.9910  0.4397
  168SAPE  H20S18998   5.342   3.587   8.430 -2.4798  1.0175 -0.5797
  168SAPE  H20T18999   5.374   3.418   8.483 -0.5393 -0.0911  0.4099
  168SAPE   C3319000   4.095   3.948   6.929 -0.3256 -0.3184 -0.6073
  168SAPE   H3X19001   4.074   3.903   6.830  2.5776 -0.0075 -1.4473
  168SAPE   H3Y19002   4.016   4.019   6.964  1.3683  0.9353  0.8501
  168SAPE   C3419003   4.099   3.840   7.034  0.5375  0.4246  0.5436
  168SAPE   H4X19004   4.175   3.869   7.109  1.0933  1.6576 -0.4438
  168SAPE   H4Y19005   4.127   3.746   6.982 -0.1863  0.3168  0.3417
  168SAPE   C3519006   3.959   3.816   7.100 -0.1007  0.6006 -0.2151
  168SAPE   H5X19007   3.888   3.819   7.014  1.9169  0.6552 -1.9426
  168SAPE   H5Y19008   3.924   3.898   7.167 -3.6368  0.4438 -1.6493
  168SAPE   C3619009   3.957   3.691   7.183  0.3257  0.2657 -0.5445
  168SAPE   H6X19010   3.980   3.608   7.113 -0.9625  2.0754 -3.2769
  168SAPE   H6Y19011   3.851   3.668   7.205  0.0494  1.1049 -0.9662
  168SAPE   C3719012   4.039   3.707   7.313  0.1325  0.3860 -0.2358
  168SAPE   H7X19013   3.976   3.778   7.371 -1.5402 -1.3427  0.1742
  168SAPE   H7Y19014   4.138   3.753   7.297  0.1460  1.5698  2.7421
  168SAPE   C3819015   4.035   3.574   7.396 -0.3123 -0.1819  0.0708
  168SAPE   H8X19016   4.086   3.491   7.344 -1.2198  0.1087 -1.3416
  168SAPE   H8Y19017   3.925   3.565   7.414 -0.4515  1.9641  0.6332
  168SAPE   C3919018   4.096   3.585   7.530 -0.0338  0.6170 -1.3550
  168SAPE   H9X19019   4.056   3.680   7.571 -0.5393 -0.6719  1.3156
  168SAPE   H9Y19020   4.206   3.604   7.525  0.3904 -0.9544  0.6364
  168SAPE  C31019021   4.075   3.468   7.622  0.3380  0.1244 -0.1099
  168SAPE  H10X19022   4.112   3.374   7.575  1.6527 -0.2335  1.5439
  168SAPE  H10Y19023   3.969   3.451   7.652  0.2565  1.3510  0.3585
  168SAPE  C31119024   4.152   3.481   7.754  0.7353 -0.1269  0.3750
  168SAPE  H11X19025   4.249   3.528   7.730 -0.1483  0.9243 -1.3908
  168SAPE  H11Y19026   4.153   3.376   7.790 -0.6554  0.0920  1.1296
  168SAPE  C31219027   4.101   3.567   7.868 -0.2346 -0.3901  0.8084
  168SAPE  H12X19028   4.058   3.663   7.831  0.3308  0.8536  3.1966
  168SAPE  H12Y19029   4.175   3.614   7.935 -0.5234  1.2467  0.0371
  168SAPE  C31319030   3.985   3.501   7.949  0.1061 -0.7613 -0.0262
  168SAPE  H13X19031   4.029   3.405   7.982  3.0546  0.4492 -0.0873
  168SAPE  H13Y19032   3.892   3.504   7.888  0.7662  0.3185 -1.0400
  168SAPE  C31419033   3.979   3.564   8.095  0.6963  0.5499  0.4115
  168SAPE  H14X19034   3.976   3.673   8.074 -0.5027  0.1650 -1.6572
  168SAPE  H14Y19035   4.072   3.536   8.150  1.5282  1.5798 -0.4368
  168SAPE  C31519036   3.851   3.521   8.175  0.3758 -0.5108 -0.7514
  168SAPE  H15X19037   3.807   3.429   8.132 -1.2265 -0.6686  1.1067
  168SAPE  H15Y19038   3.772   3.596   8.154  0.5064 -0.4644 -1.0877
  168SAPE  C31619039   3.872   3.505   8.328  0.3963  0.2725  0.2492
  168SAPE  H16X19040   3.948   3.426   8.346 -0.6359 -0.9705 -0.6513
  168SAPE  H16Y19041   3.768   3.485   8.363  0.2278  2.5148  1.1744
  168SAPE  C31719042   3.914   3.643   8.381 -0.4604  0.6827 -0.5940
  168SAPE  H17X19043   3.826   3.711   8.383 -0.4710  0.6876 -1.2492
  168SAPE  H17Y19044   3.987   3.696   8.318  0.2350 -1.9512 -2.1736
  168SAPE  C31819045   3.971   3.643   8.524 -0.2793  0.3294 -0.3513
  168SAPE  H18X19046   3.908   3.696   8.598 -0.3746 -0.6457  0.2763
  168SAPE  H18Y19047   4.075   3.682   8.520  0.2171 -0.6576  1.5818
  168SAPE  H18Z19048   3.983   3.536   8.551 -0.9612  0.2091 -0.5208
  169SAPE     N19049   4.038   5.961   6.163 -0.4151 -0.4140  0.1263
  169SAPE   HN119050   3.977   5.942   6.081 -0.1407 -0.6192 -0.0311
  169SAPE   HN219051   4.104   5.883   6.180  0.1526 -0.1000 -0.5728
  169SAPE   HN319052   3.974   5.980   6.243 -0.6328 -2.2087  0.4253
  169SAPE   C1219053   4.111   6.086   6.124  0.6633  0.1564  0.0269
  169SAPE  H12A19054   4.046   6.167   6.164  1.0424  0.0742  0.8284
  169SAPE  H12B19055   4.123   6.094   6.014 -0.7043  1.2594 -0.0802
  169SAPE   C1119056   4.245   6.089   6.184  0.3772 -0.2454  0.4162
  169SAPE  H11A19057   4.294   6.187   6.164 -1.8668  0.7237 -0.6426
  169SAPE  H11B19058   4.298   6.014   6.122 -0.0603 -0.9288  0.8561
  169SAPE     P19059   4.251   6.139   6.442 -0.0628 -0.2985 -0.1847
  169SAPE   O1319060   4.389   6.165   6.484 -0.4070 -0.2445  0.7719
  169SAPE   O1419061   4.159   6.253   6.415  0.2755 -0.0104  0.3398
  169SAPE   O1219062   4.259   6.040   6.313 -0.1406  0.1931  0.2734
  169SAPE   O1119063   4.185   6.052   6.557  0.3305 -0.6389  0.0136
  169SAPE    C119064   4.173   5.908   6.560  0.1071 -0.0208  0.2769
  169SAPE    HA19065   4.078   5.884   6.507 -1.8606 -1.1639  3.9609
  169SAPE    HB19066   4.252   5.856   6.502 -2.3929 -1.1312 -2.3785
  169SAPE    C219067   4.162   5.846   6.705 -0.2233  0.2309  0.0497
  169SAPE    HS19068   4.091   5.906   6.765  1.9745  1.3214  1.7160
  169SAPE   O2119069   4.289   5.853   6.760  0.0715  0.4308  0.0750
  169SAPE   C2119070   4.306   5.891   6.877 -0.0957  0.5011 -0.4811
  169SAPE   O2219071   4.221   5.942   6.947 -0.2418 -0.8131  0.3569
  169SAPE   C2219072   4.455   5.872   6.913 -0.1427 -0.8228  0.6629
  169SAPE   H2R19073   4.508   5.793   6.855 -0.9892 -1.7456  1.1011
  169SAPE   H2S19074   4.511   5.967   6.901 -2.2378  0.4672  0.4990
  169SAPE    C319075   4.126   5.688   6.701  0.2793 -0.0406 -0.1871
  169SAPE    HX19076   4.190   5.634   6.629  0.0767 -2.6226  1.4285
  169SAPE    HY19077   4.023   5.670   6.662  1.0327  0.3861 -2.5072
  169SAPE   O3119078   4.145   5.621   6.828  0.0759  0.4492 -0.2097
  169SAPE   C3119079   4.045   5.654   6.911 -0.9857 -0.4991 -0.5697
  169SAPE   O3219080   3.935   5.706   6.877 -0.3631  0.0205  0.6923
  169SAPE   C3219081   4.089   5.613   7.049  0.2078 -1.3241 -0.0320
  169SAPE   H2X19082   4.198   5.632   7.060 -0.3247  3.0483 -0.5072
  169SAPE   H2Y19083   4.068   5.504   7.047 -0.4515 -1.1911 -0.5654
  169SAPE   C2319084   4.468   5.812   7.057 -0.9876 -0.2322 -0.1727
  169SAPE   H3R19085   4.440   5.704   7.064 -2.7008  0.1702 -0.4591
  169SAPE   H3S19086   4.411   5.872   7.131  1.4742  1.5124  0.4247
  169SAPE   C2419087   4.620   5.827   7.112 -0.4056  0.5911  0.4416
  169SAPE   H4R19088   4.647   5.814   7.219  1.4467  0.1279 -0.0375
  169SAPE   H4S19089   4.656   5.927   7.079  3.4106 -0.9474 -0.6472
  169SAPE   C2519090   4.704   5.726   7.036  0.0817 -0.7345  0.6310
  169SAPE   H5R19091   4.743   5.771   6.943 -3.2251 -0.1564 -0.6163
  169SAPE   C2619092   4.749   5.608   7.088 -0.4839 -0.9611  0.5084
  169SAPE   H6R19093   4.830   5.556   7.034  1.9825  2.2403  0.8213
  169SAPE   C2719094   4.718   5.571   7.233 -0.1730 -0.4955 -0.0049
  169SAPE   H7R19095   4.725   5.460   7.235 -0.2521 -0.4917  0.8329
  169SAPE   H7S19096   4.618   5.599   7.275  0.1090  0.0418  0.3170
  169SAPE   C2819097   4.835   5.632   7.318 -0.2519 -0.5407 -0.3358
  169SAPE   H8R19098   4.927   5.658   7.263  0.3960 -0.3403  0.8284
  169SAPE   C2919099   4.827   5.654   7.453  0.8609  0.4144  0.2452
  169SAPE   H9R19100   4.910   5.698   7.510  0.7086  0.5705  0.3478
  169SAPE  C21019101   4.714   5.615   7.547 -0.1904 -0.6615  0.8006
  169SAPE  H10R19102   4.757   5.580   7.643  0.8677 -1.1413  0.1706
  169SAPE  H10S19103   4.671   5.524   7.500  0.0988  0.3041 -1.4501
  169SAPE  C21119104   4.615   5.738   7.559  0.3706 -0.6301  0.1681
  169SAPE  H11R19105   4.553   5.762   7.471  2.4045  0.2695 -1.1098
  169SAPE  C21219106   4.603   5.823   7.665  0.6211  0.1014  0.6010
  169SAPE  H12R19107   4.529   5.904   7.677 -0.6022 -1.2554  2.6472
  169SAPE  C21319108   4.688   5.804   7.796  0.4900  0.1408  0.1727
  169SAPE  H13R19109   4.728   5.904   7.825 -0.5908  1.6299 -3.0097
  169SAPE  H13S19110   4.783   5.753   7.767  1.1646  1.0952  0.6365
  169SAPE  C21419111   4.640   5.724   7.910  0.3301 -0.5737  0.0995
  169SAPE  H14R19112   4.712   5.643   7.923  0.5618 -0.2640  0.7616
  169SAPE  C21519113   4.535   5.744   7.986  0.4166  0.0834  0.0056
  169SAPE  H15R19114   4.512   5.678   8.070 -2.2261  0.3004 -0.4595
  169SAPE  C21619115   4.439   5.859   7.981  0.8171 -0.1923  0.0027
  169SAPE  H16R19116   4.337   5.828   7.951  0.6652 -0.2436  0.5582
  169SAPE  H16S19117   4.467   5.941   7.911 -1.9021  1.6592  0.8947
  169SAPE  C21719118   4.429   5.930   8.112 -0.2935  0.1566 -0.4591
  169SAPE  H17R19119   4.404   5.846   8.182  0.1100  0.1810 -0.2829
  169SAPE  H17S19120   4.344   6.002   8.119  0.3424  0.8189  0.8119
  169SAPE  C21819121   4.560   5.992   8.161 -0.0860 -0.1046 -0.5081
  169SAPE  H18R19122   4.609   6.056   8.084  1.8551 -1.8092 -0.7672
  169SAPE  H18S19123   4.640   5.924   8.199  1.5177  2.4514  1.0964
  169SAPE  C21919124   4.539   6.083   8.281  0.2214  0.2318 -0.0009
  169SAPE  H19R19125   4.518   6.021   8.371 -3.4468 -0.0530 -0.9079
  169SAPE  H19S19126   4.446   6.144   8.279 -0.7936 -1.1758  1.4216
  169SAPE  C22019127   4.659   6.173   8.316  0.1658  0.1178 -0.3673
  169SAPE  H20R19128   4.650   6.194   8.425 -1.3616 -0.4527 -0.3689
  169SAPE  H20S19129   4.663   6.273   8.266 -1.5129  0.8717  0.9131
  169SAPE  H20T19130   4.748   6.107   8.306 -0.4822 -0.6654 -1.0270
  169SAPE   C3319131   4.009   5.694   7.153 -0.3018  0.8407 -0.0203
  169SAPE   H3X19132   3.901   5.667   7.144  0.6326 -3.0913 -1.4575
  169SAPE   H3Y19133   4.017   5.802   7.127 -0.7487  0.9132  0.1364
  169SAPE   C3419134   4.053   5.670   7.295 -0.1147 -0.3687 -0.0345
  169SAPE   H4X19135   4.055   5.560   7.308  1.8645 -0.6724 -2.3806
  169SAPE   H4Y19136   3.972   5.715   7.358  0.6406  2.9492 -1.1983
  169SAPE   C3519137   4.179   5.745   7.337 -0.3787 -0.2304 -0.0814
  169SAPE   H5X19138   4.170   5.854   7.318 -1.8117 -0.2752  0.1995
  169SAPE   H5Y19139   4.261   5.706   7.273 -1.2071 -2.1889 -0.0352
  169SAPE   C3619140   4.219   5.732   7.485  0.3089 -0.1692  0.8955
  169SAPE   H6X19141   4.132   5.760   7.549 -1.0433 -1.5772 -0.2534
  169SAPE   H6Y19142   4.300   5.800   7.517 -1.0689  1.3202  1.3689
  169SAPE   C3719143   4.264   5.592   7.526 -0.4272  0.5985 -0.0610
  169SAPE   H7X19144   4.350   5.565   7.461 -0.6081  0.0339 -0.0734
  169SAPE   H7Y19145   4.191   5.512   7.503 -0.8635  0.1671  2.5148
  169SAPE   C3819146   4.296   5.581   7.671  0.0027 -0.3009 -0.5613
  169SAPE   H8X19147   4.363   5.659   7.715 -1.9606  0.3177  1.5271
  169SAPE   H8Y19148   4.358   5.489   7.675 -1.4466 -1.3427  3.6887
  169SAPE   C3919149   4.179   5.559   7.765 -0.4751 -0.9111  0.4630
  169SAPE   H9X19150   4.126   5.465   7.740 -0.2909 -0.2295 -2.8921
  169SAPE   H9Y19151   4.111   5.645   7.743 -0.8892 -0.5963  2.7189
  169SAPE  C31019152   4.218   5.547   7.907  0.2159  0.7952  0.8683
  169SAPE  H10X19153   4.276   5.636   7.940 -0.6641  1.0105  1.8998
  169SAPE  H10Y19154   4.273   5.453   7.924 -1.3245 -0.9229 -2.7170
  169SAPE  C31119155   4.094   5.530   7.996 -0.5529 -0.6579 -0.4086
  169SAPE  H11X19156   4.028   5.457   7.945 -1.2908 -1.1178  1.1410
  169SAPE  H11Y19157   4.048   5.631   7.997  2.2298  0.7268  2.2363
  169SAPE  C31219158   4.136   5.478   8.137 -0.0573  0.4520 -0.1841
  169SAPE  H12X19159   4.191   5.382   8.129 -2.5294 -0.9032 -3.0230
  169SAPE  H12Y19160   4.046   5.462   8.201 -0.8432  2.0104 -0.8386
  169SAPE  C31319161   4.219   5.577   8.213 -0.1967 -0.4198  0.2855
  169SAPE  H13X19162   4.156   5.667   8.227 -0.1800 -0.5911  1.5334
  169SAPE  H13Y19163   4.307   5.593   8.147 -0.9827 -0.9995 -0.9349
  169SAPE  C31419164   4.284   5.532   8.347 -0.4151 -0.7379  0.3316
  169SAPE  H14X19165   4.354   5.453   8.313  0.3723 -0.2574  0.8035
  169SAPE  H14Y19166   4.210   5.484   8.415 -0.7983  0.8751  1.1145
  169SAPE  C31519167   4.360   5.641   8.423 -0.0274  0.3196 -0.3891
  169SAPE  H15X19168   4.304   5.738   8.429  0.3236  0.4304  2.5368
  169SAPE  H15Y19169   4.451   5.655   8.362 -0.0302 -1.3193 -0.8124
  169SAPE  C31619170   4.376   5.626   8.576 -0.1188  1.0130  0.7083
  169SAPE  H16X19171   4.428   5.532   8.606 -1.5120  0.6469  2.1167
  169SAPE  H16Y19172   4.278   5.610   8.625  0.0927 -0.9898  0.5728
  169SAPE  C31719173   4.461   5.734   8.636  0.1889  0.2587 -0.1745
  169SAPE  H17X19174   4.458   5.730   8.747  0.5133  0.8064 -0.1398
  169SAPE  H17Y19175   4.409   5.829   8.612 -2.3753 -1.3068 -1.1477
  169SAPE  C31819176   4.613   5.716   8.611  0.4290 -0.0713  0.6394
  169SAPE  H18X19177   4.638   5.607   8.613  0.3419 -0.1848 -1.7275
  169SAPE  H18Y19178   4.678   5.766   8.687  1.1077  0.7140 -0.4298
  169SAPE  H18Z19179   4.644   5.744   8.509 -1.6038 -1.8677 -0.5454
  170SAPE     N19180   4.223   2.427   6.443  0.1552 -0.2978 -0.1433
  170SAPE   HN119181   4.149   2.387   6.381  0.0475 -1.2479  0.5768
  170SAPE   HN219182   4.189   2.434   6.541  0.6053  0.0087 -0.0076
  170SAPE   HN319183   4.239   2.523   6.405  0.2626 -0.4196 -0.4116
  170SAPE   C1219184   4.352   2.351   6.427 -0.1636  0.1812  0.1307
  170SAPE  H12A19185   4.356   2.340   6.316 -3.9256  1.0267 -0.2117
  170SAPE  H12B19186   4.330   2.249   6.465 -1.2476 -0.3232 -1.7446
  170SAPE   C1119187   4.464   2.428   6.493 -0.1334 -0.2674  0.4826
  170SAPE  H11A19188   4.559   2.370   6.484 -0.9184 -1.4362 -0.6882
  170SAPE  H11B19189   4.435   2.438   6.599  1.3088 -1.2201  0.9941
  170SAPE     P19190   4.610   2.634   6.452  0.4120 -0.1981  0.6566
  170SAPE   O1319191   4.725   2.554   6.402 -0.0657  0.2969  0.2429
  170SAPE   O1419192   4.594   2.770   6.392  0.2664 -0.5168  0.1746
  170SAPE   O1219193   4.475   2.558   6.423 -0.0691 -0.0854 -0.8113
  170SAPE   O1119194   4.620   2.650   6.614 -0.2338  0.8524  0.0530
  170SAPE    C119195   4.710   2.575   6.699 -0.4441  0.0193  0.5225
  170SAPE    HA19196   4.775   2.509   6.637  0.2273  1.1023  0.0227
  170SAPE    HB19197   4.791   2.638   6.742 -1.5279  0.0742  2.5884
  170SAPE    C219198   4.650   2.496   6.809  0.2385 -0.0200  0.1280
  170SAPE    HS19199   4.578   2.428   6.759  1.0545  0.5719 -1.9296
  170SAPE   O2119200   4.585   2.590   6.905  0.2397  0.7994  0.3268
  170SAPE   C2119201   4.464   2.547   6.953  0.1859  0.0441 -0.0561
  170SAPE   O2219202   4.405   2.449   6.905  0.4982  0.0742 -0.2226
  170SAPE   C2219203   4.414   2.638   7.073  0.3170  0.4010  0.0006
  170SAPE   H2R19204   4.495   2.648   7.148 -2.2050  2.2975  2.7098
  170SAPE   H2S19205   4.407   2.737   7.022  1.8213 -0.0959 -1.2465
  170SAPE    C319206   4.745   2.404   6.884  0.0817 -0.4222  0.4710
  170SAPE    HX19207   4.807   2.463   6.955  0.7921 -0.3817 -0.1656
  170SAPE    HY19208   4.821   2.368   6.812 -2.4015 -1.9703 -1.5350
  170SAPE   O3119209   4.683   2.302   6.964 -0.0094  0.2660 -0.4742
  170SAPE   C3119210   4.644   2.200   6.888  0.2698  0.2409 -0.6878
  170SAPE   O3219211   4.652   2.199   6.769 -0.0206 -0.0296 -0.1394
  170SAPE   C3219212   4.582   2.092   6.983  0.2269 -0.0025  0.0605
  170SAPE   H2X19213   4.603   2.116   7.090  0.9180 -1.0134  0.1640
  170SAPE   H2Y19214   4.623   1.996   6.945  0.2393  0.5392 -1.3276
  170SAPE   C2319215   4.285   2.585   7.141  0.3740 -0.4244  0.7748
  170SAPE   H3R19216   4.310   2.507   7.216 -0.6162 -1.7901 -0.2659
  170SAPE   H3S19217   4.215   2.547   7.064  1.7956  0.2091 -0.8885
  170SAPE   C2419218   4.212   2.710   7.213 -0.9676  0.4975  0.0233
  170SAPE   H4R19219   4.111   2.683   7.252 -1.7183  0.5011 -1.8180
  170SAPE   H4S19220   4.181   2.782   7.134 -1.8384 -1.8597 -1.9210
  170SAPE   C2519221   4.316   2.773   7.313 -0.6420  1.0727  1.0683
  170SAPE   H5R19222   4.375   2.857   7.274  0.6450 -0.0825  0.4375
  170SAPE   C2619223   4.343   2.722   7.430 -0.7026  0.4455 -0.5183
  170SAPE   H6R19224   4.412   2.771   7.499 -2.7234 -1.5498  3.2199
  170SAPE   C2719225   4.263   2.607   7.491 -1.0587  0.5440  1.0392
  170SAPE   H7R19226   4.345   2.537   7.516  1.5777  2.7695 -0.8059
  170SAPE   H7S19227   4.191   2.559   7.422 -2.6100 -0.5896  3.3111
  170SAPE   C2819228   4.181   2.664   7.599  0.3134  0.7284  0.9170
  170SAPE   H8R19229   4.101   2.727   7.555  0.9025  1.4566  0.8650
  170SAPE   C2919230   4.186   2.642   7.733  0.1657 -0.7596  0.1057
  170SAPE   H9R19231   4.111   2.687   7.800  1.2517 -1.1431  1.6182
  170SAPE  C21019232   4.284   2.558   7.809  0.7386  0.6017 -0.5023
  170SAPE  H10R19233   4.348   2.614   7.880  1.8446 -0.1094 -0.9001
  170SAPE  H10S19234   4.365   2.520   7.742  0.8897  0.0266 -0.0100
  170SAPE  C21119235   4.210   2.439   7.881  0.0707  0.3715  0.1292
  170SAPE  H11R19236   4.158   2.377   7.807 -1.4895  0.5486  1.0366
  170SAPE  C21219237   4.194   2.424   8.018 -0.7846  0.4548  0.2037
  170SAPE  H12R19238   4.129   2.341   8.050  1.1539 -1.5186 -0.7035
  170SAPE  C21319239   4.245   2.519   8.122  0.0693  0.1856 -0.6998
  170SAPE  H13R19240   4.342   2.563   8.092  1.8353  0.8482  4.8643
  170SAPE  H13S19241   4.262   2.462   8.216 -0.7146  1.5832  0.3326
  170SAPE  C21419242   4.145   2.629   8.154  0.1721  0.8355 -0.0034
  170SAPE  H14R19243   4.148   2.705   8.075  2.0532  0.4786 -0.3226
  170SAPE  C21519244   4.069   2.649   8.266 -0.1260  0.1071  1.2208
  170SAPE  H15R19245   3.996   2.732   8.268  1.0236  1.1669  0.9212
  170SAPE  C21619246   4.052   2.554   8.373 -0.3910  0.2198 -0.2049
  170SAPE  H16R19247   4.122   2.468   8.360 -2.3538 -1.5172  0.1710
  170SAPE  H16S19248   3.958   2.496   8.363  1.4203 -2.7763 -1.3396
  170SAPE  C21719249   4.052   2.594   8.523 -0.0110  0.0966 -0.3333
  170SAPE  H17R19250   3.954   2.643   8.541 -0.7396 -1.4126 -0.0404
  170SAPE  H17S19251   4.138   2.657   8.555  1.2870 -2.1574  0.9084
  170SAPE  C21819252   4.051   2.469   8.612  0.2155 -0.0284 -0.0899
  170SAPE  H18R19253   4.136   2.402   8.588 -1.6715 -2.2900 -0.8651
  170SAPE  H18S19254   3.954   2.426   8.578  0.1472  1.7347 -2.4131
  170SAPE  C21919255   4.039   2.487   8.767 -0.3307  0.5364 -1.0672
  170SAPE  H19R19256   3.936   2.517   8.795  0.2986  2.2435 -0.3999
  170SAPE  H19S19257   4.101   2.575   8.796 -1.8412  1.0665  0.7156
  170SAPE  C22019258   4.079   2.358   8.845 -0.3047 -0.1131  0.3686
  170SAPE  H20R19259   4.055   2.365   8.954  0.4473 -2.2605  0.7273
  170SAPE  H20S19260   4.184   2.321   8.843  0.6660  2.2553 -4.0046
  170SAPE  H20T19261   4.024   2.273   8.800 -1.4246  0.0890  1.3054
  170SAPE   C3319262   4.434   2.066   6.967 -0.6209  0.1938  0.4748
  170SAPE   H3X19263   4.420   1.959   6.994 -0.5933 -0.3919 -1.5967
  170SAPE   H3Y19264   4.414   2.065   6.857  1.5858  2.1396 -0.0183
  170SAPE   C3419265   4.339   2.161   7.056 -0.1373  0.4098 -0.2646
  170SAPE   H4X19266   4.238   2.122   7.032  0.2375 -1.8927  1.5237
  170SAPE   H4Y19267   4.340   2.269   7.028  1.5886  0.3575 -0.5349
  170SAPE   C3519268   4.351   2.135   7.208 -0.4904 -1.2819  0.3666
  170SAPE   H5X19269   4.420   2.214   7.244  0.3819 -1.9208  0.1340
  170SAPE   H5Y19270   4.398   2.035   7.224  2.3090 -0.5335 -2.3165
  170SAPE   C3619271   4.213   2.160   7.266  0.8370  0.9664 -0.2048
  170SAPE   H6X19272   4.147   2.077   7.233  1.1137  0.3350  0.7971
  170SAPE   H6Y19273   4.176   2.261   7.238 -2.5461 -0.0564  0.0875
  170SAPE   C3719274   4.213   2.147   7.418 -0.2546 -0.1565 -0.2759
  170SAPE   H7X19275   4.277   2.228   7.459  0.8168 -0.4310 -1.3402
  170SAPE   H7Y19276   4.252   2.052   7.460 -0.1018 -0.3770 -0.8979
  170SAPE   C3819277   4.067   2.166   7.466 -0.0311 -0.4387 -0.2454
  170SAPE   H8X19278   4.013   2.072   7.442  0.8371 -0.6694 -1.4028
  170SAPE   H8Y19279   4.018   2.253   7.418 -2.5752 -0.3729  2.2350
  170SAPE   C3919280   4.045   2.187   7.615 -0.1288  0.5755  0.2498
  170SAPE   H9X19281   3.952   2.248   7.621 -1.5161 -1.5431  1.5355
  170SAPE   H9Y19282   4.136   2.237   7.656  1.4362 -0.3013 -1.9815
  170SAPE  C31019283   4.023   2.055   7.688  0.2497 -0.1910 -0.5709
  170SAPE  H10X19284   4.099   1.975   7.677  0.8726  0.0608  1.5547
  170SAPE  H10Y19285   3.929   2.008   7.653  0.8428  0.4040 -3.2468
  170SAPE  C31119286   4.005   2.076   7.832 -0.0027 -0.2165 -0.3327
  170SAPE  H11X19287   4.059   2.169   7.859 -0.6603  0.2450 -0.5621
  170SAPE  H11Y19288   4.051   1.996   7.894 -0.7476  0.4696  1.1430
  170SAPE  C31219289   3.861   2.095   7.882  0.1938 -0.3061 -0.1865
  170SAPE  H12X19290   3.799   2.003   7.880 -2.1072  1.0741  2.1454
  170SAPE  H12Y19291   3.803   2.174   7.831 -1.5244  0.0545  2.1437
  170SAPE  C31319292   3.852   2.142   8.026 -0.5153  0.7616 -0.0176
  170SAPE  H13X19293   3.746   2.167   8.047 -0.4328  0.7415  0.4341
  170SAPE  H13Y19294   3.902   2.241   8.029 -0.0032  0.6670 -2.7765
  170SAPE  C31419295   3.922   2.053   8.131  0.6162 -0.4726 -1.1109
  170SAPE  H14X19296   4.032   2.047   8.116  0.6486  0.4383 -1.2907
  170SAPE  H14Y19297   3.874   1.955   8.109 -0.8975  0.6239 -3.0420
  170SAPE  C31519298   3.892   2.099   8.271 -0.4947  0.3473  0.1898
  170SAPE  H15X19299   3.783   2.118   8.282 -0.8751 -0.9126 -1.0774
  170SAPE  H15Y19300   3.958   2.185   8.296  0.2703  0.0699 -0.8354
  170SAPE  C31619301   3.947   1.994   8.378  0.2280  0.6135  0.1160
  170SAPE  H16X19302   4.054   1.972   8.358 -0.1863 -1.6876  0.2488
  170SAPE  H16Y19303   3.884   1.903   8.376  0.9887  0.0731  0.5889
  170SAPE  C31719304   3.930   2.043   8.516  0.5957 -0.8686 -0.6443
  170SAPE  H17X19305   3.831   2.029   8.563  1.0555  1.2530  1.1006
  170SAPE  H17Y19306   3.941   2.153   8.522 -0.6323 -0.8298  2.3644
  170SAPE  C31819307   4.042   1.981   8.606 -0.4718  0.0707 -0.9719
  170SAPE  H18X19308   4.136   1.989   8.548  0.0265 -2.4633 -0.6039
  170SAPE  H18Y19309   4.033   1.874   8.634  2.1551  0.5351  2.2342
  170SAPE  H18Z19310   4.056   2.047   8.695  3.6200 -0.9744 -0.6451
  171SAPE     N19311   6.077   5.276   6.435 -0.2896 -0.4182 -0.6719
  171SAPE   HN119312   6.096   5.286   6.333  3.5666  0.2378 -0.0709
  171SAPE   HN219313   6.071   5.175   6.458  1.0803 -0.3357  0.1763
  171SAPE   HN319314   5.983   5.314   6.458  0.0864 -0.3363  0.8568
  171SAPE   C1219315   6.185   5.353   6.512 -1.1073 -0.2701  0.0025
  171SAPE  H12A19316   6.198   5.305   6.611  0.6093  0.2127  0.0348
  171SAPE  H12B19317   6.152   5.459   6.503 -0.8862 -0.3705 -2.9288
  171SAPE   C1119318   6.326   5.327   6.442 -0.1350  0.0097  0.2847
  171SAPE  H11A19319   6.378   5.415   6.487 -1.8878  1.0580  0.3184
  171SAPE  H11B19320   6.329   5.330   6.331  1.5726  0.8601  0.3124
  171SAPE     P19321   6.482   5.108   6.415 -0.0858  0.2011 -0.2352
  171SAPE   O1319322   6.430   5.061   6.285 -0.2956 -0.0518  0.0799
  171SAPE   O1419323   6.615   5.173   6.414 -0.6144 -0.4081  0.5327
  171SAPE   O1219324   6.378   5.208   6.488 -0.2301 -0.3562  0.6954
  171SAPE   O1119325   6.493   4.983   6.519 -0.3179 -0.2244 -0.1098
  171SAPE    C119326   6.378   4.968   6.602  0.4523  0.4482 -0.5287
  171SAPE    HA19327   6.283   4.998   6.552 -1.9938 -0.4924  3.1036
  171SAPE    HB19328   6.380   4.860   6.625  2.6771  1.3241  5.1308
  171SAPE    C219329   6.387   5.031   6.744 -0.2391 -0.1120 -0.0936
  171SAPE    HS19330   6.351   5.135   6.726 -0.9889 -0.6074 -1.6174
  171SAPE   O2119331   6.523   5.022   6.797 -0.7634  0.7110  1.1850
  171SAPE   C2119332   6.552   5.127   6.875 -0.1293 -0.2287  0.4054
  171SAPE   O2219333   6.487   5.227   6.894 -0.2418 -0.2019 -0.2734
  171SAPE   C2219334   6.691   5.102   6.938 -0.3654  0.1002 -0.7237
  171SAPE   H2R19335   6.708   4.993   6.950  0.9712  0.4628  1.1212
  171SAPE   H2S19336   6.771   5.130   6.867 -1.1654  0.4464 -1.5059
  171SAPE    C319337   6.282   4.969   6.839  0.0127 -0.1713  0.6044
  171SAPE    HX19338   6.285   4.859   6.849 -2.3061 -0.2710  0.7466
  171SAPE    HY19339   6.182   4.986   6.793 -0.7669  0.0660  2.3094
  171SAPE   O3119340   6.288   5.022   6.969  0.3594  0.1001 -0.4947
  171SAPE   C3119341   6.223   5.134   6.985  0.3535 -0.0699 -0.4360
  171SAPE   O3219342   6.172   5.202   6.897 -0.2632  0.2612 -0.3212
  171SAPE   C3219343   6.222   5.171   7.134 -0.3258  0.1483  0.3333
  171SAPE   H2X19344   6.142   5.248   7.143 -0.8098  0.1128 -2.6745
  171SAPE   H2Y19345   6.317   5.226   7.155  0.4172 -0.3249 -1.5846
  171SAPE   C2319346   6.717   5.172   7.070 -0.6206 -0.1871 -0.4063
  171SAPE   H3R19347   6.697   5.281   7.075 -0.4366 -0.0956 -1.5146
  171SAPE   H3S19348   6.826   5.171   7.096 -0.2544 -0.9540 -1.8867
  171SAPE   C2419349   6.636   5.114   7.193  0.0462 -0.2544  0.3808
  171SAPE   H4R19350   6.529   5.103   7.162  0.6093 -5.3724 -0.6812
  171SAPE   H4S19351   6.653   5.190   7.272  1.8550  1.4501 -1.5112
  171SAPE   C2519352   6.681   4.977   7.224  0.0923 -0.4859 -0.3167
  171SAPE   H5R19353   6.670   4.907   7.140 -2.9395 -0.7054  0.1444
  171SAPE   C2619354   6.752   4.940   7.333 -0.0130  0.4693  0.1556
  171SAPE   H6R19355   6.777   4.834   7.348  0.4538  0.2239 -2.0268
  171SAPE   C2719356   6.798   5.031   7.444  1.1018  0.2301  0.0508
  171SAPE   H7R19357   6.860   5.115   7.405 -0.4800  0.2969 -2.5582
  171SAPE   H7S19358   6.860   4.973   7.515 -0.7226 -0.9369  0.7652
  171SAPE   C2819359   6.678   5.090   7.524  0.2673  0.0461  0.1276
  171SAPE   H8R19360   6.613   5.157   7.467  2.2424  1.7477 -0.2518
  171SAPE   C2919361   6.646   5.077   7.658  0.0520 -0.5256 -0.5434
  171SAPE   H9R19362   6.554   5.125   7.694 -0.3003 -1.6066  0.0653
  171SAPE  C21019363   6.724   4.986   7.748  0.3584 -0.1359  0.2662
  171SAPE  H10R19364   6.834   4.993   7.733  0.3817 -0.7369  0.1298
  171SAPE  H10S19365   6.684   4.885   7.727 -1.2250  0.0029  2.2305
  171SAPE  C21119366   6.696   5.003   7.897  0.1510  0.0859  0.0840
  171SAPE  H11R19367   6.787   5.033   7.951 -0.1378  1.1170  0.0128
  171SAPE  C21219368   6.585   4.976   7.961  0.7999 -0.5239 -0.7046
  171SAPE  H12R19369   6.579   5.007   8.066  1.7680 -0.3266 -0.6973
  171SAPE  C21319370   6.453   4.928   7.901 -0.1198 -0.4343  0.5323
  171SAPE  H13R19371   6.475   4.825   7.866  0.8763 -0.1299  0.2480
  171SAPE  H13S19372   6.428   4.981   7.807  1.2412  1.8263  1.3680
  171SAPE  C21419373   6.334   4.928   7.985 -0.0649  0.0528 -0.2423
  171SAPE  H14R19374   6.255   4.995   7.948 -0.7605  0.2095  1.4456
  171SAPE  C21519375   6.306   4.843   8.087  0.2805  0.3894  0.3776
  171SAPE  H15R19376   6.217   4.855   8.150  1.0772 -2.0596  2.1155
  171SAPE  C21619377   6.400   4.741   8.139 -0.1808  0.0064 -0.3143
  171SAPE  H16R19378   6.473   4.705   8.062  0.0307 -0.7932  0.2483
  171SAPE  H16S19379   6.334   4.655   8.163  0.2277 -0.0166  0.7792
  171SAPE  C21719380   6.475   4.780   8.271 -0.4026 -0.0340  0.1930
  171SAPE  H17R19381   6.568   4.840   8.265 -0.9680  0.9881  1.1005
  171SAPE  H17S19382   6.517   4.679   8.291  1.4586  0.9137  1.2973
  171SAPE  C21819383   6.384   4.808   8.390  0.1583 -0.1326 -0.4105
  171SAPE  H18R19384   6.300   4.738   8.366 -0.5509  0.8348 -0.8080
  171SAPE  H18S19385   6.354   4.914   8.376 -1.9832 -0.7217 -0.6556
  171SAPE  C21919386   6.451   4.804   8.525 -0.1572  0.0512 -0.6708
  171SAPE  H19R19387   6.553   4.849   8.527  0.5736 -1.5132  2.2980
  171SAPE  H19S19388   6.474   4.697   8.544  1.9708  0.4849 -0.4908
  171SAPE  C22019389   6.360   4.868   8.632 -0.0629  0.5675 -0.4869
  171SAPE  H20R19390   6.361   4.979   8.634 -0.2917  0.5690  0.9517
  171SAPE  H20S19391   6.379   4.816   8.728 -1.5997 -1.9930 -1.4612
  171SAPE  H20T19392   6.260   4.842   8.591 -0.0550  1.0488 -0.8263
  171SAPE   C3319393   6.198   5.060   7.243  0.8440  0.3319  0.7389
  171SAPE   H3X19394   6.295   5.006   7.249  1.3719  0.9055 -1.7835
  171SAPE   H3Y19395   6.117   4.985   7.228 -2.4402  3.1120  3.0458
  171SAPE   C3419396   6.168   5.115   7.382  0.0248 -0.6114  0.3230
  171SAPE   H4X19397   6.085   5.188   7.368  1.0280  0.7795  1.3527
  171SAPE   H4Y19398   6.252   5.172   7.425  1.3337 -2.2523  0.0408
  171SAPE   C3519399   6.129   5.005   7.485  0.4239 -0.4674 -0.3192
  171SAPE   H5X19400   6.227   4.959   7.507  0.9809  1.0915  0.6257
  171SAPE   H5Y19401   6.050   4.941   7.440 -0.9438 -0.1168  1.4997
  171SAPE   C3619402   6.086   5.072   7.619 -0.1679  0.6355 -0.2198
  171SAPE   H6X19403   6.008   5.148   7.600  1.8194  2.7949 -0.2608
  171SAPE   H6Y19404   6.171   5.119   7.674  0.5301 -0.0548 -0.6727
  171SAPE   C3719405   6.038   4.954   7.715 -0.0605  0.2155  0.8508
  171SAPE   H7X19406   6.130   4.898   7.739 -0.4551 -1.1376 -0.6323
  171SAPE   H7Y19407   5.984   4.891   7.641  4.9050 -1.8141 -1.4922
  171SAPE   C3819408   5.957   5.002   7.837  0.1022  0.0741  0.2276
  171SAPE   H8X19409   5.855   5.026   7.801  0.3005  0.8860  0.2011
  171SAPE   H8Y19410   5.995   5.094   7.886 -0.1507  0.4487 -0.2641
  171SAPE   C3919411   5.965   4.892   7.942 -0.2649 -0.6191  0.0860
  171SAPE   H9X19412   6.063   4.843   7.959 -0.4185 -1.2104 -0.6678
  171SAPE   H9Y19413   5.907   4.800   7.919 -0.6843 -0.4256  0.3548
  171SAPE  C31019414   5.913   4.941   8.084  0.6537  0.6131  0.5447
  171SAPE  H10X19415   5.815   4.991   8.073  0.0773 -0.6374 -0.2560
  171SAPE  H10Y19416   5.982   5.016   8.129  1.1791  0.7185 -0.4035
  171SAPE  C31119417   5.893   4.822   8.181  0.4780 -0.3982 -0.5104
  171SAPE  H11X19418   5.977   4.750   8.176 -0.2623 -1.4203  1.0248
  171SAPE  H11Y19419   5.802   4.765   8.154  0.4821 -0.4923 -0.3278
  171SAPE  C31219420   5.897   4.867   8.327  0.0565 -0.4589  0.4357
  171SAPE  H12X19421   5.847   4.966   8.338 -0.4413 -0.5852 -0.6045
  171SAPE  H12Y19422   5.999   4.896   8.361 -0.1391  0.7724  0.0134
  171SAPE  C31319423   5.837   4.773   8.433 -0.9722  0.0173 -0.2671
  171SAPE  H13X19424   5.727   4.776   8.419 -1.2060 -2.1938  0.7170
  171SAPE  H13Y19425   5.859   4.817   8.532  0.7281 -1.6489  0.1502
  171SAPE  C31419426   5.899   4.632   8.437  0.1983 -0.5344 -0.1013
  171SAPE  H14X19427   5.997   4.640   8.489  0.3730  2.3547 -0.7264
  171SAPE  H14Y19428   5.922   4.592   8.336  2.2780 -0.4496  0.2901
  171SAPE  C31519429   5.794   4.542   8.502  0.8119  0.0452 -0.2789
  171SAPE  H15X19430   5.695   4.548   8.452  0.8125 -0.0229 -0.2892
  171SAPE  H15Y19431   5.771   4.576   8.605 -3.1666 -3.0753  0.0979
  171SAPE  C31619432   5.841   4.401   8.527 -0.1808 -0.2500 -0.0302
  171SAPE  H16X19433   5.949   4.407   8.553  0.3635  0.8889 -2.3621
  171SAPE  H16Y19434   5.844   4.342   8.433  1.5826  1.1621 -0.9060
  171SAPE  C31719435   5.750   4.316   8.624  0.0895  0.4251  0.3569
  171SAPE  H17X19436   5.651   4.296   8.576  1.1503 -0.1019 -1.7368
  171SAPE  H17Y19437   5.734   4.378   8.715  0.2747  2.4294 -0.9038
  171SAPE  C31819438   5.817   4.189   8.676  0.2751 -0.0371  0.3596
  171SAPE  H18X19439   5.912   4.196   8.733  0.9195  0.1264 -0.7201
  171SAPE  H18Y19440   5.824   4.114   8.595  1.2301 -1.0527  1.3473
  171SAPE  H18Z19441   5.739   4.143   8.742 -0.9899  0.2258 -0.8950
  172SAPE     N19442   5.501   2.423   6.145 -0.3398  0.4150 -0.2799
  172SAPE   HN119443   5.400   2.402   6.130 -1.1256  3.6243 -0.2404
  172SAPE   HN219444   5.505   2.522   6.114 -1.3680  0.5127 -0.1626
  172SAPE   HN319445   5.560   2.358   6.090 -2.3659 -0.5583 -1.4292
  172SAPE   C1219446   5.530   2.399   6.295  0.2963  0.0989  0.1349
  172SAPE  H12A19447   5.548   2.290   6.298 -3.3364 -0.6744 -0.9363
  172SAPE  H12B19448   5.434   2.413   6.351 -0.3019  0.5015 -0.9614
  172SAPE   C1119449   5.635   2.482   6.354  0.0970  0.5280 -0.0210
  172SAPE  H11A19450   5.726   2.468   6.292 -0.5248 -0.5254 -0.7302
  172SAPE  H11B19451   5.647   2.438   6.455 -2.9781 -1.2189 -0.2931
  172SAPE     P19452   5.614   2.728   6.243  0.3627 -0.0812  0.0065
  172SAPE   O1319453   5.761   2.720   6.226 -0.4523 -0.0439  0.6215
  172SAPE   O1419454   5.535   2.679   6.129  0.4969 -0.9058  0.1166
  172SAPE   O1219455   5.590   2.618   6.362 -0.0980 -0.0134  0.0163
  172SAPE   O1119456   5.568   2.872   6.292 -0.1823 -0.3187 -0.0932
  172SAPE    C119457   5.647   2.962   6.373  0.1118 -0.8920 -0.0971
  172SAPE    HA19458   5.752   2.951   6.338 -0.0124  2.2399 -1.8385
  172SAPE    HB19459   5.618   3.068   6.355 -0.3404 -1.1342 -0.7907
  172SAPE    C219460   5.629   2.938   6.527 -1.1684 -0.6743  0.1584
  172SAPE    HS19461   5.674   3.027   6.577 -0.0606 -0.2017 -1.5934
  172SAPE   O2119462   5.693   2.812   6.559  0.8177  0.2811  0.3895
  172SAPE   C2119463   5.822   2.818   6.605  0.0517 -0.4364 -0.0218
  172SAPE   O2219464   5.891   2.918   6.599 -0.1925  0.1745 -0.1340
  172SAPE   C2219465   5.875   2.679   6.639 -0.2804 -0.7159  0.0058
  172SAPE   H2R19466   5.852   2.619   6.549 -0.4657  0.2287 -0.5895
  172SAPE   H2S19467   5.986   2.690   6.640 -0.4132  1.8787  3.1297
  172SAPE    C319468   5.479   2.936   6.552 -0.0377 -0.7329 -0.2891
  172SAPE    HX19469   5.430   2.844   6.516 -2.5705  1.0396 -1.6175
  172SAPE    HY19470   5.430   3.014   6.491  0.0477 -2.3676 -2.5700
  172SAPE   O3119471   5.450   2.959   6.689  0.2866  0.0620  0.2609
  172SAPE   C3119472   5.460   2.857   6.772  0.2646 -0.3541 -0.6644
  172SAPE   O3219473   5.477   2.745   6.738 -0.2258  0.1419 -0.0241
  172SAPE   C3219474   5.457   2.900   6.914 -0.2027 -0.1008  0.7893
  172SAPE   H2X19475   5.429   3.008   6.910 -1.9689 -0.5632 -0.6581
  172SAPE   H2Y19476   5.563   2.904   6.948  0.2282  1.6517 -0.5641
  172SAPE   C2319477   5.817   2.616   6.767  0.1747  0.4046 -0.3195
  172SAPE   H3R19478   5.856   2.512   6.780  1.3136  1.0190  1.6696
  172SAPE   H3S19479   5.708   2.608   6.746  0.0341  0.4783  0.3711
  172SAPE   C2419480   5.830   2.693   6.901  0.3926  0.4710  0.1926
  172SAPE   H4R19481   5.771   2.626   6.967 -0.3429  0.6126 -0.3123
  172SAPE   H4S19482   5.780   2.792   6.889 -0.1254  0.4101  1.6529
  172SAPE   C2519483   5.969   2.709   6.957 -0.6488  0.2501 -0.2027
  172SAPE   H5R19484   6.015   2.612   6.980 -3.1348 -0.9326  0.1404
  172SAPE   C2619485   6.028   2.824   6.992 -0.3683  0.2944  0.0452
  172SAPE   H6R19486   6.134   2.822   7.023  0.2302  1.9366 -1.7133
  172SAPE   C2719487   5.971   2.962   6.990  1.0187 -0.5352 -0.1923
  172SAPE   H7R19488   5.967   3.006   7.092 -0.4114  1.0118 -0.8753
  172SAPE   H7S19489   5.866   2.963   6.953  1.4696  1.2396 -1.6194
  172SAPE   C2819490   6.053   3.056   6.905  0.1744  0.5788  0.7911
  172SAPE   H8R19491   6.036   3.025   6.800  0.7101 -4.2376  1.8671
  172SAPE   C2919492   6.151   3.141   6.950  0.7021 -0.5901  0.3388
  172SAPE   H9R19493   6.192   3.198   6.865 -0.2214  1.2199  1.0606
  172SAPE  C21019494   6.198   3.159   7.090  0.5994 -0.3082 -0.6703
  172SAPE  H10R19495   6.177   3.068   7.151  1.0858  0.8937  1.3802
  172SAPE  H10S19496   6.135   3.233   7.142  0.8586 -0.2729 -0.3998
  172SAPE  C21119497   6.342   3.188   7.082 -0.4152 -0.4733 -0.5856
  172SAPE  H11R19498   6.397   3.114   7.021  0.4427  0.3862 -0.8834
  172SAPE  C21219499   6.412   3.292   7.122 -0.5252 -0.0394  0.0046
  172SAPE  H12R19500   6.521   3.290   7.107 -0.3103 -2.9053  1.2848
  172SAPE  C21319501   6.370   3.409   7.201  0.4928 -0.9182  0.4627
  172SAPE  H13R19502   6.465   3.449   7.244  0.7709  0.7962 -1.5438
  172SAPE  H13S19503   6.303   3.387   7.286 -0.0456  3.4632  1.3943
  172SAPE  C21419504   6.299   3.522   7.116 -0.2812  0.8330  0.0829
  172SAPE  H14R19505   6.242   3.489   7.028  0.2128  0.3599 -0.0631
  172SAPE  C21519506   6.300   3.656   7.121  0.2515 -0.0034 -0.4760
  172SAPE  H15R19507   6.233   3.716   7.058  0.6787  0.4598 -0.4966
  172SAPE  C21619508   6.379   3.729   7.230  0.0531 -0.0476  0.1125
  172SAPE  H16R19509   6.398   3.833   7.198 -0.2015  0.2822  0.9905
  172SAPE  H16S19510   6.472   3.682   7.268  0.9180  1.1477 -0.4902
  172SAPE  C21719511   6.295   3.755   7.356  0.1896 -0.1280 -0.4250
  172SAPE  H17R19512   6.252   3.658   7.390  1.7158  0.4830  3.7745
  172SAPE  H17S19513   6.211   3.816   7.315 -0.2229 -1.0702 -1.0267
  172SAPE  C21819514   6.351   3.831   7.476 -0.2029  0.2392 -0.1962
  172SAPE  H18R19515   6.383   3.935   7.453  0.5319  0.0839  0.1062
  172SAPE  H18S19516   6.439   3.773   7.512  0.0052 -0.9078 -2.4045
  172SAPE  C21919517   6.247   3.837   7.588  0.6317 -0.4408 -0.0611
  172SAPE  H19R19518   6.223   3.731   7.614  0.3854 -0.5857 -0.8524
  172SAPE  H19S19519   6.155   3.888   7.552 -0.3094 -1.0828  1.3271
  172SAPE  C22019520   6.301   3.906   7.713 -0.7547  0.1631 -0.0156
  172SAPE  H20R19521   6.362   3.996   7.690 -1.3993  0.0354 -2.5296
  172SAPE  H20S19522   6.365   3.829   7.761 -0.4682  0.6907  0.4526
  172SAPE  H20T19523   6.212   3.927   7.776  0.1962 -2.6614  2.4994
  172SAPE   C3319524   5.359   2.832   7.008 -0.4147  0.9350 -0.8378
  172SAPE   H3X19525   5.355   2.723   6.985  0.6661  0.8687 -0.7529
  172SAPE   H3Y19526   5.257   2.874   7.004 -0.4122  1.1720  0.7413
  172SAPE   C3419527   5.400   2.847   7.159 -0.1188  0.0323 -0.3089
  172SAPE   H4X19528   5.420   2.955   7.170  1.0810 -0.2059  0.0482
  172SAPE   H4Y19529   5.493   2.788   7.176 -0.3743 -0.3242 -0.1414
  172SAPE   C3519530   5.291   2.790   7.253 -0.1529  0.2261 -0.0572
  172SAPE   H5X19531   5.233   2.710   7.203  0.5631 -1.2643  1.3803
  172SAPE   H5Y19532   5.225   2.871   7.289  2.1652  2.3500 -0.3255
  172SAPE   C3619533   5.340   2.727   7.389  0.5548 -0.3295 -0.3207
  172SAPE   H6X19534   5.391   2.810   7.443 -1.9279 -0.6229  2.7109
  172SAPE   H6Y19535   5.418   2.651   7.367  0.7265 -0.1297 -0.4153
  172SAPE   C3719536   5.229   2.661   7.466  0.3839  0.2244  0.7870
  172SAPE   H7X19537   5.176   2.589   7.399 -0.0073  1.6702 -0.5144
  172SAPE   H7Y19538   5.164   2.747   7.491 -0.9457  0.0933 -1.8351
  172SAPE   C3819539   5.284   2.580   7.583 -0.8543  0.4544 -0.1031
  172SAPE   H8X19540   5.336   2.651   7.650  0.0097 -1.6467  1.5798
  172SAPE   H8Y19541   5.353   2.496   7.558 -0.0310  0.9327  0.5018
  172SAPE   C3919542   5.177   2.529   7.687 -0.2565  0.1184  0.3382
  172SAPE   H9X19543   5.136   2.436   7.643  1.3452 -0.4255 -0.0892
  172SAPE   H9Y19544   5.100   2.609   7.685  0.3761  0.7406 -2.0879
  172SAPE  C31019545   5.238   2.496   7.826  0.1970 -0.8110 -0.1672
  172SAPE  H10X19546   5.316   2.573   7.843  0.9468 -1.5113 -0.3868
  172SAPE  H10Y19547   5.281   2.394   7.835  1.3690 -0.2767  0.4294
  172SAPE  C31119548   5.127   2.512   7.932 -0.9767  0.3143 -0.3616
  172SAPE  H11X19549   5.043   2.440   7.920 -1.8907  1.0013  1.6093
  172SAPE  H11Y19550   5.091   2.616   7.916 -0.5884  0.8046  1.6545
  172SAPE  C31219551   5.189   2.493   8.075  0.4102 -0.2676  0.3396
  172SAPE  H12X19552   5.268   2.567   8.097  0.3723 -0.4989  1.3154
  172SAPE  H12Y19553   5.232   2.391   8.068  0.6796 -0.0759 -1.1148
  172SAPE  C31319554   5.071   2.493   8.180 -0.2375  0.0547 -0.2448
  172SAPE  H13X19555   5.023   2.394   8.165  1.0784 -0.4351 -1.4469
  172SAPE  H13Y19556   5.001   2.575   8.152  0.7455  1.4314  1.1639
  172SAPE  C31419557   5.114   2.520   8.325 -0.1626 -0.2764 -1.1792
  172SAPE  H14X19558   5.157   2.622   8.330  0.5539 -0.5334 -1.9452
  172SAPE  H14Y19559   5.195   2.449   8.351  2.5982  3.3143  0.9754
  172SAPE  C31519560   4.993   2.493   8.418 -0.8263 -0.1000 -0.2128
  172SAPE  H15X19561   4.953   2.397   8.379  1.3428 -0.6049 -1.3858
  172SAPE  H15Y19562   4.920   2.574   8.399  1.3909  1.5906 -2.0366
  172SAPE  C31619563   5.033   2.479   8.566  0.2356 -0.3160 -0.7326
  172SAPE  H16X19564   4.961   2.507   8.646  0.4552 -2.9839  0.5141
  172SAPE  H16Y19565   5.136   2.517   8.586  1.1763 -3.6219  1.6565
  172SAPE  C31719566   5.038   2.327   8.607 -0.2300 -0.2365 -0.1826
  172SAPE  H17X19567   5.128   2.293   8.552 -0.5496 -1.7662  0.1922
  172SAPE  H17Y19568   4.947   2.276   8.568 -1.5332  2.7460 -1.3293
  172SAPE  C31819569   5.048   2.305   8.756 -0.0494 -0.2079 -0.9559
  172SAPE  H18X19570   5.060   2.195   8.765 -1.2332 -0.4058 -1.5608
  172SAPE  H18Y19571   4.953   2.336   8.805 -0.2238  1.0894 -2.0429
  172SAPE  H18Z19572   5.135   2.360   8.797 -1.3864  1.9903 -0.8862
  173SOPE     N19573   6.696   2.704  10.854 -0.3033  0.2279 -0.3614
  173SOPE   HN119574   6.751   2.628  10.809 -0.8846  0.0882 -0.8556
  173SOPE   HN219575   6.611   2.731  10.800 -0.2033  1.4257  0.0659
  173SOPE   HN319576   6.758   2.787  10.850  0.8266 -0.5002  1.1246
  173SOPE   C1219577   6.674   2.664  10.997  0.0326  0.0695  0.1577
  173SOPE  H12A19578   6.594   2.727  11.041  1.2204  1.5646  0.2481
  173SOPE  H12B19579   6.768   2.653  11.055 -0.7285 -3.7345  0.9755
  173SOPE   C1119580   6.622   2.518  11.009 -0.3647  0.1256 -0.4922
  173SOPE  H11A19581   6.518   2.518  10.970 -0.3186  0.1424 -0.6172
  173SOPE  H11B19582   6.614   2.502  11.118 -0.9928  4.1600  0.2057
  173SOPE     P19583   6.664   2.273  10.961  0.6226 -0.0421 -0.3880
  173SOPE   O1319584   6.562   2.262  11.065  0.5109  0.6081  0.0126
  173SOPE   O1419585   6.776   2.171  10.966 -0.0030 -0.4434 -0.8291
  173SOPE   O1219586   6.717   2.422  10.950 -0.0920 -0.8032  0.0156
  173SOPE   O1119587   6.591   2.250  10.822 -0.4385 -0.3483  0.3131
  173SOPE    C119588   6.674   2.231  10.709  0.4151 -0.2666 -0.4568
  173SOPE    HA19589   6.716   2.128  10.701 -2.5089 -1.5634 -0.5099
  173SOPE    HB19590   6.761   2.300  10.713  0.2077 -0.0078 -0.4396
  173SOPE    C219591   6.585   2.263  10.586 -0.6534 -0.0552  0.3907
  173SOPE    HS19592   6.510   2.181  10.587 -0.6854 -0.0278  0.3004
  173SOPE   O2119593   6.669   2.276  10.469  0.3502  0.2123 -0.3807
  173SOPE   C2119594   6.712   2.167  10.421  0.6102  0.1473 -0.2702
  173SOPE   O2219595   6.670   2.052  10.440  1.0992  0.2989 -0.2808
  173SOPE   C2219596   6.830   2.198  10.320 -0.5017 -0.3840  0.6349
  173SOPE   H2R19597   6.919   2.229  10.378 -0.2755  1.7563 -0.7136
  173SOPE   H2S19598   6.813   2.291  10.261 -0.6595  0.6795  2.3146
  173SOPE    C319599   6.522   2.406  10.606 -0.4364 -0.5496  0.3430
  173SOPE    HX19600   6.619   2.460  10.606 -0.2674 -0.5943  4.3015
  173SOPE    HY19601   6.476   2.427  10.705  2.2908 -0.9132  1.7973
  173SOPE   O3119602   6.433   2.443  10.493 -0.3458  0.4930  0.3770
  173SOPE   C3119603   6.306   2.404  10.510 -0.2552  0.3589 -0.2133
  173SOPE   O3219604   6.264   2.351  10.608 -0.1691  0.8194 -0.0179
  173SOPE   C3219605   6.219   2.469  10.397 -0.9695 -1.0841  0.6691
  173SOPE   H2X19606   6.291   2.548  10.369  0.0450 -1.2891  2.5204
  173SOPE   H2Y19607   6.134   2.512  10.453 -0.3170  4.0392 -1.7306
  173SOPE   C2319608   6.855   2.072  10.239  0.1154 -0.2450  0.0194
  173SOPE   H3R19609   6.854   1.984  10.307 -2.2410  0.7953  1.4707
  173SOPE   H3S19610   6.961   2.061  10.209 -0.3673 -2.8622 -1.0863
  173SOPE   C2419611   6.765   2.062  10.118  0.4612 -0.1444 -0.0036
  173SOPE   H4R19612   6.768   1.956  10.084 -0.8557  0.0538 -0.8326
  173SOPE   H4S19613   6.662   2.087  10.151 -0.0582 -2.1154 -0.0023
  173SOPE   C2519614   6.804   2.135   9.989 -0.0859 -0.6451 -0.2477
  173SOPE   H5R19615   6.792   2.246   9.995 -0.8562 -0.7660  0.8876
  173SOPE   H5S19616   6.906   2.097   9.970  0.2954  1.0194 -1.8210
  173SOPE   C2619617   6.736   2.095   9.861  0.2097  0.0473  0.8687
  173SOPE   H6R19618   6.770   1.992   9.837 -1.2082 -0.7371  2.0455
  173SOPE   H6S19619   6.626   2.087   9.876  0.1761  0.4896  0.8722
  173SOPE   C2719620   6.772   2.187   9.740 -0.6421 -0.8782 -0.2674
  173SOPE   H7R19621   6.715   2.282   9.748 -1.2672 -1.2118 -0.6794
  173SOPE   H7S19622   6.880   2.213   9.745 -1.3029  3.3107 -3.2056
  173SOPE   C2819623   6.755   2.104   9.612 -0.2905  0.2279 -0.6029
  173SOPE   H8R19624   6.797   2.004   9.633 -1.7013  0.1544  2.3512
  173SOPE   H8S19625   6.645   2.093   9.599 -0.7387  3.5064 -0.4567
  173SOPE   C2919626   6.814   2.189   9.498  0.2692  0.8546  0.3153
  173SOPE   H9119627   6.831   2.297   9.509  0.4593  1.0544 -1.6011
  173SOPE  C21019628   6.841   2.140   9.377  0.3811 -0.1290  0.2489
  173SOPE  H10119629   6.897   2.204   9.307  2.0911 -1.0649  0.7149
  173SOPE  C21119630   6.812   2.007   9.319 -0.4728 -0.2322 -0.3437
  173SOPE  H11R19631   6.743   1.950   9.384 -1.1798  2.0582  1.0246
  173SOPE  H11S19632   6.908   1.955   9.334 -1.2569 -1.3375  1.1142
  173SOPE  C21219633   6.766   2.002   9.172  0.0436  0.2717  0.3782
  173SOPE  H12R19634   6.854   2.021   9.106 -1.0997 -0.9954 -1.6069
  173SOPE  H12S19635   6.699   2.087   9.146  2.8967  2.6480  0.2076
  173SOPE  C21319636   6.704   1.862   9.135  0.0571  0.3035  0.4354
  173SOPE  H13R19637   6.599   1.864   9.172 -0.0005  0.3839  0.2679
  173SOPE  H13S19638   6.766   1.780   9.178  1.1626  1.1244  0.4686
  173SOPE  C21419639   6.709   1.851   8.980 -0.2841  0.3609  0.8529
  173SOPE  H14R19640   6.816   1.852   8.951 -0.1685  0.0453  1.2674
  173SOPE  H14S19641   6.669   1.950   8.949 -0.7249 -0.3135 -0.8920
  173SOPE  C21519642   6.629   1.748   8.901  0.3627  0.1909  0.8634
  173SOPE  H15R19643   6.605   1.788   8.800 -2.6740 -1.7204  0.6967
  173SOPE  H15S19644   6.527   1.731   8.942  0.5249 -2.1158  0.4372
  173SOPE  C21619645   6.707   1.616   8.866  0.3285 -0.1836  0.1798
  173SOPE  H16R19646   6.720   1.574   8.967  2.4147  0.8938  0.4021
  173SOPE  H16S19647   6.802   1.649   8.820  0.7185 -0.3872  0.8290
  173SOPE  C21719648   6.612   1.512   8.786 -0.2101  0.1989 -0.4238
  173SOPE  H17R19649   6.580   1.546   8.685 -1.2472 -0.6156 -0.3878
  173SOPE  H17S19650   6.521   1.500   8.848 -1.0301 -0.3289 -1.6998
  173SOPE  C21819651   6.685   1.376   8.769  0.2525 -0.4523 -0.1369
  173SOPE  H18R19652   6.768   1.381   8.695  0.3501  0.5618  0.0257
  173SOPE  H18S19653   6.621   1.291   8.739  0.8721 -1.6706  1.8052
  173SOPE  H18T19654   6.727   1.344   8.867 -1.5267  0.8127  1.1015
  173SOPE   C3319655   6.174   2.378  10.280 -0.7014 -0.2449 -0.2264
  173SOPE   H3X19656   6.100   2.308  10.324  1.1230 -0.9448  1.9087
  173SOPE   H3Y19657   6.260   2.319  10.240 -0.9661 -0.3161 -0.6996
  173SOPE   C3419658   6.112   2.460  10.167  0.3288 -0.5441 -0.2470
  173SOPE   H4X19659   6.174   2.546  10.133 -0.5139 -0.0457 -0.5697
  173SOPE   H4Y19660   6.022   2.518  10.197 -1.4501 -2.2119 -2.0726
  173SOPE   C3519661   6.087   2.373  10.044  0.2081 -0.1262  0.0731
  173SOPE   H5X19662   6.000   2.306  10.061 -0.2052  0.3253 -0.2600
  173SOPE   H5Y19663   6.187   2.331  10.019 -0.0876 -1.2797  0.7629
  173SOPE   C3619664   6.055   2.454   9.917  0.4785 -0.9012 -0.7693
  173SOPE   H6X19665   6.126   2.538   9.905 -1.7421  1.4929  1.5052
  173SOPE   H6Y19666   5.957   2.497   9.945  0.8581 -1.5344  1.9006
  173SOPE   C3719667   6.040   2.375   9.785 -0.6487 -0.6516 -0.1785
  173SOPE   H7X19668   5.966   2.294   9.806  0.3014 -0.9053  2.6450
  173SOPE   H7Y19669   6.140   2.329   9.775 -0.6475 -0.7859  0.4020
  173SOPE   C3819670   6.010   2.468   9.673 -0.2375  0.6606  0.3387
  173SOPE   H8X19671   6.093   2.540   9.655 -0.3234  0.8328  0.6075
  173SOPE   H8Y19672   5.914   2.522   9.687 -1.7905 -1.2755 -2.1169
  173SOPE   C3919673   5.985   2.385   9.545  0.7071  0.1534 -0.5118
  173SOPE   H9X19674   5.910   2.304   9.558  0.2343  0.4841 -1.1041
  173SOPE   H9Y19675   6.079   2.330   9.521  1.3959  0.3491  1.5786
  173SOPE  C31019676   5.951   2.470   9.426  0.4243 -0.1595 -0.3637
  173SOPE  H10X19677   6.038   2.536   9.407  1.4524 -1.0549  1.0395
  173SOPE  H10Y19678   5.865   2.535   9.455  0.0709 -1.2980  1.3185
  173SOPE  C31119679   5.924   2.392   9.296  0.7157  0.5417 -0.2933
  173SOPE  H11X19680   5.820   2.357   9.278  0.8385  0.7023 -1.3837
  173SOPE  H11Y19681   5.969   2.290   9.295 -3.8345 -1.7810 -3.1011
  173SOPE  C31219682   5.967   2.465   9.158 -0.0678 -0.0533 -0.3751
  173SOPE  H12X19683   6.077   2.480   9.154 -0.2743  1.7632 -0.1688
  173SOPE  H12Y19684   5.926   2.568   9.168 -0.5558 -0.2343 -0.4782
  173SOPE  C31319685   5.927   2.385   9.041 -0.5106 -0.0437  1.3999
  173SOPE  H13X19686   5.819   2.360   9.047 -0.3403 -1.2590 -0.0284
  173SOPE  H13Y19687   5.979   2.287   9.034 -0.9804 -0.2873  1.2799
  173SOPE  C31419688   5.941   2.463   8.912  0.0484  0.0778  0.0864
  173SOPE  H14X19689   6.050   2.482   8.902  0.5821 -2.9668 -0.8018
  173SOPE  H14Y19690   5.890   2.558   8.940  1.1006  1.5465 -2.6832
  173SOPE  C31519691   5.862   2.396   8.791 -0.7496  0.2854  0.1692
  173SOPE  H15X19692   5.833   2.456   8.702 -2.3589  0.1971  0.5933
  173SOPE  H15Y19693   5.760   2.375   8.831 -2.3356  2.1400 -2.5671
  173SOPE  C31619694   5.936   2.269   8.734  0.1772  1.0146 -0.8867
  173SOPE  H16X19695   5.983   2.220   8.822 -1.8892  0.9637  0.2720
  173SOPE  H16Y19696   6.011   2.278   8.653  0.7528 -2.2197 -0.8684
  173SOPE  C31719697   5.832   2.163   8.692  1.0548  0.2679  0.9242
  173SOPE  H17X19698   5.783   2.191   8.596  1.3722 -1.9021  0.0868
  173SOPE  H17Y19699   5.759   2.166   8.775  1.1767  1.2757  1.0092
  173SOPE  C31819700   5.886   2.024   8.697 -1.2476 -0.1545  1.0663
  173SOPE  H18X19701   5.994   2.023   8.668 -1.2641 -1.1207  1.0042
  173SOPE  H18Y19702   5.847   1.958   8.616  1.4974  0.9398 -1.3263
  173SOPE  H18Z19703   5.864   1.980   8.796 -3.2996  1.7831  1.5330
  174SOPE     N19704   0.351   1.310  11.084  0.0287 -0.6836  0.0598
  174SOPE   HN119705   0.312   1.233  11.142 -0.4789  0.0705  0.7489
  174SOPE   HN219706   0.453   1.308  11.102  0.0088 -2.9367  0.2258
  174SOPE   HN319707   0.299   1.394  11.115 -1.4382 -2.0229  1.4009
  174SOPE   C1219708   0.326   1.298  10.942 -0.8104 -0.5623 -0.0307
  174SOPE  H12A19709   0.319   1.189  10.921 -1.0190 -0.5001 -0.2936
  174SOPE  H12B19710   0.413   1.347  10.894 -0.0606  0.5519  2.3119
  174SOPE   C1119711   0.201   1.376  10.899 -0.1578 -0.0037  0.4467
  174SOPE  H11A19712   0.107   1.330  10.935  0.6931 -2.9563 -0.8535
  174SOPE  H11B19713   0.188   1.368  10.789 -0.4875  0.3582  0.4557
  174SOPE     P19714   0.247   1.640  10.880 -0.2359  0.4829  0.0760
  174SOPE   O1319715   0.289   1.738  10.984  0.1641 -0.2132  0.2819
  174SOPE   O1419716   0.154   1.681  10.776  0.0539  0.2762 -0.4444
  174SOPE   O1219717   0.205   1.506  10.954  0.4825 -0.7326  0.3796
  174SOPE   O1119718   0.381   1.592  10.809 -0.2497 -0.0224  0.0209
  174SOPE    C119719   0.487   1.686  10.800 -0.6387  0.7288  0.5866
  174SOPE    HA19720   0.581   1.630  10.778 -1.2266  0.3420 -1.0522
  174SOPE    HB19721   0.505   1.729  10.901  1.2227  1.0847  0.1457
  174SOPE    C219722   0.475   1.795  10.687 -0.1820 -0.0286 -0.5678
  174SOPE    HS19723   0.382   1.854  10.700 -0.8763 -0.6303 -2.4107
  174SOPE   O2119724   0.479   1.733  10.558 -0.0002 -0.1482  0.8466
  174SOPE   C2119725   0.434   1.803  10.456  0.7610 -0.4575 -0.1993
  174SOPE   O2219726   0.358   1.903  10.472  0.3235  0.0189 -0.2355
  174SOPE   C2219727   0.475   1.752  10.321 -0.3873 -0.2309  0.6614
  174SOPE   H2R19728   0.449   1.645  10.305 -1.3001  0.2951 -1.8183
  174SOPE   H2S19729   0.583   1.773  10.310 -0.7088  0.6374 -1.2361
  174SOPE    C319730   0.581   1.901  10.708  0.6424  0.2878 -0.1225
  174SOPE    HX19731   0.677   1.848  10.728  0.4928  0.3448  0.7684
  174SOPE    HY19732   0.546   1.948  10.802 -0.6840 -1.3027  0.2338
  174SOPE   O3119733   0.604   1.993  10.603 -0.2825  0.3879  0.0224
  174SOPE   C3119734   0.571   2.115  10.620  0.8155 -0.1172 -0.2432
  174SOPE   O3219735   0.505   2.161  10.714 -1.0679 -0.5580 -0.1034
  174SOPE   C3219736   0.610   2.201  10.506 -0.3144 -0.6097  0.8218
  174SOPE   H2X19737   0.711   2.169  10.472 -0.2026  0.6033 -0.0351
  174SOPE   H2Y19738   0.621   2.303  10.549  0.5399 -0.6494  0.7095
  174SOPE   C2319739   0.400   1.836  10.207 -0.4575 -0.0873  1.1335
  174SOPE   H3R19740   0.442   1.938  10.196  2.5843 -1.4511 -3.0851
  174SOPE   H3S19741   0.291   1.829  10.223 -0.5281 -1.6430  0.2232
  174SOPE   C2419742   0.419   1.763  10.067 -0.0307 -0.6723 -0.3645
  174SOPE   H4R19743   0.528   1.766  10.045  0.2569  1.1336  1.0462
  174SOPE   H4S19744   0.386   1.657  10.072 -0.1204 -0.6052  0.6516
  174SOPE   C2519745   0.345   1.839   9.952  0.8677  0.2921  0.2972
  174SOPE   H5R19746   0.243   1.874   9.979 -0.0071 -0.4628 -1.8329
  174SOPE   H5S19747   0.419   1.921   9.948  2.7058 -1.2233  1.3231
  174SOPE   C2619748   0.336   1.755   9.825  0.0261  0.1914  0.6716
  174SOPE   H6R19749   0.429   1.694   9.822 -1.5649 -2.4229 -2.5904
  174SOPE   H6S19750   0.251   1.684   9.817  0.7348 -0.4917 -1.6249
  174SOPE   C2719751   0.337   1.843   9.703  0.7423 -0.3362  0.2067
  174SOPE   H7R19752   0.236   1.890   9.705  1.3373  1.0058  0.1401
  174SOPE   H7S19753   0.408   1.929   9.702 -0.2370  0.5176  1.2371
  174SOPE   C2819754   0.338   1.771   9.566 -0.1907  0.4440 -0.3657
  174SOPE   H8R19755   0.272   1.682   9.573 -0.4512  0.5107 -1.6742
  174SOPE   H8S19756   0.289   1.848   9.502 -0.8002  0.9455  0.6726
  174SOPE   C2919757   0.475   1.722   9.516 -0.0488 -0.3026 -0.2671
  174SOPE   H9119758   0.555   1.696   9.587  0.3952  1.7160  0.0382
  174SOPE  C21019759   0.519   1.713   9.391 -0.4941 -0.7653 -1.0141
  174SOPE  H10119760   0.618   1.667   9.375 -0.4602 -2.0546  2.2539
  174SOPE  C21119761   0.442   1.749   9.265  0.3432 -0.1575  0.7108
  174SOPE  H11R19762   0.483   1.845   9.228 -0.2862  0.2456  1.0430
  174SOPE  H11S19763   0.335   1.768   9.286  1.0809  2.5054  2.5696
  174SOPE  C21219764   0.452   1.636   9.159  0.4177  0.3841  0.1652
  174SOPE  H12R19765   0.403   1.551   9.212 -0.6084  1.2754  0.6957
  174SOPE  H12S19766   0.554   1.608   9.125  0.0576  1.2807 -1.8012
  174SOPE  C21319767   0.350   1.652   9.041 -0.2247  1.1177 -0.9230
  174SOPE  H13R19768   0.359   1.744   8.980  2.6970  1.7837  0.3559
  174SOPE  H13S19769   0.250   1.681   9.080 -0.3322 -0.7361  0.3340
  174SOPE  C21419770   0.343   1.528   8.955  0.4653  0.4923 -0.1519
  174SOPE  H14R19771   0.237   1.508   8.928  0.3793  1.8615 -0.9517
  174SOPE  H14S19772   0.379   1.446   9.021  2.1117  0.3663 -1.1426
  174SOPE  C21519773   0.414   1.537   8.820 -0.8006 -0.4019  0.0955
  174SOPE  H15R19774   0.416   1.643   8.787  0.1161 -0.7931 -1.1969
  174SOPE  H15S19775   0.357   1.481   8.743  0.9765 -0.4642 -1.2531
  174SOPE  C21619776   0.558   1.482   8.816 -0.4957  0.3563 -0.0870
  174SOPE  H16R19777   0.565   1.371   8.817 -0.6523  0.3431 -0.2945
  174SOPE  H16S19778   0.616   1.509   8.906  1.4381 -1.3863 -0.7210
  174SOPE  C21719779   0.629   1.534   8.698 -0.0408  0.4453  0.1401
  174SOPE  H17R19780   0.736   1.505   8.708 -0.5224 -2.0473 -1.0508
  174SOPE  H17S19781   0.618   1.644   8.703 -1.3066  0.2750  2.0402
  174SOPE  C21819782   0.588   1.493   8.558  0.3751  1.1108 -0.0530
  174SOPE  H18R19783   0.570   1.383   8.554 -1.5789  1.2585  2.4554
  174SOPE  H18S19784   0.655   1.525   8.475 -1.3660 -1.1471 -2.5039
  174SOPE  H18T19785   0.492   1.545   8.536  0.5331  2.0736  1.3813
  174SOPE   C3319786   0.507   2.204  10.388 -0.6193  0.4104 -0.9693
  174SOPE   H3X19787   0.411   2.250  10.421 -1.1458 -2.5179  2.1184
  174SOPE   H3Y19788   0.481   2.099  10.363 -1.2202 -0.1439  1.6493
  174SOPE   C3419789   0.562   2.280  10.273 -0.2450 -0.1059  0.4408
  174SOPE   H4X19790   0.655   2.229  10.240 -0.2003 -0.7109  1.4448
  174SOPE   H4Y19791   0.569   2.390  10.286  1.4228 -0.1057 -0.2487
  174SOPE   C3519792   0.462   2.264  10.154  0.2530  0.7037  0.5581
  174SOPE   H5X19793   0.376   2.322  10.193 -0.9587  1.3645 -2.7605
  174SOPE   H5Y19794   0.434   2.158  10.136  1.0129  0.6531 -0.3992
  174SOPE   C3619795   0.526   2.309  10.021  0.0411  0.4730  0.4892
  174SOPE   H6X19796   0.631   2.274  10.007 -0.6956 -0.9518 -2.3256
  174SOPE   H6Y19797   0.524   2.419  10.007  0.8088  0.6644  1.6969
  174SOPE   C3719798   0.451   2.250   9.895  0.1949 -0.6193  0.0630
  174SOPE   H7X19799   0.346   2.288   9.895 -0.9668 -3.4876 -1.2234
  174SOPE   H7Y19800   0.439   2.139   9.895  0.1270 -0.6323  1.7394
  174SOPE   C3819801   0.523   2.290   9.768 -0.4051  0.4517 -0.0576
  174SOPE   H8X19802   0.627   2.250   9.769 -0.2529  0.8218  0.9223
  174SOPE   H8Y19803   0.526   2.401   9.761  4.6075  0.7811  2.4031
  174SOPE   C3919804   0.471   2.225   9.639  0.1010 -0.8788  0.1223
  174SOPE   H9X19805   0.384   2.292   9.621  0.2292 -0.5857  0.5644
  174SOPE   H9Y19806   0.431   2.123   9.658 -4.7708  0.4378 -1.5107
  174SOPE  C31019807   0.566   2.244   9.519  0.3182 -0.2580  0.0987
  174SOPE  H10X19808   0.669   2.206   9.536  0.1102 -1.1794 -0.6131
  174SOPE  H10Y19809   0.579   2.354   9.511  1.4627 -0.3050  1.1187
  174SOPE  C31119810   0.517   2.190   9.382  0.1542 -0.2784 -0.1634
  174SOPE  H11X19811   0.407   2.174   9.392 -0.0334  1.6463  1.5451
  174SOPE  H11Y19812   0.569   2.094   9.364  1.2588  0.1740  0.5575
  174SOPE  C31219813   0.553   2.287   9.266  0.0146  0.3986 -0.2874
  174SOPE  H12X19814   0.664   2.291   9.267  0.1061  0.4335  3.7132
  174SOPE  H12Y19815   0.509   2.381   9.306  1.4671  0.6180  0.8778
  174SOPE  C31319816   0.493   2.258   9.127  0.5510 -0.2986  0.4638
  174SOPE  H13X19817   0.545   2.167   9.089  1.3041  0.4658 -0.3645
  174SOPE  H13Y19818   0.515   2.340   9.055  1.9780 -0.5422  0.6056
  174SOPE  C31419819   0.341   2.230   9.136  0.0597 -0.3115 -0.0365
  174SOPE  H14X19820   0.296   2.319   9.185  1.7328  0.1666  0.7155
  174SOPE  H14Y19821   0.332   2.134   9.191 -2.3656 -0.4480 -0.5676
  174SOPE  C31519822   0.288   2.214   8.995 -0.0705  0.1248  0.3107
  174SOPE  H15X19823   0.313   2.297   8.925 -1.9073  1.3208  0.9683
  174SOPE  H15Y19824   0.178   2.205   9.009 -0.0778  0.1088  0.2419
  174SOPE  C31619825   0.323   2.076   8.939  0.5178  0.3840  0.2066
  174SOPE  H16X19826   0.270   1.997   8.996  0.9379  1.0684  1.5829
  174SOPE  H16Y19827   0.432   2.056   8.943  0.4309 -0.0088  0.5954
  174SOPE  C31719828   0.298   2.064   8.786 -0.2558 -0.0704 -0.3945
  174SOPE  H17X19829   0.356   2.150   8.744  0.6556 -0.4919 -0.0238
  174SOPE  H17Y19830   0.189   2.078   8.770 -0.3318 -1.4762 -1.2776
  174SOPE  C31819831   0.340   1.934   8.729 -0.2480  0.4409  0.1686
  174SOPE  H18X19832   0.448   1.916   8.751 -0.0660  0.7934 -0.4142
  174SOPE  H18Y19833   0.318   1.924   8.621 -4.2952 -1.7904  1.0004
  174SOPE  H18Z19834   0.287   1.851   8.781 -0.3818 -0.3743 -1.2197
  175SOPE     N19835   6.672   3.294  10.963 -0.0487  0.2786 -0.3261
  175SOPE   HN119836   6.596   3.228  10.989 -0.1210  0.3412 -0.3774
  175SOPE   HN219837   6.763   3.264  11.003  0.3431  0.2854 -1.1833
  175SOPE   HN319838   6.658   3.390  11.002 -0.0315 -0.2120  0.9258
  175SOPE   C1219839   6.676   3.268  10.814  0.3175  0.6318 -1.0387
  175SOPE  H12A19840   6.570   3.262  10.779 -0.2906  0.7481  0.6604
  175SOPE  H12B19841   6.712   3.163  10.803 -0.0575  0.3497  0.3041
  175SOPE   C1119842   6.761   3.379  10.749 -0.5454 -0.0445 -0.0386
  175SOPE  H11A19843   6.712   3.473  10.779  0.4175  0.0515  1.3497
  175SOPE  H11B19844   6.758   3.376  10.638  1.7519  0.1897 -0.1606
  175SOPE     P19845   7.008   3.269  10.748 -0.0149  0.2584 -0.6938
  175SOPE   O1319846   6.984   3.156  10.846  0.0122 -0.8486  0.8010
  175SOPE   O1419847   7.147   3.316  10.751 -0.5315 -0.2184  0.1697
  175SOPE   O1219848   6.899   3.382  10.795  0.2894  0.3117 -0.3608
  175SOPE   O1119849   6.966   3.230  10.598 -0.4652  0.2185 -0.2979
  175SOPE    C119850   7.048   3.126  10.538  0.5626 -0.2862 -0.1528
  175SOPE    HA19851   7.099   3.066  10.616  0.3191  0.8133  0.8978
  175SOPE    HB19852   7.124   3.173  10.472 -0.9490  0.3847 -1.4722
  175SOPE    C219853   6.963   3.030  10.448 -0.0721  0.4232 -0.7767
  175SOPE    HS19854   7.021   2.976  10.370  0.1210 -3.2860  1.6980
  175SOPE   O2119855   6.854   3.098  10.380 -0.5428 -0.1109 -0.4815
  175SOPE   C2119856   6.888   3.199  10.298  0.4152  0.5663  0.1493
  175SOPE   O2219857   6.998   3.229  10.255  0.2760 -0.1745 -0.5434
  175SOPE   C2219858   6.756   3.272  10.261  0.0464 -0.0469  0.5930
  175SOPE   H2R19859   6.772   3.378  10.235 -0.3743  0.0171  0.5934
  175SOPE   H2S19860   6.690   3.269  10.351 -2.6825  1.0597 -1.2591
  175SOPE    C319861   6.897   2.917  10.538  0.0050  0.8407 -0.0111
  175SOPE    HX19862   6.817   2.969  10.595 -0.2614  2.3136 -1.6534
  175SOPE    HY19863   6.968   2.872  10.611 -0.3601  1.2272  0.5937
  175SOPE   O3119864   6.841   2.815  10.456 -0.5990  0.7854  0.1300
  175SOPE   C3119865   6.705   2.814  10.441  0.2790  0.4345 -0.1222
  175SOPE   O3219866   6.628   2.900  10.482 -0.1671  0.3749 -0.2788
  175SOPE   C3219867   6.661   2.685  10.364 -0.4088 -0.4555 -0.4047
  175SOPE   H2X19868   6.553   2.706  10.350 -0.7682 -1.6519  0.4103
  175SOPE   H2Y19869   6.679   2.595  10.426  1.5297 -1.2794 -2.0494
  175SOPE   C2319870   6.681   3.185  10.149  0.7314 -0.3970 -0.6633
  175SOPE   H3R19871   6.591   3.235  10.108 -0.0161 -0.6278  0.6478
  175SOPE   H3S19872   6.656   3.086  10.193 -0.0492 -0.2313 -0.7158
  175SOPE   C2419873   6.777   3.160  10.035  0.3832  0.0052  0.2824
  175SOPE   H4R19874   6.831   3.256  10.019  1.4466 -0.6399 -0.0631
  175SOPE   H4S19875   6.857   3.089  10.064  1.7821  0.9528 -1.0828
  175SOPE   C2519876   6.711   3.103   9.906 -0.2324 -0.2338  0.2350
  175SOPE   H5R19877   6.612   3.148   9.881 -0.0869 -0.8468 -1.6360
  175SOPE   H5S19878   6.772   3.129   9.816 -0.5068  0.7848  0.3260
  175SOPE   C2619879   6.691   2.944   9.903 -0.2988 -0.0637  1.1382
  175SOPE   H6R19880   6.792   2.898   9.906 -0.6671 -1.0976 -0.8781
  175SOPE   H6S19881   6.634   2.907   9.990 -1.0096 -2.7319 -0.3669
  175SOPE   C2719882   6.633   2.888   9.771 -0.1573  0.5538  0.0338
  175SOPE   H7R19883   6.680   2.918   9.674  2.3997 -0.3613  0.9027
  175SOPE   H7S19884   6.643   2.778   9.779 -1.6030  0.5175  1.8864
  175SOPE   C2819885   6.484   2.918   9.749 -0.4036  0.1817  0.5303
  175SOPE   H8R19886   6.431   2.904   9.846 -1.0408  0.0457  0.1721
  175SOPE   H8S19887   6.490   3.022   9.712  1.0894  0.1947  0.7510
  175SOPE   C2919888   6.428   2.823   9.644 -0.5125  0.2706 -0.0948
  175SOPE   H9119889   6.378   2.734   9.683  0.5069 -1.5620 -2.7418
  175SOPE  C21019890   6.439   2.842   9.511 -0.1194 -0.8308 -0.2407
  175SOPE  H10119891   6.384   2.770   9.449  1.8960 -0.0148 -3.1886
  175SOPE  C21119892   6.498   2.967   9.446  0.1056 -0.2922  0.2098
  175SOPE  H11R19893   6.521   3.046   9.520 -2.2879  0.2208  0.4829
  175SOPE  H11S19894   6.422   3.008   9.377  1.5126  1.1165 -0.5575
  175SOPE  C21219895   6.622   2.927   9.356  0.0831  0.5326  0.1711
  175SOPE  H12R19896   6.705   2.881   9.414 -0.4870  0.0285  0.5903
  175SOPE  H12S19897   6.650   3.017   9.296 -2.8654 -0.1776 -2.4979
  175SOPE  C21319898   6.603   2.822   9.246  0.4987 -0.5445  0.1482
  175SOPE  H13R19899   6.587   2.725   9.297 -0.7769 -0.6227 -0.3483
  175SOPE  H13S19900   6.688   2.815   9.175 -0.5222  0.4847 -1.2531
  175SOPE  C21419901   6.481   2.865   9.163  0.1792  0.0419  0.3015
  175SOPE  H14R19902   6.486   2.975   9.151 -2.0959  0.1645  0.2014
  175SOPE  H14S19903   6.389   2.840   9.219  0.8030  1.6356  2.1466
  175SOPE  C21519904   6.472   2.790   9.037  0.1048  0.6265 -0.1113
  175SOPE  H15R19905   6.446   2.685   9.065  0.8469  0.6792  0.8209
  175SOPE  H15S19906   6.565   2.792   8.976  0.5031  0.9818  0.5088
  175SOPE  C21619907   6.355   2.837   8.953 -0.2072 -0.8148  0.3576
  175SOPE  H16R19908   6.381   2.927   8.894  0.1101 -0.9762  0.2482
  175SOPE  H16S19909   6.263   2.861   9.011 -1.8063  0.1257 -2.4039
  175SOPE  C21719910   6.309   2.726   8.859 -0.5237 -0.2924  0.4474
  175SOPE  H17R19911   6.272   2.640   8.919 -3.1061  0.0774 -0.4988
  175SOPE  H17S19912   6.387   2.690   8.788 -0.1558  3.6547 -1.4611
  175SOPE  C21819913   6.185   2.782   8.784  0.0293 -0.2160  0.7962
  175SOPE  H18R19914   6.148   2.709   8.708 -2.5859  1.2813  0.5178
  175SOPE  H18S19915   6.203   2.877   8.729 -1.4310 -0.0520  0.5555
  175SOPE  H18T19916   6.108   2.798   8.861  0.0298  1.2329  0.5240
  175SOPE   C3319917   6.734   2.663  10.231  0.2360  0.2302 -0.5876
  175SOPE   H3X19918   6.841   2.631  10.238 -0.1313 -0.6934  1.3320
  175SOPE   H3Y19919   6.722   2.754  10.168  1.5859  0.5668 -0.3911
  175SOPE   C3419920   6.667   2.546  10.157 -0.3802  0.0108 -0.3748
  175SOPE   H4X19921   6.677   2.451  10.214  2.8719 -0.6380 -1.7874
  175SOPE   H4Y19922   6.718   2.538  10.059 -1.4761  1.1840 -1.0638
  175SOPE   C3519923   6.514   2.566  10.129 -0.6033 -0.1911  0.2301
  175SOPE   H5X19924   6.494   2.672  10.104  1.5304  0.1851 -0.1034
  175SOPE   H5Y19925   6.465   2.541  10.225 -0.4502 -0.7696  0.1634
  175SOPE   C3619926   6.464   2.475  10.022 -0.4395 -0.1040  0.6203
  175SOPE   H6X19927   6.353   2.489  10.027 -0.3397  1.6555 -0.8102
  175SOPE   H6Y19928   6.504   2.373  10.036  0.8533 -0.3332 -3.3739
  175SOPE   C3719929   6.508   2.508   9.883  0.1727  0.2182 -0.0544
  175SOPE   H7X19930   6.614   2.475   9.875  0.2424  0.0228  1.4672
  175SOPE   H7Y19931   6.509   2.616   9.856 -0.5073  0.0982 -0.5690
  175SOPE   C3819932   6.420   2.461   9.770  0.2867 -0.6313  0.0114
  175SOPE   H8X19933   6.329   2.523   9.756 -0.2825 -1.9082 -2.4468
  175SOPE   H8Y19934   6.383   2.357   9.779 -3.0004  0.2939 -1.3223
  175SOPE   C3919935   6.488   2.462   9.629 -0.0369 -0.6742 -0.4053
  175SOPE   H9X19936   6.589   2.414   9.630  0.3173  0.0410  0.9254
  175SOPE   H9Y19937   6.502   2.566   9.590 -1.1170  0.4530  2.0065
  175SOPE  C31019938   6.388   2.406   9.531  0.3535 -0.3945  0.2704
  175SOPE  H10X19939   6.290   2.456   9.534 -0.4578 -1.8783 -0.2705
  175SOPE  H10Y19940   6.361   2.299   9.546  0.2014 -0.5048 -0.7111
  175SOPE  C31119941   6.414   2.440   9.384 -0.5876  0.3062  0.8886
  175SOPE  H11X19942   6.450   2.545   9.376 -0.9389  0.2819 -1.9895
  175SOPE  H11Y19943   6.322   2.417   9.327  0.6544 -0.2897 -1.0093
  175SOPE  C31219944   6.525   2.360   9.320  0.0423 -0.3559 -0.0608
  175SOPE  H12X19945   6.496   2.254   9.311  0.5447 -0.5929  0.9943
  175SOPE  H12Y19946   6.620   2.379   9.374  0.4647 -1.2556 -0.4700
  175SOPE  C31319947   6.537   2.418   9.178  0.1588 -0.1962  0.3283
  175SOPE  H13X19948   6.599   2.508   9.195  2.0592 -1.6059  1.2632
  175SOPE  H13Y19949   6.443   2.454   9.132  0.3672 -0.5409 -0.3771
  175SOPE  C31419950   6.601   2.323   9.074  0.2125 -0.3086  0.0916
  175SOPE  H14X19951   6.546   2.227   9.081  0.8583 -0.6021  1.7635
  175SOPE  H14Y19952   6.701   2.303   9.117  1.0242  0.2510 -1.4698
  175SOPE  C31519953   6.613   2.375   8.929  0.3670 -0.1280 -0.2601
  175SOPE  H15X19954   6.694   2.319   8.878 -4.3121 -3.8782 -4.5813
  175SOPE  H15Y19955   6.624   2.486   8.931 -1.6056  0.1090  1.3366
  175SOPE  C31619956   6.491   2.342   8.845  0.6783 -0.3614  0.2294
  175SOPE  H16X19957   6.403   2.390   8.893  0.6812  0.2209 -0.3385
  175SOPE  H16Y19958   6.473   2.233   8.863  0.2640 -0.3181  0.0960
  175SOPE  C31719959   6.503   2.385   8.700 -0.3133 -0.1800  0.2399
  175SOPE  H17X19960   6.577   2.325   8.642 -1.7410 -2.0188  0.2033
  175SOPE  H17Y19961   6.532   2.491   8.689  0.2989 -0.5263 -2.2321
  175SOPE  C31819962   6.372   2.366   8.616 -0.6521 -1.2647  0.1554
  175SOPE  H18X19963   6.398   2.375   8.508  0.0906 -0.4975  0.3866
  175SOPE  H18Y19964   6.303   2.445   8.651 -1.9232 -1.7009 -1.2588
  175SOPE  H18Z19965   6.315   2.275   8.643 -2.1088  0.0205  1.6145
  176SOPE     N19966   0.629   3.147  11.086 -0.2280 -0.0854 -0.1413
  176SOPE   HN119967   0.733   3.143  11.077 -0.0790 -1.3796  1.5967
  176SOPE   HN219968   0.605   3.235  11.136 -0.6168  0.4758 -1.2875
  176SOPE   HN319969   0.594   3.074  11.152 -0.3176  1.2409  1.3491
  176SOPE   C1219970   0.560   3.143  10.951  0.5473 -0.7629  0.2504
  176SOPE  H12A19971   0.622   3.208  10.886 -0.5723  1.6030  1.4098
  176SOPE  H12B19972   0.462   3.195  10.964  1.2531  1.2697 -1.9262
  176SOPE   C1119973   0.548   3.004  10.899  0.0337  0.4370 -0.2874
  176SOPE  H11A19974   0.516   3.013  10.793  0.1379  0.6713 -0.3001
  176SOPE  H11B19975   0.471   2.951  10.959 -1.8420  1.0488 -2.0234
  176SOPE     P19976   0.684   2.774  10.892 -0.3985 -0.1842 -0.6057
  176SOPE   O1319977   0.552   2.726  10.858 -0.2240 -0.0889 -0.2147
  176SOPE   O1419978   0.752   2.723  11.015  0.2413  0.4029 -0.7304
  176SOPE   O1219979   0.675   2.935  10.908 -1.0256  0.1664  0.3817
  176SOPE   O1119980   0.782   2.756  10.768 -0.4693 -0.3695 -0.7177
  176SOPE    C119981   0.836   2.869  10.695 -0.3180  0.1767 -0.7044
  176SOPE    HA19982   0.936   2.834  10.661 -0.3522 -1.8181  1.0670
  176SOPE    HB19983   0.857   2.952  10.765  1.3170 -2.7816  2.6246
  176SOPE    C219984   0.750   2.908  10.571 -0.6456 -0.2338  0.7118
  176SOPE    HS19985   0.679   2.990  10.593 -1.1337 -0.6008  0.5090
  176SOPE   O2119986   0.696   2.787  10.521 -0.2008  0.1865 -0.3923
  176SOPE   C2119987   0.569   2.791  10.499 -0.4503 -0.5193 -0.8058
  176SOPE   O2219988   0.496   2.885  10.523  0.4505  0.2168  0.7431
  176SOPE   C2219989   0.529   2.654  10.442  0.7825 -0.2665 -0.5227
  176SOPE   H2R19990   0.478   2.615  10.533  2.1477 -1.5133 -0.2585
  176SOPE   H2S19991   0.610   2.580  10.428  0.2447 -0.9283 -0.2078
  176SOPE    C319992   0.844   2.984  10.472 -0.2653 -0.4318  0.2071
  176SOPE    HX19993   0.931   2.916  10.460  0.1403 -0.0088  0.7077
  176SOPE    HY19994   0.891   3.075  10.516  2.4718 -1.5816 -0.1380
  176SOPE   O3119995   0.793   3.006  10.340  0.4774 -0.5425 -0.0834
  176SOPE   C3119996   0.740   3.129  10.318  0.2385  0.3981  0.2536
  176SOPE   O3219997   0.747   3.219  10.396  0.1267 -0.6229  0.1427
  176SOPE   C3219998   0.680   3.130  10.180 -0.8295  1.4596  0.7317
  176SOPE   H2X19999   0.702   3.228  10.134  1.0319  0.3893 -0.7982
  176SOPE   H2Y20000   0.570   3.133  10.199 -0.9589 -0.1869  0.4229
  176SOPE   C2320001   0.422   2.649  10.333  0.5028  0.1036  0.9265
  176SOPE   H3R20002   0.335   2.701  10.380  0.3358  0.3305  0.3778
  176SOPE   H3S20003   0.400   2.543  10.310  0.2094  0.9525 -3.7166
  176SOPE   C2420004   0.464   2.710  10.202 -0.3740 -0.2136 -0.7011
  176SOPE   H4R20005   0.489   2.817  10.220 -2.2003  0.4233 -1.6554
  176SOPE   H4S20006   0.555   2.652  10.177  0.3337 -1.1358  3.3196
  176SOPE   C2520007   0.358   2.693  10.089 -0.3053  0.1620  0.1128
  176SOPE   H5R20008   0.305   2.596  10.096 -0.5821  0.0138 -2.7561
  176SOPE   H5S20009   0.282   2.764  10.128  1.2044  0.4547  2.7586
  176SOPE   C2620010   0.411   2.734   9.951  0.1162 -0.1137 -0.2193
  176SOPE   H6R20011   0.459   2.834   9.958 -1.6913  0.8509 -0.9681
  176SOPE   H6S20012   0.498   2.666   9.936  0.4762  0.4912 -0.9607
  176SOPE   C2720013   0.315   2.721   9.833  0.1391 -1.2293  0.0127
  176SOPE   H7R20014   0.230   2.782   9.870  0.3946 -0.6830 -0.2970
  176SOPE   H7S20015   0.346   2.771   9.739 -0.8920  1.6049  1.0775
  176SOPE   C2820016   0.254   2.585   9.804  0.6838  0.2116  0.1940
  176SOPE   H8R20017   0.335   2.514   9.773  2.2889  1.2607  1.7730
  176SOPE   H8S20018   0.217   2.552   9.903 -1.0818  0.7310 -0.2582
  176SOPE   C2920019   0.140   2.591   9.709 -0.5987 -0.5523 -0.0189
  176SOPE   H9120020   0.042   2.611   9.755 -0.6431 -0.2489 -0.2426
  176SOPE  C21020021   0.141   2.569   9.570  0.5236  0.7924  0.6932
  176SOPE  H10120022   0.050   2.584   9.511  0.5360  0.1503  0.5075
  176SOPE  C21120023   0.273   2.547   9.489  0.6791 -0.1740 -0.0291
  176SOPE  H11R20024   0.274   2.439   9.464 -1.9325 -0.7829  2.0381
  176SOPE  H11S20025   0.369   2.570   9.539  0.9574 -0.7037 -0.3097
  176SOPE  C21220026   0.288   2.629   9.358  0.1554  0.5262  0.4900
  176SOPE  H12R20027   0.385   2.603   9.312  0.3977  0.5224  0.9945
  176SOPE  H12S20028   0.302   2.736   9.383  0.5740  0.9540 -1.4634
  176SOPE  C21320029   0.183   2.610   9.243 -0.0860  0.1891 -0.0338
  176SOPE  H13R20030   0.096   2.674   9.265  1.1006  1.3186  1.5928
  176SOPE  H13S20031   0.156   2.502   9.241 -0.1689  0.2107 -1.5017
  176SOPE  C21420032   0.239   2.650   9.103  0.9310  0.0657 -0.8250
  176SOPE  H14R20033   0.323   2.579   9.089 -1.2675 -2.7492 -0.6980
  176SOPE  H14S20034   0.288   2.749   9.099  0.9291  0.0945 -0.2471
  176SOPE  C21520035   0.146   2.627   8.979 -0.3238  0.3568 -0.4576
  176SOPE  H15R20036   0.060   2.697   8.987 -0.2784  0.5242 -1.2959
  176SOPE  H15S20037   0.102   2.526   8.986  0.6819 -0.0839 -0.2317
  176SOPE  C21620038   0.207   2.643   8.838  0.7020 -0.2871 -0.0178
  176SOPE  H16R20039   0.309   2.605   8.821  1.1321  0.3270  1.1099
  176SOPE  H16S20040   0.214   2.751   8.813 -0.7535 -0.6877 -2.5337
  176SOPE  C21720041   0.103   2.588   8.738  0.3470  0.4556  0.1946
  176SOPE  H17R20042   0.102   2.647   8.644  1.8477  3.9954  2.2373
  176SOPE  H17S20043   0.002   2.601   8.783  0.2064  1.1012 -0.2916
  176SOPE  C21820044   0.127   2.442   8.707 -0.0006 -0.8720 -0.3704
  176SOPE  H18R20045   0.047   2.404   8.640  0.0781  1.0654 -1.6611
  176SOPE  H18S20046   0.129   2.387   8.803 -2.3737  1.4971  1.1785
  176SOPE  H18T20047   0.225   2.437   8.654  0.2208 -1.6828  0.1089
  176SOPE   C3320048   0.720   2.997  10.094  0.3305  0.3289  0.3133
  176SOPE   H3X20049   0.691   2.899  10.137 -1.0729  0.5313 -0.1106
  176SOPE   H3Y20050   0.828   2.985  10.071 -0.2098 -1.2497 -1.6788
  176SOPE   C3420051   0.651   2.999   9.958 -0.2109  0.3946  0.3241
  176SOPE   H4X20052   0.688   3.088   9.904  0.8355 -1.2081 -1.7710
  176SOPE   H4Y20053   0.539   3.000   9.959 -0.2799 -1.6553 -0.0695
  176SOPE   C3520054   0.710   2.888   9.867  0.7090  0.1762 -0.3786
  176SOPE   H5X20055   0.673   2.787   9.895  0.2289  0.8288  1.4770
  176SOPE   H5Y20056   0.820   2.904   9.866  0.5515  1.3418 -1.4209
  176SOPE   C3620057   0.662   2.904   9.723 -0.7116 -0.3107  0.1760
  176SOPE   H6X20058   0.695   3.004   9.690 -2.2091  0.1551  0.0178
  176SOPE   H6Y20059   0.551   2.907   9.728 -0.9841 -0.8390 -3.0807
  176SOPE   C3720060   0.711   2.786   9.626  0.2725 -0.2564 -0.0461
  176SOPE   H7X20061   0.692   2.691   9.681 -3.2159 -0.3206 -1.1313
  176SOPE   H7Y20062   0.821   2.795   9.611  0.0108  1.7722 -1.1379
  176SOPE   C3820063   0.636   2.774   9.492  0.3398  0.4639 -0.4147
  176SOPE   H8X20064   0.654   2.871   9.440  0.7918 -1.2329 -3.6871
  176SOPE   H8Y20065   0.528   2.755   9.503  0.3234 -1.5595 -2.9950
  176SOPE   C3920066   0.700   2.663   9.408  0.2708  0.0237  0.4650
  176SOPE   H9X20067   0.682   2.561   9.449  1.3532  0.3435  1.8181
  176SOPE   H9Y20068   0.810   2.679   9.407  0.1019  1.4031  1.2048
  176SOPE  C31020069   0.664   2.651   9.254 -0.0265 -0.5170 -0.8459
  176SOPE  H10X20070   0.600   2.741   9.252  0.3309 -0.2688 -1.1281
  176SOPE  H10Y20071   0.593   2.567   9.237 -0.1212 -0.3806 -1.1212
  176SOPE  C31120072   0.791   2.654   9.156  0.2453  0.3729  0.1599
  176SOPE  H11X20073   0.838   2.554   9.167  0.8614  0.6766  0.2972
  176SOPE  H11Y20074   0.860   2.733   9.191 -0.7896  0.9036  1.0568
  176SOPE  C31220075   0.742   2.672   9.009 -0.0563 -0.3872  0.3067
  176SOPE  H12X20076   0.832   2.692   8.947  0.0828 -0.1945  0.5729
  176SOPE  H12Y20077   0.677   2.761   9.001 -0.7074 -0.9484 -1.0662
  176SOPE  C31320078   0.663   2.550   8.948  0.0933  0.4178  0.1860
  176SOPE  H13X20079   0.560   2.547   8.989 -0.1878  1.0618 -0.4403
  176SOPE  H13Y20080   0.717   2.456   8.970 -0.7813  0.1294  1.1427
  176SOPE  C31420081   0.637   2.587   8.801  0.8563 -0.1802 -0.1644
  176SOPE  H14X20082   0.733   2.600   8.747  0.5777 -2.0229 -1.2063
  176SOPE  H14Y20083   0.578   2.681   8.789  0.2642 -0.3100  1.5118
  176SOPE  C31520084   0.549   2.483   8.717  0.4432  0.2724 -0.3156
  176SOPE  H15X20085   0.466   2.454   8.784  0.8096  0.9091  0.4291
  176SOPE  H15Y20086   0.606   2.393   8.685  1.0770 -0.4854  2.6615
  176SOPE  C31620087   0.487   2.546   8.591 -0.1096 -0.9689 -0.0041
  176SOPE  H16X20088   0.430   2.637   8.618 -0.5441 -1.3265  0.2874
  176SOPE  H16Y20089   0.413   2.472   8.555  1.3526 -2.4451 -0.0682
  176SOPE  C31720090   0.575   2.590   8.475  0.4254 -0.5978 -0.6921
  176SOPE  H17X20091   0.508   2.596   8.387 -0.6002  0.1933  0.1162
  176SOPE  H17Y20092   0.643   2.507   8.445  1.5914  0.0931 -0.0204
  176SOPE  C31820093   0.652   2.714   8.503 -0.8964  0.3978 -0.5670
  176SOPE  H18X20094   0.692   2.765   8.413  0.8737  1.4351  0.7480
  176SOPE  H18Y20095   0.738   2.687   8.568 -0.4995  0.6448 -0.9819
  176SOPE  H18Z20096   0.605   2.795   8.563 -0.0262 -1.4163  2.8311
  177SOPE     N20097   1.761   6.206  10.760  0.5164  0.5353 -0.8705
  177SOPE   HN120098   1.862   6.207  10.733  0.6943 -0.5054 -0.2804
  177SOPE   HN220099   1.760   6.157  10.851  2.0190 -0.8121 -1.5177
  177SOPE   HN320100   1.725   6.132  10.696  0.3446 -0.7703  0.6827
  177SOPE   C1220101   1.670   6.324  10.758 -0.1486  0.0349 -0.0281
  177SOPE  H12A20102   1.658   6.366  10.656 -1.2003  1.1901  0.5507
  177SOPE  H12B20103   1.724   6.395  10.825  0.4550 -0.3085 -0.1342
  177SOPE   C1120104   1.527   6.285  10.800 -0.3362  0.6344  0.2929
  177SOPE  H11A20105   1.497   6.203  10.731  0.8712 -1.5695  2.2353
  177SOPE  H11B20106   1.446   6.359  10.781  0.8575  1.4769 -1.8396
  177SOPE     P20107   1.393   6.233  11.016  0.1459 -0.0778  0.4296
  177SOPE   O1320108   1.329   6.362  10.986 -0.1557 -0.0715 -0.4108
  177SOPE   O1420109   1.417   6.214  11.162  0.4758 -0.2777 -0.0389
  177SOPE   O1220110   1.528   6.216  10.931  0.6141 -0.1786  0.0390
  177SOPE   O1120111   1.290   6.120  10.966 -0.0788 -0.1064 -0.0297
  177SOPE    C120112   1.334   5.980  10.946  0.0579 -0.6823 -0.3326
  177SOPE    HA20113   1.265   5.909  10.995  0.7764 -0.6219  0.8174
  177SOPE    HB20114   1.434   5.960  10.990 -0.9139 -0.7476  1.9691
  177SOPE    C220115   1.317   5.925  10.801 -0.6286  0.1157 -0.2752
  177SOPE    HS20116   1.385   5.982  10.735  2.1644 -1.1313  1.3323
  177SOPE   O2120117   1.182   5.929  10.760  0.4588 -0.1061  0.0091
  177SOPE   C2120118   1.122   6.045  10.722  0.0359 -0.3435  0.4363
  177SOPE   O2220119   1.181   6.146  10.706 -0.5757 -0.0999 -0.1863
  177SOPE   C2220120   0.969   6.010  10.682 -0.1265  0.1336 -0.5528
  177SOPE   H2R20121   0.909   6.071  10.754 -1.0815  1.5307 -2.4365
  177SOPE   H2S20122   0.956   5.903  10.707 -1.9734  0.9412  2.5188
  177SOPE    C320123   1.377   5.780  10.789  0.6652  0.1034  0.2719
  177SOPE    HX20124   1.307   5.708  10.838 -0.0204  1.1828  0.9244
  177SOPE    HY20125   1.478   5.777  10.834  1.3764  1.2005 -1.2042
  177SOPE   O3120126   1.409   5.748  10.654  0.4880 -0.0439  0.2179
  177SOPE   C3120127   1.435   5.615  10.643 -0.0526 -0.6696 -0.0388
  177SOPE   O3220128   1.433   5.534  10.731  0.8799 -0.0514 -0.3946
  177SOPE   C3220129   1.465   5.588  10.494 -0.5484  0.2147 -0.2497
  177SOPE   H2X20130   1.559   5.647  10.491  0.2814 -0.6432  3.6581
  177SOPE   H2Y20131   1.381   5.639  10.443  0.0232 -0.0315 -1.4758
  177SOPE   C2320132   0.925   6.037  10.540  0.0289  0.6504  0.2681
  177SOPE   H3R20133   0.821   5.998  10.537  0.0180  0.7160 -1.0455
  177SOPE   H3S20134   0.989   5.979  10.471 -0.8496 -1.3478  1.0714
  177SOPE   C2420135   0.914   6.182  10.502 -0.1646 -0.5785 -0.4543
  177SOPE   H4R20136   0.854   6.251  10.565  0.4967 -0.0786 -0.3561
  177SOPE   H4S20137   1.015   6.226  10.519  0.6642 -2.4786 -0.1686
  177SOPE   C2520138   0.877   6.196  10.350 -0.5604  0.2182  0.1882
  177SOPE   H5R20139   0.909   6.300  10.327 -1.0178  0.3489  0.1390
  177SOPE   H5S20140   0.937   6.122  10.294  1.5838  2.1853 -0.2980
  177SOPE   C2620141   0.729   6.171  10.337  1.0784 -0.1752 -0.1564
  177SOPE   H6R20142   0.703   6.070  10.374 -1.0778  0.1199 -0.6898
  177SOPE   H6S20143   0.669   6.240  10.402  0.5903  0.0960 -0.8849
  177SOPE   C2720144   0.675   6.153  10.194  0.5239  0.5007 -0.6520
  177SOPE   H7R20145   0.571   6.115  10.190  0.5255  0.5260 -1.0037
  177SOPE   H7S20146   0.671   6.254  10.147  1.9184  0.6268 -0.5548
  177SOPE   C2820147   0.765   6.062  10.104  0.6113  0.6686 -0.3034
  177SOPE   H8R20148   0.860   6.117  10.112  2.6064 -2.3742 -1.2950
  177SOPE   H8S20149   0.788   5.963  10.149 -0.3865  0.5286 -0.0743
  177SOPE   C2920150   0.716   6.050   9.964 -0.0105 -0.1077 -0.1805
  177SOPE   H9120151   0.736   6.139   9.903 -0.3634 -0.4033 -0.7338
  177SOPE  C21020152   0.646   5.941   9.915 -0.8677 -0.7891 -0.6390
  177SOPE  H10120153   0.620   5.947   9.808 -0.5690  2.2192 -0.6080
  177SOPE  C21120154   0.608   5.815   9.990 -0.6342  0.0253 -0.2109
  177SOPE  H11R20155   0.642   5.809  10.095  2.6786  1.8175 -1.0197
  177SOPE  H11S20156   0.651   5.732   9.929 -0.2065  0.4543 -0.5007
  177SOPE  C21220157   0.453   5.790   9.987  0.2893  0.3616 -0.9049
  177SOPE  H12R20158   0.408   5.875  10.042  2.2174  0.0846  1.2737
  177SOPE  H12S20159   0.420   5.696  10.038 -1.4102  0.7913 -1.1559
  177SOPE  C21320160   0.386   5.797   9.853  0.3167  0.6067 -0.1917
  177SOPE  H13R20161   0.434   5.722   9.787  1.9162  1.0639  0.3960
  177SOPE  H13S20162   0.400   5.897   9.807  0.0741  1.5455  1.6551
  177SOPE  C21420163   0.234   5.758   9.861 -0.2572  0.0507  0.5802
  177SOPE  H14R20164   0.190   5.823   9.940 -1.2242  0.8759 -0.5910
  177SOPE  H14S20165   0.224   5.649   9.877 -1.2720 -0.1881 -1.4058
  177SOPE  C21520166   0.169   5.806   9.732  0.0063  0.3079 -0.2365
  177SOPE  H15R20167   0.157   5.719   9.663 -2.6786  0.5169 -0.1379
  177SOPE  H15S20168   0.229   5.886   9.684  0.8690  0.4926  1.1000
  177SOPE  C21620169   0.023   5.855   9.755 -0.5944 -0.0804  0.0157
  177SOPE  H16R20170   0.017   5.954   9.806 -0.1814  0.1891 -0.4511
  177SOPE  H16S20171  -0.013   5.790   9.837 -1.2853 -1.5486 -1.3954
  177SOPE  C21720172  -0.072   5.837   9.634 -0.0980  0.2116 -0.3389
  177SOPE  H17R20173  -0.081   5.731   9.602  0.3780  0.0803 -0.0435
  177SOPE  H17S20174  -0.026   5.889   9.547  0.9395 -0.9621 -0.5191
  177SOPE  C21820175  -0.208   5.902   9.663 -0.2836  0.3145 -1.1263
  177SOPE  H18R20176  -0.268   5.853   9.742 -1.4208  0.0993 -2.1036
  177SOPE  H18S20177  -0.277   5.896   9.577 -3.1109 -0.9672  1.0880
  177SOPE  H18T20178  -0.200   6.009   9.692 -1.6185 -0.4202  2.5827
  177SOPE   C3320179   1.477   5.434  10.457  0.2045  0.3406  0.2277
  177SOPE   H3X20180   1.382   5.384  10.486 -0.3390  0.1507 -1.6907
  177SOPE   H3Y20181   1.563   5.389  10.510  1.3566  1.0449 -0.9887
  177SOPE   C3420182   1.518   5.427  10.311  0.4358 -0.5980 -0.2838
  177SOPE   H4X20183   1.628   5.435  10.294  0.1042  2.7254 -1.5801
  177SOPE   H4Y20184   1.480   5.513  10.253 -2.0234 -0.8496  0.8597
  177SOPE   C3520185   1.474   5.295  10.239 -0.2532  0.4097 -0.7236
  177SOPE   H5X20186   1.367   5.286  10.210 -0.3183 -1.8306  0.0013
  177SOPE   H5Y20187   1.497   5.206  10.301 -1.5398 -0.7360 -1.8307
  177SOPE   C3620188   1.562   5.276  10.113  0.3544  0.4498 -0.6123
  177SOPE   H6X20189   1.552   5.170  10.083  3.1731  0.6313 -2.6004
  177SOPE   H6Y20190   1.667   5.297  10.142  1.7666 -4.1426 -1.5105
  177SOPE   C3720191   1.520   5.364   9.993 -0.3081 -0.0964 -0.0729
  177SOPE   H7X20192   1.516   5.474  10.008 -0.5347  0.1088 -1.5189
  177SOPE   H7Y20193   1.418   5.324   9.973 -0.4787  0.9018 -1.3659
  177SOPE   C3820194   1.606   5.343   9.865 -0.3657  0.5985 -0.4584
  177SOPE   H8X20195   1.603   5.234   9.846 -2.2898  0.6771 -0.8234
  177SOPE   H8Y20196   1.711   5.376   9.883 -0.4796  1.5697 -1.4044
  177SOPE   C3920197   1.541   5.401   9.737 -0.3741  0.0083  0.3070
  177SOPE   H9X20198   1.610   5.401   9.650 -0.4664  1.8486  0.1865
  177SOPE   H9Y20199   1.533   5.508   9.767 -2.1950 -0.1628  0.5211
  177SOPE  C31020200   1.410   5.336   9.699 -0.8881 -0.5197 -0.2501
  177SOPE  H10X20201   1.340   5.363   9.780 -0.2376  2.5044 -0.5656
  177SOPE  H10Y20202   1.421   5.225   9.692 -0.3624 -0.5843  1.2112
  177SOPE  C31120203   1.356   5.388   9.561  0.2257  0.2884 -0.2090
  177SOPE  H11X20204   1.355   5.499   9.556  3.0336  0.3566 -3.9352
  177SOPE  H11Y20205   1.253   5.355   9.538  0.0817  0.5498  0.0597
  177SOPE  C31220206   1.443   5.344   9.439 -0.8408 -0.7075  0.7276
  177SOPE  H12X20207   1.445   5.233   9.444 -1.5365 -0.7751 -0.1896
  177SOPE  H12Y20208   1.546   5.373   9.468 -1.9136  1.3274  2.8326
  177SOPE  C31320209   1.400   5.396   9.302 -0.0145 -0.5480 -0.4372
  177SOPE  H13X20210   1.499   5.427   9.260  0.4060  2.1473  2.2355
  177SOPE  H13Y20211   1.337   5.487   9.310 -0.2477 -0.8471  1.5381
  177SOPE  C31420212   1.320   5.285   9.224 -0.1744  0.4275 -0.4603
  177SOPE  H14X20213   1.229   5.262   9.283 -2.4221  1.3775 -3.3449
  177SOPE  H14Y20214   1.390   5.200   9.208  0.8987  1.4237 -1.2315
  177SOPE  C31520215   1.286   5.333   9.079  0.8673  0.4094 -1.0843
  177SOPE  H15X20216   1.378   5.367   9.027  0.2626  2.3880 -0.9447
  177SOPE  H15Y20217   1.208   5.412   9.073 -1.0830 -1.2588  0.5178
  177SOPE  C31620218   1.224   5.221   9.003  0.3145  0.1367 -0.0669
  177SOPE  H16X20219   1.135   5.184   9.059  0.4547  1.0856  0.8028
  177SOPE  H16Y20220   1.298   5.138   8.998  0.3358  0.2208 -1.4614
  177SOPE  C31720221   1.185   5.255   8.859 -0.3342  0.4016  0.0643
  177SOPE  H17X20222   1.282   5.286   8.813  0.8614 -1.0272  1.4731
  177SOPE  H17Y20223   1.125   5.348   8.860 -1.1350 -0.1041 -0.4188
  177SOPE  C31820224   1.108   5.151   8.785 -0.9488 -0.6277  0.5179
  177SOPE  H18X20225   1.016   5.133   8.845  0.6269 -1.8020  2.7183
  177SOPE  H18Y20226   1.150   5.048   8.783 -2.8692 -1.4467  0.3429
  177SOPE  H18Z20227   1.082   5.171   8.679  1.0354 -0.1316  0.0705
  178SOPE     N20228   3.510   4.779  10.900 -0.3047 -0.3254  0.3759
  178SOPE   HN120229   3.507   4.767  10.797 -0.7752 -2.5669  0.5963
  178SOPE   HN220230   3.474   4.872  10.927  2.1930  0.6827  0.4813
  178SOPE   HN320231   3.608   4.764  10.930 -0.2295 -1.0515 -0.2024
  178SOPE   C1220232   3.430   4.662  10.946  0.4724  1.3393  0.0232
  178SOPE  H12A20233   3.327   4.703  10.952  0.7905  2.4107 -1.2160
  178SOPE  H12B20234   3.471   4.628  11.043  1.8748  1.9100 -0.3465
  178SOPE   C1120235   3.429   4.543  10.847  1.0331  0.6077  0.5755
  178SOPE  H11A20236   3.361   4.565  10.762  0.0036  0.6838  1.3887
  178SOPE  H11B20237   3.381   4.459  10.902  1.1359 -0.9027 -1.5302
  178SOPE     P20238   3.635   4.399  10.822 -0.0457 -0.4075  0.2459
  178SOPE   O1320239   3.663   4.418  10.969 -0.0378  0.5591  0.2689
  178SOPE   O1420240   3.749   4.384  10.733 -0.0677  0.1132 -0.6760
  178SOPE   O1220241   3.552   4.523  10.788 -0.6904 -0.2119 -0.0112
  178SOPE   O1120242   3.543   4.274  10.796  0.0636 -0.1916 -0.3572
  178SOPE    C120243   3.467   4.241  10.676 -0.2955 -0.5891  0.7768
  178SOPE    HA20244   3.420   4.333  10.635 -0.8027 -0.6430  1.2255
  178SOPE    HB20245   3.378   4.177  10.693 -0.4571 -1.2221 -1.9632
  178SOPE    C220246   3.558   4.167  10.570  0.6395  0.3470  0.5357
  178SOPE    HS20247   3.652   4.223  10.550  1.1856 -0.8776 -0.4336
  178SOPE   O2120248   3.473   4.161  10.453 -0.3451  0.7316 -0.3967
  178SOPE   C2120249   3.533   4.157  10.340  0.0508  0.7265  0.3279
  178SOPE   O2220250   3.651   4.176  10.315 -0.4169 -0.3262 -0.3428
  178SOPE   C2220251   3.414   4.138  10.244  0.4150 -0.3221 -0.0605
  178SOPE   H2R20252   3.356   4.233  10.243  0.0059 -0.5518 -1.7615
  178SOPE   H2S20253   3.347   4.059  10.284 -0.9980  0.5119 -0.7045
  178SOPE    C320254   3.604   4.026  10.613 -0.1904 -0.1812 -0.3181
  178SOPE    HX20255   3.511   3.973  10.642  1.1878 -2.3017  0.4830
  178SOPE    HY20256   3.668   4.020  10.703  1.0307  0.4251 -1.1120
  178SOPE   O3120257   3.664   3.950  10.506  0.5111 -0.0987  0.5214
  178SOPE   C3120258   3.791   3.988  10.464 -0.1596  0.3244 -0.4789
  178SOPE   O3220259   3.853   4.066  10.528  0.0038  0.2196 -0.0127
  178SOPE   C3220260   3.842   3.893  10.354 -0.4087  0.2479  0.2725
  178SOPE   H2X20261   3.764   3.884  10.275  1.7447 -0.7042 -1.8962
  178SOPE   H2Y20262   3.852   3.794  10.404  1.1571  1.4454  2.4638
  178SOPE   C2320263   3.447   4.108  10.097 -0.6632 -0.3792 -0.7620
  178SOPE   H3R20264   3.523   4.027  10.097  0.3049  0.5079 -0.2724
  178SOPE   H3S20265   3.492   4.201  10.056  0.4056 -0.5472 -0.0224
  178SOPE   C2420266   3.322   4.074  10.017 -0.2990  0.0324  0.0721
  178SOPE   H4R20267   3.260   3.984  10.038  0.9602 -0.8819 -0.0366
  178SOPE   H4S20268   3.255   4.163  10.020  0.9807  1.0090  0.5390
  178SOPE   C2520269   3.354   4.047   9.872 -0.5808 -0.4329  0.1213
  178SOPE   H5R20270   3.423   4.125   9.832  0.6966 -0.7951  1.5634
  178SOPE   H5S20271   3.413   3.956   9.848 -2.0945 -1.0702 -1.4306
  178SOPE   C2620272   3.234   4.047   9.775  0.3649  0.5336  0.3111
  178SOPE   H6R20273   3.177   4.142   9.781  1.7557  1.3595  0.9030
  178SOPE   H6S20274   3.274   4.038   9.672  0.6749  0.5099  0.4329
  178SOPE   C2720275   3.136   3.934   9.822 -0.1380  0.0061 -0.2763
  178SOPE   H7R20276   3.198   3.843   9.837 -1.9596 -0.8151  3.9089
  178SOPE   H7S20277   3.086   3.951   9.920  1.9452  0.8180  0.7002
  178SOPE   C2820278   3.034   3.907   9.707  0.1295  0.2516  0.4327
  178SOPE   H8R20279   2.949   3.845   9.744 -1.4893  2.8138  1.2305
  178SOPE   H8S20280   2.988   4.007   9.694  1.2663  0.4241 -3.2805
  178SOPE   C2920281   3.087   3.854   9.578 -0.8274  0.7699  0.2537
  178SOPE   H9120282   3.129   3.754   9.597 -0.6742  0.9945  1.1355
  178SOPE  C21020283   3.108   3.919   9.459  0.4633  0.2309 -0.0388
  178SOPE  H10120284   3.146   3.864   9.371  0.7652  0.2553  0.0737
  178SOPE  C21120285   3.069   4.063   9.451 -0.6181  0.5350 -0.1757
  178SOPE  H11R20286   3.110   4.124   9.534  3.3547 -1.2927 -0.5610
  178SOPE  H11S20287   2.957   4.064   9.448 -0.7286 -1.9599  0.9241
  178SOPE  C21220288   3.103   4.144   9.328 -0.4252 -0.5969 -0.4937
  178SOPE  H12R20289   3.212   4.169   9.325 -0.7876  1.1375 -0.0047
  178SOPE  H12S20290   3.047   4.239   9.334  2.4191  1.1958 -0.0841
  178SOPE  C21320291   3.057   4.071   9.195  0.3772 -0.5329 -0.8315
  178SOPE  H13R20292   2.948   4.056   9.204  0.6368 -1.4380  1.8580
  178SOPE  H13S20293   3.102   3.969   9.194 -0.2785 -0.8223 -1.6902
  178SOPE  C21420294   3.094   4.153   9.072 -0.3761  0.0776  0.0090
  178SOPE  H14R20295   3.196   4.197   9.072 -0.7052  0.9426 -2.1649
  178SOPE  H14S20296   3.023   4.239   9.074  1.2299  1.4592  1.9269
  178SOPE  C21520297   3.077   4.057   8.946 -0.2817  0.2345 -0.6591
  178SOPE  H15R20298   2.976   4.012   8.935  0.0574 -0.7771  0.0999
  178SOPE  H15S20299   3.146   3.970   8.942 -1.8527 -1.1156  0.1591
  178SOPE  C21620300   3.119   4.134   8.819  0.9907  1.0138 -0.3484
  178SOPE  H16R20301   3.121   4.048   8.748  0.1238 -0.0930  0.9077
  178SOPE  H16S20302   3.219   4.181   8.828  1.5851 -0.1493 -0.6302
  178SOPE  C21720303   3.019   4.243   8.768 -0.5622 -0.2387 -0.6551
  178SOPE  H17R20304   3.003   4.321   8.846  0.1971 -1.4107  0.7256
  178SOPE  H17S20305   2.915   4.204   8.754 -0.9255  0.9887 -1.5220
  178SOPE  C21820306   3.075   4.322   8.654  0.5376  0.6167  0.0833
  178SOPE  H18R20307   3.177   4.357   8.680  0.9538 -0.6771  0.2813
  178SOPE  H18S20308   3.007   4.405   8.625  0.2620  0.1804 -0.5485
  178SOPE  H18T20309   3.079   4.252   8.568 -1.0112 -2.5202  2.3505
  178SOPE   C3320310   3.972   3.933  10.284  0.8927 -0.3058  0.0625
  178SOPE   H3X20311   4.064   3.934  10.345  0.4948  1.0681  0.6822
  178SOPE   H3Y20312   3.964   4.038  10.248 -1.0769 -0.3205  0.3194
  178SOPE   C3420313   4.000   3.854  10.152 -0.3039  0.0565  0.2218
  178SOPE   H4X20314   3.913   3.882  10.089  0.5353  1.7383 -0.2619
  178SOPE   H4Y20315   4.000   3.744  10.167  1.6744 -0.0157 -0.0718
  178SOPE   C3520316   4.139   3.888  10.086  0.1003  0.2223 -0.6672
  178SOPE   H5X20317   4.210   3.873  10.171 -0.2475 -1.1368 -0.5914
  178SOPE   H5Y20318   4.144   3.990  10.044 -0.3946  0.7748  0.5791
  178SOPE   C3620319   4.186   3.786   9.979 -0.4565 -0.8460  0.5374
  178SOPE   H6X20320   4.194   3.685  10.023  0.2946 -0.5012  1.2278
  178SOPE   H6Y20321   4.280   3.833   9.944 -1.2927 -0.2013 -0.9505
  178SOPE   C3720322   4.086   3.780   9.863  0.5873 -0.2981  0.0260
  178SOPE   H7X20323   4.025   3.872   9.850 -0.6988 -1.0836  0.3749
  178SOPE   H7Y20324   4.013   3.702   9.893  0.5657 -0.5581 -0.7092
  178SOPE   C3820325   4.157   3.743   9.728 -0.0964  0.4794  0.2440
  178SOPE   H8X20326   4.238   3.667   9.742 -0.0347  0.3662 -0.6429
  178SOPE   H8Y20327   4.216   3.835   9.706  0.6696  0.3300  1.5114
  178SOPE   C3920328   4.055   3.713   9.617  0.1757  0.0898 -0.7510
  178SOPE   H9X20329   3.991   3.802   9.599 -0.0392  0.1615  0.3450
  178SOPE   H9Y20330   4.004   3.620   9.651 -1.5116  1.0509 -0.5528
  178SOPE  C31020331   4.121   3.676   9.479  0.1483 -0.0310  0.9078
  178SOPE  H10X20332   4.154   3.570   9.486 -0.3448 -0.1630  1.2648
  178SOPE  H10Y20333   4.210   3.741   9.469  0.8633 -0.6338  2.8717
  178SOPE  C31120334   4.019   3.707   9.369 -0.1438 -0.1413 -0.1816
  178SOPE  H11X20335   4.023   3.818   9.359 -1.1647  0.0137  0.7963
  178SOPE  H11Y20336   3.916   3.682   9.402  0.3256 -1.1657  0.5476
  178SOPE  C31220337   4.056   3.629   9.238  0.1916 -0.3746  0.9591
  178SOPE  H12X20338   4.069   3.522   9.264  2.0602 -1.1011 -2.4281
  178SOPE  H12Y20339   4.148   3.668   9.189  0.1271  2.8951  3.1173
  178SOPE  C31320340   3.934   3.640   9.137 -0.1938 -0.2573  0.3668
  178SOPE  H13X20341   3.892   3.743   9.147 -2.1068 -1.2103  3.6741
  178SOPE  H13Y20342   3.852   3.570   9.164 -0.8240  0.2215 -0.2416
  178SOPE  C31420343   3.972   3.612   8.995  0.0752  0.3890 -0.7653
  178SOPE  H14X20344   4.029   3.698   8.952 -1.5113  1.8130 -0.1281
  178SOPE  H14Y20345   3.877   3.611   8.937 -0.8819 -1.0361  0.7585
  178SOPE  C31520346   4.046   3.478   8.985  0.8030 -0.0760  0.1997
  178SOPE  H15X20347   3.980   3.396   9.021  1.2497 -0.0453  1.1165
  178SOPE  H15Y20348   4.139   3.480   9.046 -0.8567  1.9979  2.8992
  178SOPE  C31620349   4.076   3.441   8.842 -0.0211  0.2319 -0.4879
  178SOPE  H16X20350   4.135   3.520   8.791  0.8821 -0.2173 -0.1682
  178SOPE  H16Y20351   3.975   3.422   8.801 -1.7056  0.5258  3.1569
  178SOPE  C31720352   4.151   3.310   8.819 -0.4201 -0.4001 -0.1618
  178SOPE  H17X20353   4.155   3.290   8.710  0.8702 -3.0116  0.2721
  178SOPE  H17Y20354   4.099   3.226   8.870 -0.0273 -0.2495  0.5005
  178SOPE  C31820355   4.292   3.319   8.877  0.3281  0.2260 -0.0475
  178SOPE  H18X20356   4.358   3.397   8.834  3.1607 -1.0207  1.7862
  178SOPE  H18Y20357   4.342   3.222   8.855 -1.3088 -0.4504 -0.9744
  178SOPE  H18Z20358   4.283   3.335   8.987  0.2748 -0.6862  0.0899
  179SOPE     N20359   3.180   4.563   6.256 -0.0207 -0.1498  0.4397
  179SOPE   HN120360   3.147   4.468   6.232 -0.5971  0.5601 -1.8465
  179SOPE   HN220361   3.126   4.598   6.338 -1.6772 -1.3136 -0.1152
  179SOPE   HN320362   3.170   4.629   6.176  1.7920 -0.6119 -0.2231
  179SOPE   C1220363   3.317   4.551   6.303 -0.4118 -0.2037  0.3570
  179SOPE  H12A20364   3.342   4.647   6.355  0.7109 -1.2796  1.8896
  179SOPE  H12B20365   3.381   4.533   6.214 -0.9030  3.2944 -0.8501
  179SOPE   C1120366   3.331   4.439   6.406  0.3624 -0.6294  0.7328
  179SOPE  H11A20367   3.297   4.350   6.349  0.7637 -1.6618  2.0376
  179SOPE  H11B20368   3.261   4.445   6.492 -0.5323 -2.2320  0.1603
  179SOPE     P20369   3.562   4.516   6.527  0.5324 -0.0322 -0.2693
  179SOPE   O1320370   3.557   4.648   6.464 -0.4966  0.3172  0.1406
  179SOPE   O1420371   3.692   4.447   6.528  0.1645  0.3972 -0.5395
  179SOPE   O1220372   3.462   4.421   6.448  0.4711 -0.1308 -0.1125
  179SOPE   O1120373   3.496   4.519   6.676 -0.0002 -0.9436  0.3597
  179SOPE    C120374   3.458   4.408   6.751  0.4029  0.2520  0.0211
  179SOPE    HA20375   3.423   4.329   6.681  0.0552  1.9554 -1.8195
  179SOPE    HB20376   3.367   4.436   6.809 -1.4322 -0.6186 -2.2834
  179SOPE    C220377   3.576   4.358   6.840 -0.0812 -0.0471  0.8725
  179SOPE    HS20378   3.635   4.300   6.766 -1.3068  1.0488 -1.0278
  179SOPE   O2120379   3.519   4.272   6.940  0.3781 -0.5458  0.0021
  179SOPE   C2120380   3.602   4.179   6.984 -0.3045  0.1887 -0.0717
  179SOPE   O2220381   3.707   4.150   6.923 -0.8617  0.3329  0.2160
  179SOPE   C2220382   3.537   4.095   7.089 -0.0600 -0.0387 -0.3698
  179SOPE   H2R20383   3.561   3.991   7.056  2.6764  1.4770 -3.6439
  179SOPE   H2S20384   3.426   4.106   7.095 -0.0390 -0.0824  4.1972
  179SOPE    C320385   3.649   4.480   6.899  0.1571 -0.3528  0.8966
  179SOPE    HX20386   3.566   4.544   6.935 -1.1122 -0.6139 -1.3782
  179SOPE    HY20387   3.707   4.532   6.819 -0.3429 -2.6980 -1.0991
  179SOPE   O3120388   3.732   4.446   7.010  0.1023  0.1367 -0.6472
  179SOPE   C3120389   3.856   4.400   6.994  0.0597  1.0442  0.0043
  179SOPE   O3220390   3.911   4.378   6.892  0.2409 -0.0129  0.3473
  179SOPE   C3220391   3.927   4.381   7.142 -0.0530 -0.4973 -0.7264
  179SOPE   H2X20392   3.848   4.389   7.220  0.4010  0.6866 -0.3668
  179SOPE   H2Y20393   3.994   4.469   7.153  1.1202 -1.5826  1.5621
  179SOPE   C2320394   3.602   4.108   7.231 -0.3389  0.2466 -1.1676
  179SOPE   H3R20395   3.592   4.216   7.255 -0.7059 -0.2332  1.0553
  179SOPE   H3S20396   3.710   4.084   7.226 -0.5359 -0.6798 -1.2522
  179SOPE   C2420397   3.536   4.020   7.346 -1.0541 -0.6743 -0.0007
  179SOPE   H4R20398   3.428   4.048   7.344 -1.8464 -3.4164 -0.4889
  179SOPE   H4S20399   3.549   3.911   7.330  0.4322 -0.6839  1.0507
  179SOPE   C2520400   3.592   4.046   7.486  0.0937 -0.4558 -0.2263
  179SOPE   H5R20401   3.620   4.152   7.503 -1.1245 -0.1538 -0.0231
  179SOPE   H5S20402   3.511   4.031   7.560  0.5295  1.5934  0.7311
  179SOPE   C2620403   3.712   3.962   7.527  0.1042 -0.4134  0.6123
  179SOPE   H6R20404   3.694   3.857   7.495 -0.1192  0.7403 -3.6699
  179SOPE   H6S20405   3.793   4.012   7.471 -1.0913  3.2094  1.8591
  179SOPE   C2720406   3.745   3.969   7.681 -0.2751  0.2313 -0.0109
  179SOPE   H7R20407   3.837   4.031   7.687 -1.5659  2.1901  0.9239
  179SOPE   H7S20408   3.664   4.031   7.725  1.6129  1.9167  1.2924
  179SOPE   C2820409   3.762   3.835   7.757 -0.3650  0.2672  0.3055
  179SOPE   H8R20410   3.665   3.785   7.738  0.1487 -0.3839 -0.7634
  179SOPE   H8S20411   3.833   3.769   7.701 -1.4899 -0.5402 -0.2065
  179SOPE   C2920412   3.813   3.855   7.900 -0.2198 -0.1902  0.0164
  179SOPE   H9120413   3.921   3.874   7.896 -0.5511  1.9121  0.1969
  179SOPE  C21020414   3.736   3.876   8.010 -0.6031 -0.1250 -0.4436
  179SOPE  H10120415   3.786   3.889   8.108  0.2433  0.1848 -0.9039
  179SOPE  C21120416   3.587   3.875   8.023  0.5216 -0.3520 -0.0786
  179SOPE  H11R20417   3.539   3.816   7.941  0.7216 -1.5982  0.6732
  179SOPE  H11S20418   3.549   3.977   8.003 -0.2194 -0.6766 -0.3993
  179SOPE  C21220419   3.543   3.808   8.154  0.3967  0.0581 -0.1621
  179SOPE  H12R20420   3.589   3.874   8.230  0.0420  1.7236 -1.3349
  179SOPE  H12S20421   3.580   3.703   8.153 -1.2742 -0.5856  1.2263
  179SOPE  C21320422   3.395   3.804   8.175 -0.5277  0.7031  0.0317
  179SOPE  H13R20423   3.365   3.742   8.262 -0.5292  0.4096 -0.1769
  179SOPE  H13S20424   3.345   3.766   8.083  1.9704  1.9094 -1.9502
  179SOPE  C21420425   3.338   3.946   8.195  0.2761 -0.2741 -0.0848
  179SOPE  H14R20426   3.228   3.941   8.203  0.3739 -1.8560  0.6363
  179SOPE  H14S20427   3.359   4.010   8.106 -1.2728  0.3815 -0.0038
  179SOPE  C21520428   3.387   4.026   8.318 -0.0360  0.0126  0.3149
  179SOPE  H15R20429   3.318   4.111   8.333 -1.7048 -1.5636  2.3415
  179SOPE  H15S20430   3.490   4.050   8.286 -0.4126  0.2258 -0.7518
  179SOPE  C21620431   3.388   3.951   8.456 -0.0917 -0.3168  0.3531
  179SOPE  H16R20432   3.425   4.019   8.535  0.7386  0.1899 -0.4537
  179SOPE  H16S20433   3.445   3.856   8.460  0.4382  0.0219  0.9719
  179SOPE  C21720434   3.238   3.931   8.491  0.7543  0.4026 -0.1888
  179SOPE  H17R20435   3.190   3.871   8.410  0.6693 -0.2503  0.3401
  179SOPE  H17S20436   3.183   4.027   8.505 -1.3985 -0.4779 -1.8898
  179SOPE  C21820437   3.224   3.845   8.608 -0.4118  0.5562  0.6126
  179SOPE  H18R20438   3.264   3.893   8.701  1.9514  2.1621 -1.1016
  179SOPE  H18S20439   3.269   3.745   8.594 -2.1152  0.0460 -1.6187
  179SOPE  H18T20440   3.117   3.819   8.614 -0.2311 -0.1529  0.8310
  179SOPE   C3320441   4.016   4.257   7.162  0.0557 -0.0281 -0.4161
  179SOPE   H3X20442   4.063   4.249   7.062 -1.4542  2.2485 -1.3774
  179SOPE   H3Y20443   3.951   4.167   7.168 -1.5861  1.0538 -1.3421
  179SOPE   C3420444   4.116   4.266   7.280  0.1419  0.4241  0.5588
  179SOPE   H4X20445   4.169   4.363   7.271  0.9168 -0.0214  0.2426
  179SOPE   H4Y20446   4.183   4.178   7.271  0.4729  0.5281  1.8294
  179SOPE   C3520447   4.054   4.252   7.418 -0.3398 -0.2233  0.2327
  179SOPE   H5X20448   4.002   4.155   7.430 -1.0921  0.1953  0.4152
  179SOPE   H5Y20449   3.978   4.332   7.432  3.1726  3.1966  1.5669
  179SOPE   C3620450   4.163   4.260   7.524  0.6801  0.9094  1.2760
  179SOPE   H6X20451   4.210   4.361   7.513 -1.1464  1.5296 -2.0114
  179SOPE   H6Y20452   4.238   4.183   7.497 -0.0713  0.7692 -0.4989
  179SOPE   C3720453   4.133   4.226   7.667  0.3786 -0.3643 -0.1572
  179SOPE   H7X20454   4.117   4.116   7.669 -1.8356 -0.1306 -1.4718
  179SOPE   H7Y20455   4.026   4.253   7.682  0.7850  0.2049  2.0840
  179SOPE   C3820456   4.235   4.286   7.761 -0.5244  0.0073 -0.0510
  179SOPE   H8X20457   4.212   4.394   7.768  1.5501  0.3703  3.4178
  179SOPE   H8Y20458   4.339   4.284   7.720 -0.9028 -0.8584 -1.0252
  179SOPE   C3920459   4.219   4.248   7.914  0.6067  0.5130  0.3481
  179SOPE   H9X20460   4.119   4.284   7.947 -0.2139  0.9058 -2.3130
  179SOPE   H9Y20461   4.302   4.295   7.971  1.8576 -1.0443 -0.1171
  179SOPE  C31020462   4.232   4.094   7.949 -0.3671  0.3564  1.0044
  179SOPE  H10X20463   4.319   4.051   7.896 -1.3304 -0.8394  0.3335
  179SOPE  H10Y20464   4.148   4.034   7.906  1.1924 -0.2310 -1.3789
  179SOPE  C31120465   4.230   4.061   8.098  0.4651  0.3250  0.0877
  179SOPE  H11X20466   4.138   4.106   8.141  0.9033  2.2812 -0.9005
  179SOPE  H11Y20467   4.322   4.101   8.147  0.3576  0.0408  0.5217
  179SOPE  C31220468   4.227   3.906   8.112 -0.2365  0.3566  0.1583
  179SOPE  H12X20469   4.302   3.861   8.043  0.9287 -0.4718  1.8895
  179SOPE  H12Y20470   4.129   3.860   8.087  0.4557 -1.4580  0.6227
  179SOPE  C31320471   4.270   3.859   8.252  0.2777 -0.1752 -0.3570
  179SOPE  H13X20472   4.179   3.865   8.316  0.2314 -0.3684 -0.4038
  179SOPE  H13Y20473   4.353   3.913   8.301  1.1470 -1.5807 -0.2473
  179SOPE  C31420474   4.317   3.714   8.247 -0.2314  0.9972 -0.8672
  179SOPE  H14X20475   4.398   3.700   8.172 -0.1492 -0.6608 -0.4931
  179SOPE  H14Y20476   4.227   3.654   8.219 -0.8293  1.1835  0.6073
  179SOPE  C31520477   4.373   3.669   8.380 -0.2827  0.2040  0.0079
  179SOPE  H15X20478   4.316   3.703   8.469 -0.6735 -0.4917  0.0379
  179SOPE  H15Y20479   4.471   3.718   8.395  0.1964 -1.0177  1.1367
  179SOPE  C31620480   4.390   3.516   8.385 -0.6580 -0.7937  0.2988
  179SOPE  H16X20481   4.468   3.493   8.310 -0.0405  0.8840  0.3803
  179SOPE  H16Y20482   4.297   3.465   8.351 -2.0767  0.3942  2.1820
  179SOPE  C31720483   4.416   3.464   8.528  0.0100  0.9512  0.8136
  179SOPE  H17X20484   4.420   3.354   8.512 -1.1388  1.0911 -0.6563
  179SOPE  H17Y20485   4.324   3.494   8.583 -1.2900  1.5423 -1.5510
  179SOPE  C31820486   4.546   3.498   8.601  0.1296  0.0827 -0.3141
  179SOPE  H18X20487   4.546   3.608   8.621  2.0984  0.3202 -1.3504
  179SOPE  H18Y20488   4.641   3.466   8.552  0.1542  0.9819 -0.8892
  179SOPE  H18Z20489   4.554   3.461   8.705  0.2187  1.5987  0.2543
  180SOPE     N20490   3.097   5.310   6.285 -0.2685  0.7162 -0.7071
  180SOPE   HN120491   3.136   5.272   6.373  0.1972  2.1801 -0.2447
  180SOPE   HN220492   3.167   5.381   6.254  0.3419  0.3637 -0.1582
  180SOPE   HN320493   3.003   5.352   6.302 -0.9554 -0.7546 -0.8002
  180SOPE   C1220494   3.085   5.196   6.194 -0.0890  0.6040  0.0299
  180SOPE  H12A20495   3.185   5.151   6.174 -0.8468 -0.0725 -2.5471
  180SOPE  H12B20496   3.046   5.236   6.098 -0.6864  0.3172  0.1524
  180SOPE   C1120497   3.006   5.083   6.253 -0.0517  0.2174 -0.1183
  180SOPE  H11A20498   3.052   5.057   6.350 -0.3054 -1.3834 -0.3904
  180SOPE  H11B20499   3.013   4.985   6.201 -1.3827  0.3539 -0.5838
  180SOPE     P20500   2.752   5.031   6.296 -0.1486 -0.0878 -0.0189
  180SOPE   O1320501   2.745   4.921   6.194  0.2619  0.2047 -0.5102
  180SOPE   O1420502   2.632   5.115   6.303 -0.5875  0.1017 -0.4532
  180SOPE   O1220503   2.875   5.127   6.272  0.3040  0.4026  0.3638
  180SOPE   O1120504   2.778   4.964   6.437 -1.2311 -0.1861 -0.9433
  180SOPE    C120505   2.769   5.048   6.556 -0.3134  0.5976  0.0223
  180SOPE    HA20506   2.661   5.061   6.580 -0.2553 -1.2172  1.5298
  180SOPE    HB20507   2.825   5.141   6.534 -0.4405  0.4901 -0.8009
  180SOPE    C220508   2.820   4.981   6.690  0.0913 -0.0379  0.3552
  180SOPE    HS20509   2.917   4.932   6.666 -0.6316 -1.4664  0.2102
  180SOPE   O2120510   2.719   4.886   6.735  0.0416 -0.5084 -0.2353
  180SOPE   C2120511   2.750   4.811   6.837 -0.1052  0.7213  0.0643
  180SOPE   O2220512   2.864   4.773   6.862  0.4444 -0.5146  0.0591
  180SOPE   C2220513   2.623   4.786   6.910 -0.6512  0.8938  0.1028
  180SOPE   H2R20514   2.533   4.776   6.846 -0.7674  1.2492  0.2120
  180SOPE   H2S20515   2.606   4.875   6.974 -1.6247  0.6987  0.1247
  180SOPE    C320516   2.834   5.093   6.793  0.4899 -0.1062  0.1291
  180SOPE    HX20517   2.732   5.109   6.834  0.0480  0.6772 -1.2282
  180SOPE    HY20518   2.868   5.189   6.748  1.4626  0.4823  2.0042
  180SOPE   O3120519   2.926   5.064   6.898 -0.0564  0.3837 -0.3057
  180SOPE   C3120520   3.055   5.098   6.876 -0.2140  0.4742 -0.7033
  180SOPE   O3220521   3.101   5.110   6.764  0.0933  0.4532 -0.4691
  180SOPE   C3220522   3.124   5.120   7.011  0.2044 -0.4306  0.7931
  180SOPE   H2X20523   3.051   5.128   7.095 -1.3097 -1.2839 -0.3905
  180SOPE   H2Y20524   3.177   5.217   7.001 -0.8804  0.0523 -0.7003
  180SOPE   C2320525   2.637   4.658   7.000  0.3470  0.9143  0.7087
  180SOPE   H3R20526   2.730   4.604   6.973 -0.0384  0.6683 -0.1766
  180SOPE   H3S20527   2.554   4.590   6.972  1.2743 -0.2758  0.7543
  180SOPE   C2420528   2.624   4.677   7.145  0.8597  0.7952  0.6306
  180SOPE   H4R20529   2.529   4.729   7.172 -1.0432 -2.3579  0.4465
  180SOPE   H4S20530   2.618   4.578   7.195 -0.8271  1.1122  1.1100
  180SOPE   C2520531   2.749   4.754   7.204 -0.2251  0.5916 -0.2709
  180SOPE   H5R20532   2.841   4.705   7.166  0.0984  1.1950 -0.2764
  180SOPE   H5S20533   2.755   4.862   7.178  5.4833  0.4457 -0.7691
  180SOPE   C2620534   2.749   4.743   7.358  0.1827 -0.9227  0.2688
  180SOPE   H6R20535   2.823   4.822   7.382 -2.6621  2.2432 -0.5868
  180SOPE   H6S20536   2.652   4.774   7.404  0.3576 -1.2423  0.8687
  180SOPE   C2720537   2.781   4.610   7.429  0.0310 -0.7068  0.0254
  180SOPE   H7R20538   2.708   4.537   7.390 -0.8208 -0.5922  1.3329
  180SOPE   H7S20539   2.874   4.561   7.391 -0.0130 -1.9742  1.4260
  180SOPE   C2820540   2.786   4.610   7.587 -0.1113 -0.3741  0.6263
  180SOPE   H8R20541   2.700   4.671   7.624  0.0485  1.0361 -1.1987
  180SOPE   H8S20542   2.753   4.511   7.626 -1.4507 -0.1600  0.0918
  180SOPE   C2920543   2.904   4.674   7.642 -0.1401 -0.2561  0.5814
  180SOPE   H9120544   2.959   4.735   7.569  0.6988 -2.1492 -0.4496
  180SOPE  C21020545   2.952   4.667   7.766 -0.4794 -0.6647 -0.4845
  180SOPE  H10120546   3.046   4.722   7.780 -1.4980  0.8692  0.6529
  180SOPE  C21120547   2.894   4.589   7.877  0.2069 -0.6927  0.0838
  180SOPE  H11R20548   2.972   4.526   7.923  1.2406  0.6489  0.2311
  180SOPE  H11S20549   2.814   4.519   7.845 -0.7745  1.0912 -1.6363
  180SOPE  C21220550   2.834   4.674   7.995 -0.2611  0.3846  0.3662
  180SOPE  H12R20551   2.756   4.737   7.947  0.5672  0.3942 -1.0095
  180SOPE  H12S20552   2.912   4.741   8.037  0.1126  0.6224 -0.6892
  180SOPE  C21320553   2.783   4.580   8.101 -0.1569  0.2083 -0.1705
  180SOPE  H13R20554   2.860   4.507   8.131 -0.8339 -0.5448 -0.2161
  180SOPE  H13S20555   2.692   4.524   8.068  0.1690  0.3947 -1.4446
  180SOPE  C21420556   2.747   4.650   8.236 -0.9958  0.3518  0.3048
  180SOPE  H14R20557   2.685   4.741   8.225 -0.9235  0.3899  0.2148
  180SOPE  H14S20558   2.841   4.671   8.290 -0.6116 -1.0370  0.2274
  180SOPE  C21520559   2.666   4.549   8.328 -0.1968 -0.4682  0.4818
  180SOPE  H15R20560   2.569   4.519   8.285 -0.3659 -1.1633  1.3178
  180SOPE  H15S20561   2.634   4.616   8.411  0.2251 -0.0324  0.2975
  180SOPE  C21620562   2.741   4.423   8.379 -0.4597  0.1720  0.2307
  180SOPE  H16R20563   2.847   4.448   8.396 -0.3513 -0.2080  0.1430
  180SOPE  H16S20564   2.737   4.337   8.308 -0.6885  0.0366  0.4031
  180SOPE  C21720565   2.677   4.378   8.513  0.6945 -0.3976  0.9078
  180SOPE  H17R20566   2.704   4.450   8.592  3.7736 -0.9041  0.4366
  180SOPE  H17S20567   2.725   4.282   8.542 -0.4819 -1.8179 -1.4374
  180SOPE  C21820568   2.523   4.349   8.524 -0.5990 -0.6248 -0.1021
  180SOPE  H18R20569   2.471   4.444   8.498 -1.4723 -0.8560  0.7393
  180SOPE  H18S20570   2.491   4.328   8.628 -3.0556  1.6389 -0.2682
  180SOPE  H18T20571   2.484   4.265   8.463 -1.5842  0.7527 -1.4908
  180SOPE   C3320572   3.234   5.019   7.035  0.2138  0.6446 -0.6236
  180SOPE   H3X20573   3.303   5.050   7.117  2.0248 -1.4037 -1.2616
  180SOPE   H3Y20574   3.292   5.002   6.942 -2.7073  1.8154 -2.8110
  180SOPE   C3420575   3.169   4.885   7.069 -0.2969  0.3712  0.3723
  180SOPE   H4X20576   3.240   4.802   7.049  0.5230  1.4434 -1.5243
  180SOPE   H4Y20577   3.075   4.875   7.009 -0.1768  1.6286 -0.0510
  180SOPE   C3520578   3.128   4.876   7.215 -0.3190  0.3457  0.1519
  180SOPE   H5X20579   3.067   4.784   7.227 -0.2903  0.2655 -0.2913
  180SOPE   H5Y20580   3.069   4.967   7.241  1.1107  1.3734 -0.0927
  180SOPE   C3620581   3.241   4.861   7.312 -0.1847 -0.2712 -0.2061
  180SOPE   H6X20582   3.325   4.932   7.299  0.6751 -1.2764 -0.3077
  180SOPE   H6Y20583   3.299   4.766   7.313  0.9608  0.3995  1.4186
  180SOPE   C3720584   3.193   4.892   7.455  0.1394 -0.2237 -0.3483
  180SOPE   H7X20585   3.126   4.807   7.481  2.2157 -1.1826  2.3268
  180SOPE   H7Y20586   3.139   4.989   7.456 -1.1078 -0.8894  0.2170
  180SOPE   C3820587   3.309   4.896   7.555 -0.1237 -0.1602  0.1740
  180SOPE   H8X20588   3.362   4.993   7.541  0.0118 -0.2120  0.3339
  180SOPE   H8Y20589   3.378   4.828   7.501 -0.0817  0.2737 -0.3325
  180SOPE   C3920590   3.287   4.868   7.704  0.3890  0.9096 -1.3534
  180SOPE   H9X20591   3.270   4.759   7.718 -0.1716  1.1540 -0.0079
  180SOPE   H9Y20592   3.202   4.921   7.753  0.3265 -0.0391 -0.4030
  180SOPE  C31020593   3.407   4.894   7.789 -0.0811 -0.0919 -0.9601
  180SOPE  H10X20594   3.425   5.003   7.780 -1.0267  0.4073  1.9408
  180SOPE  H10Y20595   3.486   4.849   7.725 -1.9061 -0.4114 -3.0927
  180SOPE  C31120596   3.396   4.845   7.929 -0.3565  0.2872 -0.0096
  180SOPE  H11X20597   3.490   4.839   7.987 -1.1503  1.2639  1.4485
  180SOPE  H11Y20598   3.344   4.747   7.930 -0.2404  0.2190 -0.6311
  180SOPE  C31220599   3.307   4.941   8.018 -0.5704  0.3348  0.0123
  180SOPE  H12X20600   3.217   4.973   7.962 -0.6680 -0.3868 -0.2515
  180SOPE  H12Y20601   3.373   5.018   8.063  0.3365  1.6713 -3.3323
  180SOPE  C31320602   3.247   4.868   8.141  0.7138  0.0498  0.5069
  180SOPE  H13X20603   3.321   4.832   8.216 -1.3640 -1.0061  2.2029
  180SOPE  H13Y20604   3.184   4.791   8.091  0.7397  0.0364  0.4965
  180SOPE  C31420605   3.152   4.953   8.225 -0.2782  0.3556  0.2397
  180SOPE  H14X20606   3.070   4.999   8.165 -0.2189 -0.1310 -0.2175
  180SOPE  H14Y20607   3.210   5.031   8.279 -1.2010  0.4617  1.1118
  180SOPE  C31520608   3.077   4.885   8.337 -0.3910  0.1353  0.0780
  180SOPE  H15X20609   3.157   4.860   8.410 -0.0600 -1.6348 -0.8309
  180SOPE  H15Y20610   3.036   4.788   8.301  0.8447 -1.2920  2.2398
  180SOPE  C31620611   2.965   4.974   8.398 -0.3947  0.2975 -0.2173
  180SOPE  H16X20612   2.899   5.021   8.323  0.7016 -0.4767 -1.7171
  180SOPE  H16Y20613   3.018   5.060   8.446  0.7500 -2.0347  3.0459
  180SOPE  C31720614   2.874   4.912   8.502  0.1410  0.2198 -1.1927
  180SOPE  H17X20615   2.827   4.820   8.460 -2.3078  0.9190 -0.1984
  180SOPE  H17Y20616   2.798   4.991   8.525 -1.8449 -2.0462  0.5062
  180SOPE  C31820617   2.945   4.870   8.637  0.5659 -0.4452  0.4545
  180SOPE  H18X20618   2.991   4.961   8.680 -0.7012  1.1385 -1.3938
  180SOPE  H18Y20619   3.016   4.784   8.626  0.9166  0.0359 -1.3645
  180SOPE  H18Z20620   2.865   4.840   8.708 -1.9034  2.2883 -0.9755
  181SOPE     N20621   1.793   2.514   5.894  0.2896  0.5938  0.7873
  181SOPE   HN120622   1.870   2.470   5.838 -0.4102 -0.7609  0.8364
  181SOPE   HN220623   1.821   2.602   5.940 -0.9906  2.7695 -2.2449
  181SOPE   HN320624   1.774   2.441   5.966 -0.3377  2.0024  2.0851
  181SOPE   C1220625   1.665   2.545   5.812 -0.1783  0.4158  0.9885
  181SOPE  H12A20626   1.631   2.445   5.777  0.9309 -0.3676  2.0515
  181SOPE  H12B20627   1.696   2.605   5.723  0.3079 -1.4621 -0.1722
  181SOPE   C1120628   1.568   2.591   5.910  1.1234 -0.3265  0.4010
  181SOPE  H11A20629   1.560   2.513   5.989  4.2673 -0.2922  0.8873
  181SOPE  H11B20630   1.471   2.603   5.856  0.6368 -2.2920  0.7771
  181SOPE     P20631   1.536   2.790   6.094 -0.0654  0.2978 -0.0764
  181SOPE   O1320632   1.412   2.846   6.038 -0.0678 -0.4167 -0.5680
  181SOPE   O1420633   1.628   2.888   6.149  0.1697 -0.3941 -0.5470
  181SOPE   O1220634   1.609   2.712   5.974  0.5616 -0.8960 -0.3623
  181SOPE   O1120635   1.500   2.676   6.196  0.2628  0.7526 -0.6275
  181SOPE    C120636   1.600   2.590   6.249  0.1288 -0.6228 -0.4053
  181SOPE    HA20637   1.682   2.554   6.183  1.9370 -0.8077  1.8084
  181SOPE    HB20638   1.538   2.498   6.253 -3.0251  1.3848  1.4529
  181SOPE    C220639   1.654   2.610   6.393 -0.8020  0.0080 -0.2247
  181SOPE    HS20640   1.666   2.512   6.444  1.5144  0.1353 -0.4194
  181SOPE   O2120641   1.564   2.679   6.477  0.7123 -0.0374 -0.3049
  181SOPE   C2120642   1.444   2.625   6.492 -0.0385  0.2998 -0.2210
  181SOPE   O2220643   1.396   2.523   6.443  0.6064 -0.0116 -0.2756
  181SOPE   C2220644   1.360   2.693   6.607 -0.5405  0.4750 -0.0583
  181SOPE   H2R20645   1.255   2.708   6.574 -0.0158  3.1428 -0.7531
  181SOPE   H2S20646   1.394   2.799   6.611 -0.1450  0.3523 -0.0987
  181SOPE    C320647   1.786   2.692   6.386 -0.1227 -0.2562  0.4352
  181SOPE    HX20648   1.754   2.784   6.332  0.0875  0.7090  1.8858
  181SOPE    HY20649   1.854   2.646   6.312  0.6371  2.0441 -0.3776
  181SOPE   O3120650   1.845   2.720   6.520  0.1026 -0.2086 -0.6950
  181SOPE   C3120651   1.938   2.811   6.507  0.0976  0.0216  0.2302
  181SOPE   O3220652   1.965   2.878   6.413  0.2813 -0.4223  1.0512
  181SOPE   C3220653   2.008   2.834   6.642 -0.3692  0.3666 -0.1376
  181SOPE   H2X20654   2.045   2.735   6.676  3.6938  1.2971 -1.2726
  181SOPE   H2Y20655   1.927   2.866   6.711 -1.1788  1.2059 -1.4362
  181SOPE   C2320656   1.380   2.626   6.749 -0.8078 -0.2500  0.1399
  181SOPE   H3R20657   1.489   2.617   6.769 -0.2960  1.5090 -1.5900
  181SOPE   H3S20658   1.338   2.523   6.745 -2.5877  0.4298  0.5267
  181SOPE   C2420659   1.310   2.689   6.875  0.1119 -0.1466  0.1936
  181SOPE   H4R20660   1.303   2.800   6.866  0.4901 -0.1388 -0.0137
  181SOPE   H4S20661   1.207   2.649   6.885 -0.0776 -0.4040 -2.2693
  181SOPE   C2520662   1.389   2.659   6.994 -0.1715 -0.5848 -0.4007
  181SOPE   H5R20663   1.433   2.557   7.002 -0.2677 -0.7129 -1.4198
  181SOPE   H5S20664   1.476   2.728   6.991  1.0496 -2.1025 -1.1304
  181SOPE   C2620665   1.317   2.676   7.128 -0.2416 -0.0031  0.8947
  181SOPE   H6R20666   1.282   2.781   7.135  0.5179  0.3890 -0.6563
  181SOPE   H6S20667   1.229   2.609   7.133  0.7031 -1.2569  1.1493
  181SOPE   C2720668   1.426   2.648   7.229  0.0919 -0.1988  0.1548
  181SOPE   H7R20669   1.474   2.551   7.204  1.5584  0.8644 -1.3195
  181SOPE   H7S20670   1.506   2.723   7.209  1.5344 -1.4244  1.0463
  181SOPE   C2820671   1.398   2.660   7.382 -0.0942 -0.5074 -0.5280
  181SOPE   H8R20672   1.351   2.757   7.408  0.6432 -0.1991 -0.3232
  181SOPE   H8S20673   1.317   2.587   7.406  0.1564 -0.3272  0.9142
  181SOPE   C2920674   1.522   2.624   7.461  0.0409 -1.2747 -0.3466
  181SOPE   H9120675   1.596   2.553   7.421 -0.4259 -1.4175 -0.9840
  181SOPE  C21020676   1.550   2.668   7.583  0.7480 -0.0340  0.0234
  181SOPE  H10120677   1.642   2.638   7.636 -0.1956 -3.0554  0.1552
  181SOPE  C21120678   1.456   2.762   7.661 -0.0330 -0.3203 -0.3787
  181SOPE  H11R20679   1.348   2.736   7.657 -0.1780  0.3767 -1.5986
  181SOPE  H11S20680   1.465   2.863   7.615  1.5611 -0.7208 -1.0233
  181SOPE  C21220681   1.485   2.785   7.809 -0.1460  0.3682 -0.3155
  181SOPE  H12R20682   1.422   2.864   7.854 -0.5652 -0.7123  1.0323
  181SOPE  H12S20683   1.591   2.811   7.831 -0.6707  1.9248  0.5474
  181SOPE  C21320684   1.437   2.663   7.892  0.0356  0.3008  0.0545
  181SOPE  H13R20685   1.485   2.579   7.836  0.7993  2.6065 -3.0403
  181SOPE  H13S20686   1.326   2.659   7.885  0.1124 -0.9199 -0.9773
  181SOPE  C21420687   1.473   2.694   8.035  0.9565  0.6575  0.6204
  181SOPE  H14R20688   1.406   2.770   8.081  0.2021  1.4285 -1.5880
  181SOPE  H14S20689   1.578   2.730   8.032  0.9186  0.8507 -2.8197
  181SOPE  C21520690   1.479   2.562   8.115  0.6961  0.8894 -0.6912
  181SOPE  H15R20691   1.546   2.484   8.073 -0.5909 -0.2602 -0.6896
  181SOPE  H15S20692   1.383   2.511   8.093  1.5920 -0.9152 -0.5821
  181SOPE  C21620693   1.484   2.584   8.266 -0.7916  0.0139  0.2298
  181SOPE  H16R20694   1.423   2.669   8.304 -0.5149  0.3480 -0.0699
  181SOPE  H16S20695   1.589   2.615   8.286 -1.2596  0.1695  2.8575
  181SOPE  C21720696   1.436   2.463   8.355  0.3258 -0.0925  0.5814
  181SOPE  H17R20697   1.431   2.491   8.463 -1.1896 -0.4501  0.6341
  181SOPE  H17S20698   1.506   2.377   8.346  1.6669  0.8284  1.7078
  181SOPE  C21820699   1.293   2.419   8.334 -0.2136 -0.2090 -0.2651
  181SOPE  H18R20700   1.273   2.326   8.391  3.4477 -0.1179  1.4567
  181SOPE  H18S20701   1.275   2.411   8.225 -1.1753  1.2821 -0.2549
  181SOPE  H18T20702   1.229   2.498   8.379 -1.0905 -1.2818  0.4334
  181SOPE   C3320703   2.114   2.944   6.650 -0.4051 -0.1175 -0.2622
  181SOPE   H3X20704   2.060   3.033   6.611 -0.1415  0.4069  0.5550
  181SOPE   H3Y20705   2.203   2.921   6.588  0.6036  1.4807  0.5217
  181SOPE   C3420706   2.174   2.982   6.784  0.2728 -0.1141  0.1212
  181SOPE   H4X20707   2.260   3.051   6.769  0.2328  0.4252  2.1233
  181SOPE   H4Y20708   2.207   2.887   6.830  0.0066  0.0771  0.7161
  181SOPE   C3520709   2.068   3.036   6.882  0.7579 -0.0966 -0.6006
  181SOPE   H5X20710   1.993   2.955   6.897  0.1157  0.3438 -1.3484
  181SOPE   H5Y20711   2.010   3.122   6.841 -0.2574 -1.1433 -1.4546
  181SOPE   C3620712   2.139   3.079   7.005 -0.0301 -0.6297 -0.0397
  181SOPE   H6X20713   2.205   3.164   6.976 -1.3488  0.7897  0.9707
  181SOPE   H6Y20714   2.196   2.992   7.043 -0.3675 -1.6070 -1.6740
  181SOPE   C3720715   2.051   3.124   7.124  0.3686 -0.8655 -0.1749
  181SOPE   H7X20716   1.972   3.051   7.150 -3.5783  2.7677 -0.7798
  181SOPE   H7Y20717   1.989   3.210   7.091 -1.9492 -1.6697  1.8039
  181SOPE   C3820718   2.126   3.173   7.252 -0.0860 -0.9697 -0.2648
  181SOPE   H8X20719   2.209   3.241   7.224 -2.9220  1.8012 -2.6760
  181SOPE   H8Y20720   2.180   3.084   7.290  0.7256 -0.4004 -0.0812
  181SOPE   C3920721   2.029   3.240   7.341 -0.1701 -0.0179  0.2469
  181SOPE   H9X20722   1.948   3.165   7.359 -0.1915 -0.6130 -2.0613
  181SOPE   H9Y20723   1.984   3.334   7.303  0.5194  0.6253  0.9858
  181SOPE  C31020724   2.079   3.275   7.483  0.0026  0.1824 -0.5969
  181SOPE  H10X20725   2.175   3.330   7.471 -0.0142  0.7929  1.5604
  181SOPE  H10Y20726   2.109   3.188   7.546  1.2837  2.5892  2.3977
  181SOPE  C31120727   1.987   3.348   7.577 -0.1528 -0.0326  0.1641
  181SOPE  H11X20728   1.883   3.310   7.587  0.4541 -1.8093  0.0109
  181SOPE  H11Y20729   1.973   3.450   7.534  0.2738 -0.5425 -1.2092
  181SOPE  C31220730   2.039   3.357   7.721 -0.0403 -0.3579 -0.6096
  181SOPE  H12X20731   2.141   3.400   7.720  0.1426 -0.6353  1.5906
  181SOPE  H12Y20732   2.039   3.255   7.764 -2.0242 -1.0761 -2.1361
  181SOPE  C31320733   1.952   3.431   7.820 -0.3190  0.5781  0.0165
  181SOPE  H13X20734   1.845   3.404   7.802 -0.2121 -0.8342  1.2750
  181SOPE  H13Y20735   1.971   3.539   7.804  1.6530 -0.0244 -2.3873
  181SOPE  C31420736   1.988   3.403   7.970 -0.8466  0.0672  0.4684
  181SOPE  H14X20737   2.094   3.430   7.989 -1.3546  0.9400  2.2416
  181SOPE  H14Y20738   1.978   3.297   8.001  0.3409 -1.2678 -3.1804
  181SOPE  C31520739   1.895   3.482   8.063  0.2784 -0.1813 -0.6780
  181SOPE  H15X20740   1.794   3.478   8.016 -0.2275  0.1242  0.3559
  181SOPE  H15Y20741   1.914   3.592   8.060 -0.9638  0.1493  1.5766
  181SOPE  C31620742   1.873   3.430   8.205  0.2550  1.1848  0.3430
  181SOPE  H16X20743   1.970   3.398   8.248 -0.2163 -1.4520 -0.4068
  181SOPE  H16Y20744   1.814   3.336   8.198 -0.1452  1.2669  2.1660
  181SOPE  C31720745   1.782   3.524   8.281  0.2035 -0.1121  0.5697
  181SOPE  H17X20746   1.686   3.529   8.225  0.8562 -1.9656 -0.8423
  181SOPE  H17Y20747   1.821   3.627   8.294 -2.7960  1.0524  1.2211
  181SOPE  C31820748   1.763   3.473   8.422 -0.1777  0.5642 -0.0966
  181SOPE  H18X20749   1.704   3.547   8.481 -0.1001  0.3847  0.2076
  181SOPE  H18Y20750   1.853   3.452   8.484  0.2849  0.3970 -0.8199
  181SOPE  H18Z20751   1.702   3.384   8.398 -0.8094  0.9783 -0.0694
  182SOPE     N20752   2.619   4.483   6.210  0.3222  0.1249  0.1108
  182SOPE   HN120753   2.608   4.412   6.134  1.0587  0.0618  0.0626
  182SOPE   HN220754   2.617   4.439   6.304 -0.0956  1.9771  1.0190
  182SOPE   HN320755   2.541   4.551   6.221  1.2551  0.9537  2.0596
  182SOPE   C1220756   2.745   4.561   6.160  0.2134  0.2254 -0.2624
  182SOPE  H12A20757   2.771   4.638   6.235  0.9386 -0.2430 -0.0295
  182SOPE  H12B20758   2.720   4.604   6.060  1.6012  1.4415 -0.1108
  182SOPE   C1120759   2.860   4.450   6.152  0.3996  0.7935  0.8419
  182SOPE  H11A20760   2.954   4.498   6.115 -0.3707  0.5556 -1.6166
  182SOPE  H11B20761   2.827   4.366   6.087  0.9709  0.5864  0.8105
  182SOPE     P20762   2.962   4.269   6.297  0.2499 -0.1477 -0.1385
  182SOPE   O1320763   3.088   4.292   6.224  0.1758  0.0216 -0.2050
  182SOPE   O1420764   2.886   4.146   6.270  0.3510 -0.6912 -0.2306
  182SOPE   O1220765   2.871   4.397   6.283  0.3318 -0.0853 -0.0867
  182SOPE   O1120766   3.001   4.273   6.447 -0.4453  0.3033  0.5758
  182SOPE    C120767   2.941   4.349   6.545 -0.3949  0.3093  0.0531
  182SOPE    HA20768   2.833   4.323   6.547  0.0776 -1.7564  1.4231
  182SOPE    HB20769   2.949   4.458   6.522 -3.3961  0.3239 -1.3491
  182SOPE    C220770   2.994   4.312   6.690  0.0276  0.1452 -0.4230
  182SOPE    HS20771   3.101   4.339   6.688 -0.1740  1.0323  0.0249
  182SOPE   O2120772   2.967   4.174   6.723  0.1510  0.6188  0.3423
  182SOPE   C2120773   3.050   4.119   6.811  0.2568  0.7752  0.0849
  182SOPE   O2220774   3.149   4.178   6.853  0.4710 -0.1748 -0.2914
  182SOPE   C2220775   3.011   3.973   6.841 -0.2721  0.1343 -0.0804
  182SOPE   H2R20776   2.998   3.923   6.743  0.9089  1.1831 -0.8077
  182SOPE   H2S20777   2.910   3.980   6.887 -0.8226  2.3496 -1.4417
  182SOPE    C320778   2.918   4.404   6.788  0.2823  0.0992  0.2837
  182SOPE    HX20779   2.815   4.364   6.780  0.5162 -0.5273  0.2974
  182SOPE    HY20780   2.917   4.505   6.741 -0.7648 -0.9050 -2.0435
  182SOPE   O3120781   2.953   4.410   6.922 -0.2966 -0.8565 -0.7643
  182SOPE   C3120782   3.067   4.466   6.960 -0.1437 -1.0210 -0.6622
  182SOPE   O3220783   3.143   4.529   6.887  0.2449 -0.0497 -0.1945
  182SOPE   C3220784   3.087   4.429   7.103  0.6750 -0.0476  0.4018
  182SOPE   H2X20785   3.086   4.318   7.110  2.7766 -0.0163  2.7186
  182SOPE   H2Y20786   3.005   4.474   7.163 -0.7673 -2.8647  0.7070
  182SOPE   C2320787   3.112   3.903   6.936  0.1151 -0.0306 -0.5974
  182SOPE   H3R20788   3.218   3.905   6.903  0.6186 -0.0443  0.9665
  182SOPE   H3S20789   3.081   3.796   6.941 -0.4227  0.1576  0.2752
  182SOPE   C2420790   3.099   3.953   7.084  0.0198 -0.5333  0.0016
  182SOPE   H4R20791   3.151   4.049   7.102  4.0958 -2.7602  1.6704
  182SOPE   H4S20792   2.994   3.953   7.119 -0.1761 -1.0059 -0.5826
  182SOPE   C2520793   3.161   3.849   7.182 -0.5626  0.0937  0.2593
  182SOPE   H5R20794   3.131   3.750   7.142 -0.4226  0.2571 -0.2556
  182SOPE   H5S20795   3.271   3.861   7.168 -0.5110  1.4387  1.5536
  182SOPE   C2620796   3.115   3.878   7.328  0.1827  0.1374  0.5717
  182SOPE   H6R20797   3.129   3.986   7.352 -1.1427  0.3379  0.5361
  182SOPE   H6S20798   3.004   3.870   7.327  0.1561  0.4347 -0.9647
  182SOPE   C2720799   3.187   3.791   7.421  0.6192  0.6532 -0.6449
  182SOPE   H7R20800   3.164   3.683   7.407 -0.0121  0.7261 -0.1989
  182SOPE   H7S20801   3.297   3.804   7.413  0.5109  2.4183  0.3400
  182SOPE   C2820802   3.153   3.842   7.565  0.5545 -0.3436  0.5099
  182SOPE   H8R20803   3.181   3.947   7.587 -1.0788  0.0644  0.7740
  182SOPE   H8S20804   3.043   3.848   7.576  0.4637  1.9850 -1.0823
  182SOPE   C2920805   3.209   3.763   7.677 -0.9838  0.9344 -0.3369
  182SOPE   H9120806   3.266   3.674   7.646 -0.6782 -0.1434  2.8704
  182SOPE  C21020807   3.199   3.789   7.808  0.1397  0.2220  0.2872
  182SOPE  H10120808   3.250   3.730   7.886  2.0643  1.9782  0.4258
  182SOPE  C21120809   3.119   3.899   7.864 -0.7227 -0.2532  0.2575
  182SOPE  H11R20810   3.062   3.958   7.789  0.6743  1.9118  0.8176
  182SOPE  H11S20811   3.183   3.974   7.914  0.5051 -0.0346 -1.5526
  182SOPE  C21220812   3.016   3.853   7.968  0.1139  0.4984  0.8737
  182SOPE  H12R20813   2.921   3.825   7.916  0.3836 -0.2601  0.7684
  182SOPE  H12S20814   2.990   3.943   8.026  0.6175  1.6429 -0.6140
  182SOPE  C21320815   3.058   3.746   8.064 -0.0171  0.4453  0.0833
  182SOPE  H13R20816   3.138   3.785   8.132 -0.2653 -0.4958  0.9255
  182SOPE  H13S20817   3.097   3.661   8.004  0.3204 -0.0716  1.0184
  182SOPE  C21420818   2.953   3.678   8.152 -0.0821 -0.6669  0.2167
  182SOPE  H14R20819   3.003   3.596   8.206  0.4052  1.1449  2.6776
  182SOPE  H14S20820   2.861   3.640   8.102 -1.5041  0.0035  2.2254
  182SOPE  C21520821   2.898   3.777   8.265  0.4921  1.2960  0.6327
  182SOPE  H15R20822   2.825   3.841   8.211  0.1485 -0.4748 -1.1024
  182SOPE  H15S20823   2.982   3.847   8.286  1.3954  0.0035  1.5358
  182SOPE  C21620824   2.840   3.698   8.376  0.5243 -1.0473  0.2256
  182SOPE  H16R20825   2.917   3.663   8.449 -0.0939  3.0760  3.2105
  182SOPE  H16S20826   2.779   3.611   8.342  0.1963 -0.8108  0.2118
  182SOPE  C21720827   2.737   3.783   8.452  0.3875  0.1140  0.0640
  182SOPE  H17R20828   2.719   3.722   8.543  1.6874 -0.7465 -0.2073
  182SOPE  H17S20829   2.638   3.791   8.404  0.7454  1.1716 -0.5304
  182SOPE  C21820830   2.778   3.922   8.502 -0.0264  0.0836 -0.1485
  182SOPE  H18R20831   2.851   3.914   8.586 -0.2284 -0.9459 -0.0534
  182SOPE  H18S20832   2.682   3.969   8.533 -1.9009 -1.5083 -3.0440
  182SOPE  H18T20833   2.826   3.977   8.418  0.5725 -0.5630 -0.2414
  182SOPE   C3320834   3.222   4.484   7.154  0.0631  0.5446  0.6846
  182SOPE   H3X20835   3.222   4.595   7.147  0.4993  0.6527  2.1095
  182SOPE   H3Y20836   3.308   4.439   7.099 -0.7745 -0.1032 -0.1250
  182SOPE   C3420837   3.252   4.459   7.296  0.1546  0.4629 -0.7829
  182SOPE   H4X20838   3.172   4.504   7.358  0.9366  0.3782  0.3234
  182SOPE   H4Y20839   3.343   4.513   7.332 -0.2571  2.0476 -2.0454
  182SOPE   C3520840   3.277   4.313   7.338 -0.5818  0.0628  0.5055
  182SOPE   H5X20841   3.376   4.280   7.298 -1.7928 -3.1121 -0.2028
  182SOPE   H5Y20842   3.207   4.244   7.287  0.7371 -0.1082 -1.1470
  182SOPE   C3620843   3.261   4.287   7.497  0.2895 -0.0743  0.4549
  182SOPE   H6X20844   3.313   4.189   7.497  1.0469  0.1171 -4.0803
  182SOPE   H6Y20845   3.158   4.262   7.531 -0.3444  1.8478  0.1109
  182SOPE   C3720846   3.330   4.393   7.590 -0.1332  0.7214  0.2683
  182SOPE   H7X20847   3.272   4.488   7.588 -1.8294 -0.2146  2.1479
  182SOPE   H7Y20848   3.437   4.409   7.564  0.5271 -0.7853  1.9191
  182SOPE   C3820849   3.322   4.361   7.742 -0.0667  0.3617 -0.1466
  182SOPE   H8X20850   3.392   4.428   7.797 -1.9518  3.0439 -0.8214
  182SOPE   H8Y20851   3.355   4.256   7.754 -0.1004  0.6247  3.3210
  182SOPE   C3920852   3.184   4.377   7.803  0.2521 -0.1166 -0.7394
  182SOPE   H9X20853   3.124   4.300   7.750  0.2951 -4.0950  4.3078
  182SOPE   H9Y20854   3.139   4.477   7.786  3.6012  1.4676 -1.0289
  182SOPE  C31020855   3.172   4.350   7.957  0.2612  0.0500  0.8230
  182SOPE  H10X20856   3.215   4.253   7.990  1.1326  0.0924 -0.1226
  182SOPE  H10Y20857   3.063   4.353   7.975  0.2657  3.5079  0.9282
  182SOPE  C31120858   3.249   4.444   8.051 -0.8884 -0.3048  0.4272
  182SOPE  H11X20859   3.227   4.552   8.042 -0.6969 -0.2172  0.9668
  182SOPE  H11Y20860   3.358   4.428   8.036 -0.9726  1.0758 -2.2451
  182SOPE  C31220861   3.230   4.404   8.205 -0.4029  0.3884  0.0533
  182SOPE  H12X20862   3.274   4.303   8.216 -2.9992 -0.8990 -0.5966
  182SOPE  H12Y20863   3.121   4.387   8.212 -0.1186 -1.3004  0.8561
  182SOPE  C31320864   3.307   4.510   8.292 -0.3594  0.1107 -0.0240
  182SOPE  H13X20865   3.267   4.613   8.280 -2.9057 -0.1036  4.3628
  182SOPE  H13Y20866   3.411   4.513   8.255  0.6997  0.7283  2.7488
  182SOPE  C31420867   3.306   4.479   8.445  0.1142 -0.3621  0.3203
  182SOPE  H14X20868   3.358   4.382   8.457  0.5832 -0.3619 -1.4329
  182SOPE  H14Y20869   3.201   4.449   8.462 -0.0171 -0.5746 -0.7731
  182SOPE  C31520870   3.348   4.585   8.544 -0.0727 -0.3710 -0.2784
  182SOPE  H15X20871   3.363   4.557   8.651 -1.7180 -1.1487 -0.2140
  182SOPE  H15Y20872   3.260   4.654   8.541 -1.2178 -1.7913 -0.4870
  182SOPE  C31620873   3.463   4.672   8.498 -0.6523 -0.2420  0.2019
  182SOPE  H16X20874   3.440   4.743   8.415  1.0899  1.8808  1.3977
  182SOPE  H16Y20875   3.550   4.611   8.467 -0.7379 -0.6669  0.7958
  182SOPE  C31720876   3.503   4.777   8.608 -0.0403 -0.8899  0.2163
  182SOPE  H17X20877   3.562   4.727   8.688 -1.3390  0.0134  1.8092
  182SOPE  H17Y20878   3.406   4.824   8.635  0.2193  0.1137 -0.5567
  182SOPE  C31820879   3.596   4.886   8.553  0.8886  0.2033  0.0362
  182SOPE  H18X20880   3.570   4.913   8.448 -1.8011 -3.5723 -0.5007
  182SOPE  H18Y20881   3.701   4.848   8.550  0.7717 -0.1579  0.4645
  182SOPE  H18Z20882   3.589   4.977   8.616 -0.3786 -0.9550  1.6521
  183SOPE     N20883   5.411   1.266   6.436  0.1662  0.1029 -0.1478
  183SOPE   HN120884   5.325   1.227   6.479  1.7050 -1.7617  1.4939
  183SOPE   HN220885   5.481   1.193   6.462 -0.7942 -0.5154  0.7767
  183SOPE   HN320886   5.439   1.354   6.482  0.4557 -0.9871  1.8729
  183SOPE   C1220887   5.383   1.280   6.296  0.6880  0.3622  0.4765
  183SOPE  H12A20888   5.317   1.194   6.276 -0.0250  1.2167 -1.0056
  183SOPE  H12B20889   5.476   1.265   6.237  1.4649 -0.6057  1.8672
  183SOPE   C1120890   5.305   1.407   6.269  0.4930  0.6596  0.5592
  183SOPE  H11A20891   5.272   1.408   6.163  1.1585 -2.5163  0.2279
  183SOPE  H11B20892   5.369   1.497   6.275  1.2044  0.3233 -1.3281
  183SOPE     P20893   5.088   1.538   6.354 -0.6130  0.1316  0.2244
  183SOPE   O1320894   4.961   1.471   6.343 -0.1577  0.3416  0.3656
  183SOPE   O1420895   5.116   1.643   6.261 -0.0411  0.5345  0.1984
  183SOPE   O1220896   5.190   1.421   6.357  0.2176 -0.0207  0.3046
  183SOPE   O1120897   5.103   1.587   6.505  0.7026  0.9394 -0.3205
  183SOPE    C120898   5.143   1.509   6.618  0.1229  0.5961  0.4389
  183SOPE    HA20899   5.174   1.572   6.705  0.1710 -1.3590  1.9064
  183SOPE    HB20900   5.227   1.441   6.592  0.8838  1.0709  1.5597
  183SOPE    C220901   5.020   1.430   6.669 -0.0255 -0.0395 -0.1116
  183SOPE    HS20902   4.983   1.369   6.584 -1.7352  0.1298  0.4749
  183SOPE   O2120903   4.919   1.524   6.713 -0.2983 -0.1817  0.2119
  183SOPE   C2120904   4.801   1.482   6.735 -0.1768 -0.1883 -0.0314
  183SOPE   O2220905   4.761   1.370   6.722 -0.5701 -0.1710 -0.2475
  183SOPE   C2220906   4.727   1.599   6.786 -0.4367  0.1734 -0.3047
  183SOPE   H2R20907   4.671   1.643   6.701 -0.9820  0.8445  0.3892
  183SOPE   H2S20908   4.793   1.678   6.828 -0.0006 -1.1620  1.6793
  183SOPE    C320909   5.064   1.339   6.780  0.9106  0.2114  0.3674
  183SOPE    HX20910   5.135   1.266   6.733 -0.9021 -0.6142 -1.2404
  183SOPE    HY20911   4.973   1.280   6.802  0.3264 -0.5158 -3.3080
  183SOPE   O3120912   5.131   1.400   6.888 -0.1458  0.4577 -0.2837
  183SOPE   C3120913   5.064   1.397   7.005 -0.4860  0.1243  0.5533
  183SOPE   O3220914   4.960   1.333   7.022 -0.1150 -0.2205  0.2609
  183SOPE   C3220915   5.141   1.471   7.111  0.8742 -0.3319 -0.3825
  183SOPE   H2X20916   5.164   1.568   7.062  0.0870 -0.2051 -0.5165
  183SOPE   H2Y20917   5.236   1.416   7.124  0.2437 -2.1162 -2.6784
  183SOPE   C2320918   4.619   1.560   6.892  0.3112  0.1763  0.5040
  183SOPE   H3R20919   4.565   1.467   6.864 -1.1532  0.8489  0.9975
  183SOPE   H3S20920   4.547   1.645   6.891 -1.3537 -1.1419 -1.4371
  183SOPE   C2420921   4.699   1.553   7.026 -0.2115  0.6356 -0.0162
  183SOPE   H4R20922   4.777   1.474   7.022 -1.3835 -0.6725  1.5795
  183SOPE   H4S20923   4.739   1.654   7.050  2.8624  0.2090 -2.6070
  183SOPE   C2520924   4.614   1.508   7.143 -0.0136  0.1003  0.3947
  183SOPE   H5R20925   4.533   1.584   7.142  0.6107  0.7688 -0.4123
  183SOPE   H5S20926   4.578   1.406   7.120 -0.1062 -0.0069  1.0021
  183SOPE   C2620927   4.694   1.507   7.271 -0.2435 -0.7701  0.3200
  183SOPE   H6R20928   4.737   1.405   7.277  1.4035 -0.1831 -0.9353
  183SOPE   H6S20929   4.777   1.580   7.287 -0.9711  1.2208 -3.7150
  183SOPE   C2720930   4.603   1.534   7.393  0.1202  0.0105 -0.1610
  183SOPE   H7R20931   4.566   1.638   7.388  1.3056  0.4113 -3.3915
  183SOPE   H7S20932   4.522   1.459   7.382  1.6725 -1.6531 -0.8607
  183SOPE   C2820933   4.687   1.522   7.524  0.9442  0.1804 -0.2031
  183SOPE   H8R20934   4.766   1.446   7.508 -1.5553 -2.5581 -0.3909
  183SOPE   H8S20935   4.742   1.618   7.539  1.4654 -0.2632  0.7866
  183SOPE   C2920936   4.588   1.502   7.637 -0.6230  1.1744 -1.2819
  183SOPE   H9120937   4.515   1.421   7.625  0.7679  0.2053 -4.2136
  183SOPE  C21020938   4.611   1.558   7.756  0.2831 -0.2418  0.1435
  183SOPE  H10120939   4.536   1.546   7.835  1.2515  1.2615  1.3579
  183SOPE  C21120940   4.718   1.652   7.804  0.4116  0.2562 -0.4007
  183SOPE  H11R20941   4.686   1.757   7.821  0.5549 -0.0114  1.7518
  183SOPE  H11S20942   4.803   1.657   7.732 -0.9793  1.8278 -2.0430
  183SOPE  C21220943   4.768   1.594   7.939  0.0947 -0.1466 -0.2608
  183SOPE  H12R20944   4.870   1.635   7.955 -0.1057  0.5384 -0.7025
  183SOPE  H12S20945   4.783   1.484   7.935  1.7803  0.0909 -1.4002
  183SOPE  C21320946   4.676   1.647   8.051  0.6905  0.5530  0.4497
  183SOPE  H13R20947   4.574   1.614   8.023  0.1786  1.3659  1.3055
  183SOPE  H13S20948   4.675   1.757   8.062  1.8736  0.4595  1.8549
  183SOPE  C21420949   4.710   1.585   8.196  0.2598 -0.1369 -0.0931
  183SOPE  H14R20950   4.704   1.475   8.180 -0.7726 -0.1836  0.4775
  183SOPE  H14S20951   4.635   1.628   8.266 -0.1823 -0.1362 -0.5557
  183SOPE  C21520952   4.852   1.616   8.238 -0.1650 -0.2518  0.3531
  183SOPE  H15R20953   4.862   1.727   8.236  0.8452 -0.3450 -0.8366
  183SOPE  H15S20954   4.919   1.566   8.165 -0.4216  0.3342 -0.3007
  183SOPE  C21620955   4.876   1.558   8.383 -0.3425 -0.5709  0.2485
  183SOPE  H16R20956   4.851   1.450   8.389  1.0953 -0.8909  0.9730
  183SOPE  H16S20957   4.791   1.595   8.444 -0.6752 -0.0033 -0.5393
  183SOPE  C21720958   5.008   1.593   8.449  0.5015 -0.0048 -0.2326
  183SOPE  H17R20959   5.010   1.530   8.541  0.5053  0.6964  0.2532
  183SOPE  H17S20960   5.006   1.698   8.484  0.6936  0.7101 -2.2274
  183SOPE  C21820961   5.132   1.582   8.363  0.5009  0.4547 -0.8609
  183SOPE  H18R20962   5.120   1.659   8.284  1.9246  1.2352 -0.3459
  183SOPE  H18S20963   5.140   1.484   8.311 -0.0647  0.4529 -0.9533
  183SOPE  H18T20964   5.224   1.599   8.422  0.5247  0.5398 -0.9227
  183SOPE   C3320965   5.062   1.502   7.233 -0.7440 -0.0328  0.2076
  183SOPE   H3X20966   5.036   1.413   7.295  0.9654 -0.8805 -0.2419
  183SOPE   H3Y20967   4.961   1.541   7.207 -0.9919 -1.1203 -0.5111
  183SOPE   C3420968   5.131   1.596   7.327  0.1992 -0.1745 -0.2998
  183SOPE   H4X20969   5.165   1.691   7.280  0.3756  1.3176  2.6011
  183SOPE   H4Y20970   5.217   1.541   7.371  0.9523  2.6024  2.0331
  183SOPE   C3520971   5.047   1.649   7.444  0.7298  0.6887 -0.9718
  183SOPE   H5X20972   5.039   1.563   7.513 -0.5929 -1.4054 -3.5267
  183SOPE   H5Y20973   4.942   1.671   7.414  0.8829  1.9125 -0.6637
  183SOPE   C3620974   5.116   1.757   7.523 -0.1612 -0.4344  0.0190
  183SOPE   H6X20975   5.117   1.849   7.461  1.5344 -1.0595 -0.9366
  183SOPE   H6Y20976   5.217   1.737   7.566 -0.4565  1.1039  1.5624
  183SOPE   C3720977   5.032   1.793   7.649 -0.7011  0.6967  0.8537
  183SOPE   H7X20978   5.009   1.704   7.712 -0.0921 -0.0365  0.0543
  183SOPE   H7Y20979   4.932   1.834   7.620 -0.0642  1.5024 -0.2867
  183SOPE   C3820980   5.096   1.898   7.750  0.5819 -0.4435  0.2062
  183SOPE   H8X20981   5.086   1.999   7.705 -1.8871 -1.1882 -1.0698
  183SOPE   H8Y20982   5.206   1.879   7.756  0.4374 -1.1700  0.6861
  183SOPE   C3920983   5.026   1.882   7.882  0.0811 -0.5961  0.1201
  183SOPE   H9X20984   5.057   1.780   7.914  2.3835  0.0242  0.0862
  183SOPE   H9Y20985   4.919   1.906   7.865  0.6922  0.9707 -1.8872
  183SOPE  C31020986   5.090   1.971   7.995 -0.3169  0.5870  0.3515
  183SOPE  H10X20987   5.086   2.080   7.970  1.8767  0.5131 -0.5635
  183SOPE  H10Y20988   5.199   1.952   7.997 -0.1690  1.2099 -0.8799
  183SOPE  C31120989   5.023   1.946   8.126  0.2042 -0.1811  0.6157
  183SOPE  H11X20990   5.029   1.836   8.138  1.7709 -0.5610 -2.6663
  183SOPE  H11Y20991   4.917   1.974   8.105  0.4214  0.1485 -0.0762
  183SOPE  C31220992   5.085   2.005   8.244  0.2284  0.1033  0.3220
  183SOPE  H12X20993   5.110   2.112   8.229 -0.1046  0.2118  0.5458
  183SOPE  H12Y20994   5.179   1.947   8.258 -0.1012 -0.7237 -0.7403
  183SOPE  C31320995   5.000   1.993   8.372 -0.7461 -0.3090 -0.0678
  183SOPE  H13X20996   5.058   2.020   8.463  1.3906  0.7674 -1.6487
  183SOPE  H13Y20997   4.967   1.888   8.361 -1.1767 -0.1395 -0.3876
  183SOPE  C31420998   4.876   2.086   8.365 -0.2212 -0.0510 -0.0769
  183SOPE  H14X20999   4.835   2.088   8.261  2.2059 -0.1752 -1.1170
  183SOPE  H14Y21000   4.924   2.182   8.393  1.0301  0.0121 -2.1384
  183SOPE  C31521001   4.769   2.045   8.470 -0.2992  0.1746 -0.0702
  183SOPE  H15X21002   4.828   2.039   8.564 -1.0644  0.6419  0.4539
  183SOPE  H15Y21003   4.719   1.950   8.440 -2.0305  0.9241  0.3053
  183SOPE  C31621004   4.661   2.158   8.477 -0.3737 -0.3111 -0.1921
  183SOPE  H16X21005   4.649   2.183   8.370 -0.8858  0.9506  0.1399
  183SOPE  H16Y21006   4.694   2.254   8.522  2.7626 -1.6940  0.7271
  183SOPE  C31721007   4.536   2.112   8.545  1.0819  0.4105 -0.5177
  183SOPE  H17X21008   4.554   2.097   8.654  0.4222 -3.6391 -0.7876
  183SOPE  H17Y21009   4.499   2.009   8.523  0.4182  0.8701 -1.5943
  183SOPE  C31821010   4.426   2.211   8.522  0.3598 -0.0089 -0.2218
  183SOPE  H18X21011   4.452   2.316   8.547  0.6419  0.0718 -0.8294
  183SOPE  H18Y21012   4.327   2.185   8.567  0.2322  0.4829 -0.2110
  183SOPE  H18Z21013   4.419   2.217   8.411  2.9143  0.5507 -0.4211
  184SOPE     N21014   4.076   3.667   6.298  0.1254 -0.1492 -0.1019
  184SOPE   HN121015   4.133   3.629   6.377  0.2745  0.9456  0.3426
  184SOPE   HN221016   4.079   3.771   6.306  2.4399 -0.1313 -0.3857
  184SOPE   HN321017   3.976   3.650   6.318 -0.1944  2.5703  1.0076
  184SOPE   C1221018   4.105   3.615   6.160 -1.0468 -0.5629  0.8227
  184SOPE  H12A21019   4.199   3.665   6.126 -2.3030  1.5212  0.2176
  184SOPE  H12B21020   4.013   3.643   6.105 -0.6081 -0.3432  0.1839
  184SOPE   C1121021   4.129   3.465   6.173  0.2310  0.0187  0.3253
  184SOPE  H11A21022   4.218   3.447   6.237  0.7617 -1.0897 -0.7001
  184SOPE  H11B21023   4.153   3.426   6.072  0.6557 -1.6578  1.0337
  184SOPE     P21024   4.011   3.257   6.265  0.6832 -0.4524  0.0382
  184SOPE   O1321025   4.143   3.202   6.247  0.7820  0.1426 -0.2839
  184SOPE   O1421026   3.901   3.185   6.194  0.3458 -0.0876 -0.4319
  184SOPE   O1221027   4.006   3.409   6.216 -0.3220  0.0192  0.1007
  184SOPE   O1121028   3.971   3.258   6.414  0.2098 -0.7694 -0.0495
  184SOPE    C121029   3.924   3.376   6.481  0.6482  0.0533 -0.1227
  184SOPE    HA21030   3.833   3.404   6.424  0.9957  0.3573 -0.5289
  184SOPE    HB21031   3.983   3.470   6.472 -0.6197  1.0148  1.0537
  184SOPE    C221032   3.898   3.339   6.632 -0.2556  0.3583 -0.0122
  184SOPE    HS21033   3.832   3.418   6.674 -1.1540 -1.4108  2.0758
  184SOPE   O2121034   4.022   3.320   6.709 -0.0083  0.4561 -0.6037
  184SOPE   C2121035   4.061   3.441   6.764  0.0629 -0.8067 -0.3532
  184SOPE   O2221036   4.002   3.545   6.750  0.2167  0.6735  0.3667
  184SOPE   C2221037   4.170   3.416   6.867  0.0058  0.8710  0.7027
  184SOPE   H2R21038   4.187   3.503   6.934  0.1883 -0.4864  2.5072
  184SOPE   H2S21039   4.262   3.393   6.810 -0.8302  1.9767 -1.1927
  184SOPE    C321040   3.812   3.210   6.642 -0.3791  0.0030  0.0273
  184SOPE    HX21041   3.872   3.118   6.627  0.5379  0.4720  0.6731
  184SOPE    HY21042   3.732   3.212   6.565 -2.8390 -1.7317  2.3147
  184SOPE   O3121043   3.749   3.197   6.773 -0.2929 -0.0602 -0.1894
  184SOPE   C3121044   3.633   3.136   6.777  0.6878  0.2272  0.8941
  184SOPE   O3221045   3.579   3.088   6.678  0.0968  0.6328  0.0326
  184SOPE   C3221046   3.563   3.149   6.921 -0.2705 -0.0722  0.0154
  184SOPE   H2X21047   3.508   3.246   6.926  1.7641  1.1367  0.3342
  184SOPE   H2Y21048   3.653   3.179   6.980 -0.7061 -0.1466  0.7251
  184SOPE   C2321049   4.129   3.298   6.959  0.2420  0.4007 -0.0078
  184SOPE   H3R21050   4.224   3.273   7.010  0.5548  1.6847  0.0682
  184SOPE   H3S21051   4.121   3.205   6.898  0.4593  0.2552  0.1874
  184SOPE   C2421052   4.009   3.315   7.052  0.3595  0.2399 -0.5323
  184SOPE   H4R21053   4.030   3.388   7.133  1.7796 -1.1900  0.4496
  184SOPE   H4S21054   3.932   3.361   6.986  0.0637 -0.0354 -0.3790
  184SOPE   C2521055   3.964   3.181   7.120  0.1194 -0.2002  0.4511
  184SOPE   H5R21056   3.903   3.136   7.039  0.1470  0.3112  0.1383
  184SOPE   H5S21057   4.049   3.114   7.145  2.0671  2.1282  0.4024
  184SOPE   C2621058   3.881   3.216   7.242  0.7860  0.3857 -0.3526
  184SOPE   H6R21059   3.945   3.264   7.319  0.2494  0.9457 -0.2402
  184SOPE   H6S21060   3.789   3.277   7.227  0.5524 -0.0258 -0.5937
  184SOPE   C2721061   3.828   3.080   7.316  0.2289  0.1806  0.3727
  184SOPE   H7R21062   3.737   3.124   7.363 -0.2242 -0.0321 -0.2844
  184SOPE   H7S21063   3.785   3.005   7.247 -0.8321  0.0405  1.1617
  184SOPE   C2821064   3.931   3.013   7.406 -0.4066 -0.6091  0.1890
  184SOPE   H8R21065   4.004   2.959   7.342  0.9585  0.7887  0.5103
  184SOPE   H8S21066   3.997   3.087   7.457 -0.0013 -1.0766  0.3575
  184SOPE   C2921067   3.852   2.932   7.504 -0.0389 -0.4311  0.0060
  184SOPE   H9121068   3.851   2.823   7.492  1.8816 -0.5597  0.6462
  184SOPE  C21021069   3.815   2.971   7.626  0.1064 -0.1836 -0.9824
  184SOPE  H10121070   3.766   2.898   7.693  0.5105 -2.6532 -3.1881
  184SOPE  C21121071   3.831   3.108   7.679 -0.1523 -0.9302 -0.4769
  184SOPE  H11R21072   3.729   3.150   7.693  0.2719  0.0214 -0.1631
  184SOPE  H11S21073   3.885   3.177   7.610 -0.8562  1.5622  1.3064
  184SOPE  C21221074   3.891   3.119   7.827  0.0717 -0.2171  0.5816
  184SOPE  H12R21075   3.934   3.222   7.824 -0.9361  0.2215  0.8449
  184SOPE  H12S21076   3.978   3.052   7.845 -0.5740 -0.8831  1.2818
  184SOPE  C21321077   3.793   3.096   7.939  0.6161  0.3492 -0.5785
  184SOPE  H13R21078   3.785   2.985   7.943  0.0017  0.4062 -0.2537
  184SOPE  H13S21079   3.694   3.136   7.910 -0.5251 -0.9076  1.3501
  184SOPE  C21421080   3.848   3.131   8.076  0.1271  0.5005  0.2863
  184SOPE  H14R21081   3.842   3.239   8.103 -4.5330  0.3616  0.7857
  184SOPE  H14S21082   3.954   3.101   8.072  0.5939  2.0639  0.2552
  184SOPE  C21521083   3.790   3.061   8.191  0.0425  0.3766 -0.9931
  184SOPE  H15R21084   3.733   2.968   8.166 -1.3826  0.8304  0.4723
  184SOPE  H15S21085   3.720   3.134   8.236  1.0233  0.1375  1.0549
  184SOPE  C21621086   3.896   3.023   8.301  1.0523 -0.1770  0.3918
  184SOPE  H16R21087   3.992   2.993   8.254  1.0358  0.0673  0.2018
  184SOPE  H16S21088   3.850   2.947   8.367 -0.0231  0.1269  0.0018
  184SOPE  C21721089   3.947   3.127   8.402 -0.2638  0.1850 -0.4493
  184SOPE  H17R21090   4.003   3.208   8.352 -1.6854  0.9804 -0.8101
  184SOPE  H17S21091   4.011   3.072   8.473  1.6583  1.2502 -1.2824
  184SOPE  C21821092   3.839   3.193   8.488 -0.2582  0.1390  0.3193
  184SOPE  H18R21093   3.787   3.110   8.542  0.8153  0.1257  1.3707
  184SOPE  H18S21094   3.766   3.237   8.417  0.2689  3.1249  1.5025
  184SOPE  H18T21095   3.870   3.268   8.564 -1.1124 -0.2957  1.1207
  184SOPE   C3321096   3.484   3.029   6.968 -0.2287  0.5614 -0.0846
  184SOPE   H3X21097   3.526   2.941   6.916  3.2491  1.9748  0.0312
  184SOPE   H3Y21098   3.382   3.047   6.930  0.0784  1.2879 -0.6063
  184SOPE   C3421099   3.486   3.014   7.122  0.3872  1.0967  0.9137
  184SOPE   H4X21100   3.476   3.117   7.164 -0.5577  1.0858  0.7490
  184SOPE   H4Y21101   3.581   2.980   7.167  0.5328 -0.8580 -0.7440
  184SOPE   C3521102   3.368   2.926   7.173 -0.0745  0.2216  0.0775
  184SOPE   H5X21103   3.404   2.824   7.147 -0.1872 -0.3687  2.0946
  184SOPE   H5Y21104   3.283   2.964   7.113  0.0364 -0.4306 -0.5054
  184SOPE   C3621105   3.340   2.936   7.326 -0.4457 -0.3755  0.5291
  184SOPE   H6X21106   3.234   2.912   7.350 -0.5468 -1.9527 -1.2922
  184SOPE   H6Y21107   3.355   3.044   7.348 -3.1461  0.6002 -1.7862
  184SOPE   C3721108   3.436   2.862   7.414 -0.3243  0.4080 -0.0013
  184SOPE   H7X21109   3.542   2.892   7.408 -0.2436  0.0418 -0.4515
  184SOPE   H7Y21110   3.440   2.754   7.388  1.8505  0.5700 -0.4779
  184SOPE   C3821111   3.399   2.866   7.564  0.1338  0.2332 -0.3714
  184SOPE   H8X21112   3.454   2.785   7.617 -0.7791  0.9885  1.8364
  184SOPE   H8Y21113   3.291   2.846   7.582  0.3429  1.0993  2.3509
  184SOPE   C3921114   3.434   3.007   7.627  0.0564  0.0766  0.3076
  184SOPE   H9X21115   3.370   3.090   7.591 -0.7666 -1.3187 -1.6026
  184SOPE   H9Y21116   3.537   3.013   7.586 -0.1778  2.3141 -0.0722
  184SOPE  C31021117   3.445   3.008   7.783 -0.1458  0.2790 -0.3613
  184SOPE  H10X21118   3.476   3.111   7.813  0.1538  0.1116 -0.0936
  184SOPE  H10Y21119   3.517   2.928   7.810 -0.8386 -1.0257 -2.1644
  184SOPE  C31121120   3.323   2.968   7.855  0.2458 -0.1538 -0.3969
  184SOPE  H11X21121   3.317   2.857   7.850  1.6694 -0.3174  0.6224
  184SOPE  H11Y21122   3.230   3.005   7.807 -1.2255  0.3583  2.5867
  184SOPE  C31221123   3.312   3.011   8.007  0.3659 -0.2797 -0.6046
  184SOPE  H12X21124   3.307   3.121   8.019 -0.1359 -0.4686  1.3396
  184SOPE  H12Y21125   3.406   2.984   8.061  0.3822 -0.6241 -0.8041
  184SOPE  C31321126   3.182   2.959   8.066  0.0691  0.4233  0.3035
  184SOPE  H13X21127   3.191   2.850   8.085 -0.2612  0.3132 -0.1617
  184SOPE  H13Y21128   3.107   2.971   7.985 -0.0265  0.5984  0.4153
  184SOPE  C31421129   3.145   3.025   8.205 -0.3373  0.2256 -0.6087
  184SOPE  H14X21130   3.048   2.990   8.246  0.2002  0.3360  0.8441
  184SOPE  H14Y21131   3.118   3.131   8.187  2.8963  1.0964 -1.0837
  184SOPE  C31521132   3.262   3.034   8.309 -0.5991 -0.7630 -0.3739
  184SOPE  H15X21133   3.223   3.081   8.401 -0.0811  0.4486 -0.7587
  184SOPE  H15Y21134   3.337   3.104   8.267  0.0435 -1.0588  0.2702
  184SOPE  C31621135   3.357   2.918   8.344  0.1921 -0.0385  0.3806
  184SOPE  H16X21136   3.401   2.881   8.249 -0.8599 -1.4256  0.4085
  184SOPE  H16Y21137   3.299   2.832   8.384  1.4922 -0.7376  0.8102
  184SOPE  C31721138   3.468   2.956   8.444 -1.1177 -0.5156  0.2797
  184SOPE  H17X21139   3.424   2.971   8.544  0.7323 -1.1038  1.2316
  184SOPE  H17Y21140   3.500   3.057   8.409  2.4676 -1.6943 -0.2742
  184SOPE  C31821141   3.578   2.847   8.466  0.4784 -0.1514  0.1200
  184SOPE  H18X21142   3.627   2.821   8.370  0.9607 -0.0902  0.3487
  184SOPE  H18Y21143   3.531   2.757   8.512  0.5824  0.2451  1.0325
  184SOPE  H18Z21144   3.655   2.886   8.535  0.9828  0.3195 -0.6953
  185SAPI   C1221145   6.656   5.526  11.115 -0.2240  0.2767 -0.1797
  185SAPI    H221146   6.626   5.543  11.009 -2.5148 -1.5889  0.0726
  185SAPI    O221147   6.539   5.537  11.190  0.2064 -0.1378 -0.3879
  185SAPI   HO221148   6.503   5.625  11.175 -1.6404 -0.7260  0.2276
  185SAPI   C1321149   6.723   5.387  11.120  0.2312  0.1337 -0.6020
  185SAPI    H321150   6.810   5.394  11.051  1.3422  2.8480  0.9223
  185SAPI    O321151   6.647   5.288  11.057  0.2847 -0.3293  0.1871
  185SAPI   HO321152   6.639   5.324  10.968 -1.7714  2.4043  1.3546
  185SAPI   C1421153   6.762   5.356  11.264 -0.7099 -0.1667  0.1985
  185SAPI    H421154   6.676   5.351  11.334 -0.7476 -0.5269  0.1284
  185SAPI    O421155   6.823   5.223  11.281 -0.5280  0.1929  0.0226
  185SAPI   HO421156   6.903   5.217  11.228  0.9267 -0.3055  2.1494
  185SAPI   C1521157   6.858   5.469  11.315  0.5161  0.6424  0.1048
  185SAPI    H521158   6.944   5.468  11.245 -0.7056 -1.7498 -1.5288
  185SAPI    O521159   6.895   5.445  11.450  0.3272 -1.1627 -0.0913
  185SAPI   HO521160   6.974   5.391  11.454  2.2739  1.4652 -0.3790
  185SAPI   C1621161   6.793   5.610  11.306  0.2070  0.2097  0.4769
  185SAPI    H621162   6.700   5.610  11.366 -1.8574 -0.2568 -2.4868
  185SAPI    O621163   6.884   5.713  11.343  0.1318 -0.0623 -0.4968
  185SAPI   HO621164   6.953   5.711  11.277  0.3015 -1.0691 -0.3075
  185SAPI   C1121165   6.755   5.629  11.164 -0.1286 -0.4848 -0.6562
  185SAPI    H121166   6.843   5.633  11.095 -0.2041  0.7545 -0.7036
  185SAPI     P21167   6.745   5.873  11.049  0.4467  0.0732 -0.2763
  185SAPI   O1321168   6.887   5.898  11.072 -0.3255 -0.5170  0.1718
  185SAPI   O1421169   6.650   5.995  11.048  0.4836 -0.1464  0.1791
  185SAPI   O1221170   6.681   5.752  11.149  0.3931 -0.3330  0.8612
  185SAPI   O1121171   6.728   5.800  10.910  0.5848 -0.2220 -0.0548
  185SAPI    C121172   6.600   5.770  10.852 -0.7715  0.6684 -1.0381
  185SAPI    HA21173   6.592   5.669  10.806 -1.3667  0.4313 -0.4220
  185SAPI    HB21174   6.527   5.754  10.933 -0.3542 -0.3206 -0.8390
  185SAPI    C221175   6.573   5.863  10.729 -0.0195  0.0503  0.0199
  185SAPI    HS21176   6.641   5.831  10.647 -0.1384 -0.2775  0.0491
  185SAPI   O2121177   6.596   5.999  10.771  1.0142 -0.1348 -0.0482
  185SAPI   C2121178   6.715   6.047  10.734  0.6608  0.1254  0.0325
  185SAPI   O2221179   6.793   5.993  10.658  0.1493  0.4113 -0.8184
  185SAPI   C2221180   6.740   6.184  10.804 -0.1205  0.4157  0.1497
  185SAPI   H2R21181   6.643   6.232  10.830 -0.2742 -0.2040  0.7561
  185SAPI   H2S21182   6.785   6.170  10.904 -1.4697  3.1137  1.2271
  185SAPI    C321183   6.426   5.853  10.673 -0.1253  0.4181  0.1454
  185SAPI    HX21184   6.407   5.929  10.595 -0.9225  0.5015  0.4018
  185SAPI    HY21185   6.352   5.852  10.757  1.3844 -2.3953  1.6195
  185SAPI   O3121186   6.420   5.721  10.603 -0.6656 -0.1837 -0.6440
  185SAPI   C3121187   6.303   5.699  10.545  0.0582 -0.2906  0.0581
  185SAPI   O3221188   6.205   5.772  10.562 -0.2006 -0.3783 -0.1264
  185SAPI   C3221189   6.301   5.567  10.465 -0.2423  0.3124  0.6398
  185SAPI   H2X21190   6.365   5.491  10.516 -1.4769 -0.8905  0.4392
  185SAPI   H2Y21191   6.331   5.604  10.365  0.3837  0.8224  1.0033
  185SAPI   C2321192   6.846   6.277  10.735 -0.4926  0.4969  0.4954
  185SAPI   H3R21193   6.942   6.223  10.722 -1.2421 -0.3801 -2.1576
  185SAPI   H3S21194   6.865   6.363  10.803 -0.1432  2.3504 -1.8033
  185SAPI   C2421195   6.803   6.320  10.592  0.4749 -0.2104  0.1511
  185SAPI   H4R21196   6.740   6.243  10.543  0.0302  1.1181 -1.4537
  185SAPI   H4S21197   6.898   6.335  10.537 -0.6186  2.3724 -1.2392
  185SAPI   C2521198   6.736   6.452  10.577 -0.0662 -0.0711 -0.1308
  185SAPI   H5R21199   6.637   6.458  10.625  0.3803  0.6654  0.7087
  185SAPI   C2621200   6.787   6.566  10.525 -0.3427 -0.5014  0.5138
  185SAPI   H6R21201   6.723   6.655  10.521 -1.2274 -1.0598  1.5533
  185SAPI   C2721202   6.926   6.573  10.468 -0.1777  0.0803  0.0008
  185SAPI   H7R21203   6.949   6.509  10.380 -0.4574  1.6758 -1.2790
  185SAPI   H7S21204   7.004   6.537  10.538 -0.2228 -1.6444 -0.7957
  185SAPI   C2821205   6.971   6.718  10.428  0.3494 -0.1006 -0.6620
  185SAPI   H8R21206   7.013   6.774  10.513 -1.7939  0.1956  0.2819
  185SAPI   C2921207   6.947   6.776  10.309  0.0491  0.6550  0.1798
  185SAPI   H9R21208   6.971   6.882  10.297 -0.4086  0.6437 -0.9367
  185SAPI  C21021209   6.871   6.710  10.193  0.3899 -0.0582 -0.3011
  185SAPI  H10R21210   6.837   6.606  10.211  0.4907 -0.0936 -0.3091
  185SAPI  H10S21211   6.949   6.698  10.114  1.2492  2.2514  0.1195
  185SAPI  C21121212   6.754   6.784  10.141  0.2927 -0.5125 -0.0539
  185SAPI  H11R21213   6.689   6.827  10.218 -0.9419 -0.7264 -0.9388
  185SAPI  C21221214   6.713   6.789  10.015 -0.5237  0.4660  0.3984
  185SAPI  H12R21215   6.610   6.824   9.998 -0.2868  0.9180 -0.1447
  185SAPI  C21321216   6.756   6.712   9.893 -0.3493 -0.1314  0.1138
  185SAPI  H13R21217   6.673   6.699   9.821  1.0416 -1.9763 -1.2503
  185SAPI  H13S21218   6.795   6.611   9.918 -3.5292 -2.1686 -2.4078
  185SAPI  C21421219   6.862   6.788   9.821 -0.5589  0.4048 -0.0261
  185SAPI  H14R21220   6.885   6.895   9.835  2.1426 -0.2160  0.7210
  185SAPI  C21521221   6.916   6.737   9.712 -0.0484  0.2362  0.4446
  185SAPI  H15R21222   6.985   6.798   9.652 -1.0493  0.0120 -0.9923
  185SAPI  C21621223   6.890   6.604   9.653  0.0980 -0.4687  0.0222
  185SAPI  H16R21224   6.801   6.557   9.700 -0.1310  0.5387  0.6285
  185SAPI  H16S21225   6.977   6.540   9.675  0.6238  0.5273  0.9288
  185SAPI  C21721226   6.875   6.619   9.504 -1.1195 -0.5246 -0.3224
  185SAPI  H17R21227   6.885   6.525   9.446 -0.0938  0.1154 -1.2242
  185SAPI  H17S21228   6.960   6.678   9.465 -2.3958 -0.1726 -2.8163
  185SAPI  C21821229   6.750   6.692   9.469 -0.2860 -0.0350 -0.2501
  185SAPI  H18R21230   6.730   6.771   9.546  1.9597  1.0259 -0.6712
  185SAPI  H18S21231   6.659   6.628   9.474 -2.3817  2.5880 -1.7214
  185SAPI  C21921232   6.744   6.759   9.332  0.1125  0.0180  0.7483
  185SAPI  H19R21233   6.761   6.687   9.249 -3.1545  0.7661 -0.7182
  185SAPI  H19S21234   6.819   6.841   9.334  0.5497 -0.3738  0.7479
  185SAPI  C22021235   6.603   6.812   9.296  0.1462 -0.2728  0.4633
  185SAPI  H20R21236   6.621   6.882   9.211  0.0793  1.6133  1.9421
  185SAPI  H20S21237   6.555   6.857   9.385  2.4800  1.8706  0.7559
  185SAPI  H20T21238   6.543   6.725   9.262 -0.5279  0.5217 -0.4380
  185SAPI   C3321239   6.158   5.511  10.454  0.0871  0.1027 -0.1506
  185SAPI   H3X21240   6.102   5.508  10.550  1.6817  0.5557  0.8203
  185SAPI   H3Y21241   6.163   5.407  10.417  1.4137  0.0237  0.1985
  185SAPI   C3421242   6.084   5.578  10.342  0.2516 -0.2010  0.2879
  185SAPI   H4X21243   6.105   5.685  10.319 -0.0150 -0.5054 -1.5923
  185SAPI   H4Y21244   5.975   5.561  10.360  0.6877 -1.3840  1.9807
  185SAPI   C3521245   6.102   5.501  10.208  0.1864 -0.1696 -0.2936
  185SAPI   H5X21246   6.040   5.410  10.224 -0.6388 -0.0117 -2.2661
  185SAPI   H5Y21247   6.209   5.474  10.205  0.2480  0.0574 -0.1006
  185SAPI   C3621248   6.059   5.587  10.086  0.1078 -0.7003  0.1456
  185SAPI   H6X21249   6.113   5.684  10.082 -0.9659 -0.0671  0.5774
  185SAPI   H6Y21250   5.950   5.602  10.092  0.2517 -0.0584  1.4065
  185SAPI   C3721251   6.086   5.507   9.953  0.2295  0.5397  0.3956
  185SAPI   H7X21252   5.998   5.439   9.958 -1.1711  2.2023 -0.2511
  185SAPI   H7Y21253   6.185   5.458   9.958  2.1416  4.1111  0.5379
  185SAPI   C3821254   6.071   5.590   9.825 -0.2829  0.2596  0.1750
  185SAPI   H8X21255   6.165   5.647   9.808  1.1026 -1.9178  0.0890
  185SAPI   H8Y21256   5.982   5.655   9.832  0.0170  1.1582 -2.8230
  185SAPI   C3921257   6.039   5.499   9.712 -0.2539  0.2672 -0.0895
  185SAPI   H9X21258   5.943   5.445   9.720 -0.3792  0.5983  0.6629
  185SAPI   H9Y21259   6.115   5.418   9.703 -0.0909  0.0471  2.5959
  185SAPI  C31021260   6.031   5.584   9.582  0.1947 -0.0089 -0.3272
  185SAPI  H10X21261   6.076   5.530   9.495 -1.3224  1.0583 -1.8464
  185SAPI  H10Y21262   6.101   5.668   9.594 -1.1506  1.1948 -0.6033
  185SAPI  C31121263   5.892   5.624   9.536  0.0550 -0.2268 -0.1247
  185SAPI  H11X21264   5.846   5.654   9.633  0.1213  2.1526 -0.7754
  185SAPI  H11Y21265   5.833   5.539   9.496 -1.9979  0.7050  0.7598
  185SAPI  C31221266   5.885   5.737   9.429  0.3106 -0.1809 -0.7118
  185SAPI  H12X21267   5.940   5.713   9.335  2.6259 -0.3819  0.6098
  185SAPI  H12Y21268   5.922   5.838   9.458  1.7980 -0.4064 -1.6969
  185SAPI  C31321269   5.736   5.761   9.389  0.3763  0.0497  0.6213
  185SAPI  H13X21270   5.685   5.815   9.473  0.1695  3.6716 -1.6104
  185SAPI  H13Y21271   5.685   5.664   9.374  0.0048  0.3779 -0.3396
  185SAPI  C31421272   5.723   5.858   9.266 -0.1145  0.0760 -0.4717
  185SAPI  H14X21273   5.783   5.949   9.284 -1.3497  0.6203  1.2029
  185SAPI  H14Y21274   5.621   5.902   9.269 -1.2720 -2.3079 -1.5961
  185SAPI  C31521275   5.754   5.800   9.132 -0.1176  0.1210  0.3628
  185SAPI  H15X21276   5.700   5.703   9.117  0.8945 -0.4667  0.4286
  185SAPI  H15Y21277   5.858   5.761   9.128 -0.4530 -0.8979 -4.1270
  185SAPI  C31621278   5.732   5.879   9.007  0.3938 -0.5138  0.1829
  185SAPI  H16X21279   5.622   5.888   8.992  0.3216 -2.2396 -0.5313
  185SAPI  H16Y21280   5.770   5.820   8.921  0.9253 -1.8034  1.2687
  185SAPI  C31721281   5.799   6.016   8.999 -0.4776  0.6736  0.0611
  185SAPI  H17X21282   5.909   5.997   9.002 -0.4825  0.3369 -1.4966
  185SAPI  H17Y21283   5.778   6.073   9.092 -1.2574  1.5475 -0.6304
  185SAPI  C31821284   5.772   6.085   8.872  0.5822 -0.3861  0.6485
  185SAPI  H18X21285   5.827   6.181   8.876  0.8976 -0.5611  0.5074
  185SAPI  H18Y21286   5.662   6.096   8.861  0.8320  1.3981 -0.4368
  185SAPI  H18Z21287   5.808   6.026   8.785 -2.1004  0.4340 -1.1311
  186SAPI   C1221288   2.426   5.361  10.750 -0.4150 -0.5411 -0.1483
  186SAPI    H221289   2.410   5.268  10.692 -0.4278 -0.0111 -1.0112
  186SAPI    O221290   2.508   5.459  10.684 -0.3878 -0.5308  0.2161
  186SAPI   HO221291   2.593   5.416  10.673 -0.0298  0.6178 -2.2090
  186SAPI   C1321292   2.281   5.412  10.776 -0.8775 -0.5538  0.3529
  186SAPI    H321293   2.216   5.344  10.835 -1.1648 -0.2322  0.4092
  186SAPI    O321294   2.216   5.442  10.648 -0.0216  0.7971 -0.1626
  186SAPI   HO321295   2.280   5.424  10.579  0.0910 -1.0497  0.3753
  186SAPI   C1421296   2.290   5.536  10.861  0.0895 -0.3269  0.5518
  186SAPI    H421297   2.340   5.619  10.805  0.4868 -0.7751  0.2390
  186SAPI    O421298   2.156   5.588  10.894  0.2856  1.0721  0.2911
  186SAPI   HO421299   2.115   5.588  10.807  1.3397  1.8800 -0.2358
  186SAPI   C1521300   2.370   5.511  10.992 -0.2563 -0.3442  0.4061
  186SAPI    H521301   2.316   5.442  11.061  0.7718 -0.9011  0.6692
  186SAPI    O521302   2.383   5.639  11.065 -0.4195  0.0996  0.0276
  186SAPI   HO521303   2.323   5.643  11.140 -0.3354  1.8580  0.0420
  186SAPI   C1621304   2.504   5.451  10.972 -0.1723  0.1387 -0.1242
  186SAPI    H621305   2.563   5.532  10.923  0.0362 -1.2606 -2.3241
  186SAPI    O621306   2.562   5.418  11.095  0.3392  0.1868 -0.2899
  186SAPI   HO621307   2.658   5.427  11.091  0.3205  0.9400  0.4802
  186SAPI   C1121308   2.496   5.330  10.882  0.0516  0.6285 -0.4797
  186SAPI    H121309   2.438   5.252  10.937 -2.8266  1.1904 -2.4747
  186SAPI     P21310   2.685   5.161  10.787 -0.0712  0.2177 -0.0228
  186SAPI   O1321311   2.596   5.049  10.811 -0.0205 -0.3224 -0.2533
  186SAPI   O1421312   2.824   5.145  10.828 -0.1969 -0.0102  0.0220
  186SAPI   O1221313   2.633   5.284  10.869  0.1628 -0.2786  0.2308
  186SAPI   O1121314   2.676   5.202  10.637 -0.5541  0.5861 -0.0731
  186SAPI    C121315   2.736   5.108  10.547  0.0903 -0.8753 -0.7190
  186SAPI    HA21316   2.847   5.106  10.557  0.0828  0.9798  0.0454
  186SAPI    HB21317   2.690   5.007  10.551  0.3553 -0.9689  0.2370
  186SAPI    C221318   2.699   5.159  10.402  0.0710  0.2355  0.3009
  186SAPI    HS21319   2.718   5.075  10.333 -1.8814 -0.1558  0.1821
  186SAPI   O2121320   2.774   5.281  10.380 -0.2071 -0.1828 -0.0912
  186SAPI   C2121321   2.893   5.260  10.323  0.3234 -0.4046 -0.1459
  186SAPI   O2221322   2.950   5.151  10.320 -0.1149 -0.8052 -0.3171
  186SAPI   C2221323   2.945   5.393  10.266  1.1495  0.2514 -0.4871
  186SAPI   H2R21324   2.873   5.478  10.276  1.0216  0.2455 -1.2973
  186SAPI   H2S21325   3.030   5.435  10.323  0.8733  0.2559 -0.0755
  186SAPI    C321326   2.542   5.197  10.400 -0.6828 -0.1929 -0.3243
  186SAPI    HX21327   2.535   5.286  10.465  2.4412  1.2130 -1.7127
  186SAPI    HY21328   2.481   5.116  10.444 -1.5642  0.0400 -1.0944
  186SAPI   O3121329   2.496   5.232  10.266 -0.0082  0.0873  0.1555
  186SAPI   C3121330   2.408   5.323  10.263  0.1505 -0.7013  0.0364
  186SAPI   O3221331   2.347   5.373  10.358 -0.0376  0.2449 -0.1106
  186SAPI   C3221332   2.373   5.351  10.109  0.2460  0.0434 -0.8120
  186SAPI   H2X21333   2.323   5.450  10.103 -0.4426 -0.2720 -0.3428
  186SAPI   H2Y21334   2.293   5.280  10.080  1.7740 -1.7072 -0.9440
  186SAPI   C2321335   2.989   5.372  10.118 -0.6400  0.1877 -0.4548
  186SAPI   H3R21336   2.906   5.346  10.049  0.3250 -0.6370 -1.3455
  186SAPI   H3S21337   3.062   5.288  10.115 -0.2045  0.5605 -0.3197
  186SAPI   C2421338   3.066   5.495  10.065  0.4694  0.4599 -0.6042
  186SAPI   H4R21339   3.124   5.458   9.977 -1.9105 -0.6606 -1.7912
  186SAPI   H4S21340   3.141   5.515  10.144  1.2644 -1.3737 -0.8487
  186SAPI   C2521341   2.978   5.609  10.029  0.9068  0.1703  1.0672
  186SAPI   H5R21342   2.955   5.686  10.104  3.0677  2.4735 -0.4806
  186SAPI   C2621343   2.921   5.632   9.905  0.4419 -0.0158  0.9879
  186SAPI   H6R21344   2.857   5.717   9.877  1.7266  0.2762 -1.2683
  186SAPI   C2721345   2.944   5.554   9.777  0.6211 -0.1794 -0.3793
  186SAPI   H7R21346   3.009   5.466   9.792  1.0659 -0.0824 -1.6205
  186SAPI   H7S21347   3.007   5.612   9.706  3.4107 -1.5301  0.8601
  186SAPI   C2821348   2.822   5.500   9.711 -0.1280 -0.1990 -0.2308
  186SAPI   H8R21349   2.813   5.392   9.724  0.6715 -0.6576 -2.8676
  186SAPI   C2921350   2.746   5.566   9.629  0.0048 -0.9941 -0.4945
  186SAPI   H9R21351   2.663   5.512   9.581 -0.6089 -0.6704  0.1812
  186SAPI  C21021352   2.770   5.710   9.588  0.0325  0.5525 -0.5243
  186SAPI  H10R21353   2.858   5.696   9.522  2.5956 -1.3826  2.9619
  186SAPI  H10S21354   2.818   5.774   9.665 -1.7331  2.5779 -1.0222
  186SAPI  C21121355   2.659   5.787   9.533  0.4757 -0.9558 -0.3511
  186SAPI  H11R21356   2.571   5.785   9.600  0.4035 -2.0381 -0.4684
  186SAPI  C21221357   2.653   5.869   9.430 -0.6566  0.0937 -0.6716
  186SAPI  H12R21358   2.567   5.933   9.404  0.9102  2.6575  0.0327
  186SAPI  C21321359   2.775   5.889   9.341 -0.0215  0.5564  0.2346
  186SAPI  H13R21360   2.836   5.796   9.348 -0.5699  0.2139  0.4860
  186SAPI  H13S21361   2.838   5.971   9.381  0.5363  0.3877 -0.2890
  186SAPI  C21421362   2.744   5.913   9.198 -0.5035 -0.2846 -0.2841
  186SAPI  H14R21363   2.654   5.862   9.161  0.3649 -0.9480 -1.5781
  186SAPI  C21521364   2.810   5.993   9.112 -0.2925 -0.0862  0.4079
  186SAPI  H15R21365   2.768   5.996   9.010 -0.9275  0.0007  0.6634
  186SAPI  C21621366   2.937   6.072   9.140  0.5001  0.2682  0.2379
  186SAPI  H16R21367   3.010   6.036   9.064  0.7216  2.5713 -0.7304
  186SAPI  H16S21368   2.970   6.050   9.244  0.0238 -1.8939 -0.0306
  186SAPI  C21721369   2.913   6.228   9.129  0.0161 -0.1311  0.4508
  186SAPI  H17R21370   2.993   6.276   9.190 -0.8104 -1.2729  2.5303
  186SAPI  H17S21371   2.815   6.253   9.174 -0.1739  1.6194 -0.8445
  186SAPI  C21821372   2.914   6.277   8.981  0.6613 -0.5273 -0.0840
  186SAPI  H18R21373   2.810   6.271   8.943  1.7030  0.7246 -3.4028
  186SAPI  H18S21374   2.965   6.197   8.923  2.7186 -0.0528  0.9567
  186SAPI  C21921375   2.983   6.409   8.948  1.1177 -0.1827  0.0200
  186SAPI  H19R21376   2.966   6.439   8.843 -0.8659  0.8638  0.5888
  186SAPI  H19S21377   3.090   6.397   8.977  1.0708 -0.1563  0.2082
  186SAPI  C22021378   2.923   6.528   9.028 -0.4491  0.3035 -0.2260
  186SAPI  H20R21379   2.939   6.512   9.137 -0.3124  0.3756 -0.2343
  186SAPI  H20S21380   2.814   6.535   9.008  0.1118 -0.7213 -4.4969
  186SAPI  H20T21381   2.972   6.622   8.993  1.2805  0.0058  1.2561
  186SAPI   C3321382   2.494   5.333  10.019  0.0435  0.1327  0.3877
  186SAPI   H3X21383   2.520   5.225  10.012 -0.5386  0.0555 -1.0101
  186SAPI   H3Y21384   2.582   5.389  10.058  0.6158 -0.6868  0.3138
  186SAPI   C3421385   2.467   5.386   9.877 -0.2991 -0.1363  0.5693
  186SAPI   H4X21386   2.562   5.371   9.821 -0.3137  1.1577  0.1474
  186SAPI   H4Y21387   2.441   5.493   9.894  1.8622  0.4122  0.8667
  186SAPI   C3521388   2.347   5.323   9.815 -0.3399  0.2042  0.7611
  186SAPI   H5X21389   2.252   5.355   9.863 -0.0593  2.8014 -0.2549
  186SAPI   H5Y21390   2.361   5.213   9.820  0.4557  0.3522  2.3997
  186SAPI   C3621391   2.332   5.376   9.677  0.0975 -0.0192 -0.4813
  186SAPI   H6X21392   2.375   5.478   9.666 -0.0010 -0.0134 -0.8247
  186SAPI   H6Y21393   2.222   5.382   9.664  0.0519 -0.9119 -0.6143
  186SAPI   C3721394   2.391   5.280   9.571 -0.3029  0.0166 -0.0605
  186SAPI   H7X21395   2.365   5.180   9.612 -1.5293  0.4218  0.1697
  186SAPI   H7Y21396   2.501   5.288   9.586 -0.5641  0.2415  1.9927
  186SAPI   C3821397   2.349   5.295   9.431  0.1574 -0.9809 -0.2585
  186SAPI   H8X21398   2.239   5.309   9.444  0.2804 -0.3870  0.1886
  186SAPI   H8Y21399   2.363   5.202   9.372 -1.1632 -1.1656 -0.3152
  186SAPI   C3921400   2.406   5.420   9.359  0.3125  0.3457  0.1312
  186SAPI   H9X21401   2.423   5.505   9.428  0.2123  0.1528  0.3967
  186SAPI   H9Y21402   2.331   5.441   9.280 -1.1604 -0.4023  1.2745
  186SAPI  C31021403   2.550   5.391   9.291  0.6868  0.7773 -0.2516
  186SAPI  H10X21404   2.540   5.311   9.214 -1.8389  0.7912 -0.0355
  186SAPI  H10Y21405   2.620   5.364   9.372  0.1692 -1.1167 -0.4045
  186SAPI  C31121406   2.602   5.521   9.225  0.2551  0.4553 -0.4707
  186SAPI  H11X21407   2.592   5.601   9.301 -0.0371  0.1740 -0.2036
  186SAPI  H11Y21408   2.534   5.540   9.139 -1.1106 -0.8666  0.2548
  186SAPI  C31221409   2.745   5.502   9.174  0.1567 -0.2524  0.0730
  186SAPI  H12X21410   2.815   5.489   9.259 -1.3484  0.0652  1.4226
  186SAPI  H12Y21411   2.779   5.593   9.121  1.2903  0.9830  2.7009
  186SAPI  C31321412   2.765   5.375   9.096 -0.3744  0.4069  0.4589
  186SAPI  H13X21413   2.749   5.281   9.154  0.7612 -1.4147 -1.9739
  186SAPI  H13Y21414   2.868   5.381   9.056 -0.2679  1.8378  0.9031
  186SAPI  C31421415   2.673   5.379   8.967 -0.1272  0.2964  0.9220
  186SAPI  H14X21416   2.649   5.484   8.941 -0.9279  0.3757  1.8931
  186SAPI  H14Y21417   2.576   5.330   8.991  0.3515 -0.5823  1.1176
  186SAPI  C31521418   2.724   5.314   8.841 -0.4910 -0.0907  0.7660
  186SAPI  H15X21419   2.743   5.206   8.862  0.9900 -0.4313 -1.8862
  186SAPI  H15Y21420   2.818   5.368   8.815 -1.0365  0.2596 -0.5116
  186SAPI  C31621421   2.629   5.312   8.723 -0.5918 -0.9062 -0.2818
  186SAPI  H16X21422   2.614   5.409   8.670 -1.8282 -1.1346 -0.3895
  186SAPI  H16Y21423   2.527   5.280   8.755 -0.9620  1.6134  1.3878
  186SAPI  C31721424   2.677   5.212   8.613  0.4321 -0.1226 -0.3025
  186SAPI  H17X21425   2.693   5.113   8.662 -1.3567 -0.4376 -0.2742
  186SAPI  H17Y21426   2.770   5.257   8.572  0.7038  1.1827  1.6106
  186SAPI  C31821427   2.564   5.194   8.503 -0.5419  0.6219 -0.1035
  186SAPI  H18X21428   2.474   5.147   8.547 -1.7401  1.3347 -1.6735
  186SAPI  H18Y21429   2.610   5.121   8.432 -0.2562  0.4098  0.2948
  186SAPI  H18Z21430   2.539   5.287   8.448 -0.0480  0.2026 -1.0732
  187SAPI   C1221431   5.527   4.655   6.340  0.6057 -0.4784 -0.2996
  187SAPI    H221432   5.572   4.661   6.441 -1.3942  1.7923  0.5487
  187SAPI    O221433   5.626   4.670   6.241 -0.2149  0.4217  0.2115
  187SAPI   HO221434   5.693   4.736   6.262  0.1441  0.3046 -0.5288
  187SAPI   C1321435   5.458   4.526   6.336  0.0896 -0.5630 -0.8632
  187SAPI    H321436   5.374   4.533   6.409  1.3549  1.5592  0.4888
  187SAPI    O321437   5.550   4.421   6.363 -0.1839 -0.3120  0.2503
  187SAPI   HO321438   5.496   4.354   6.407 -2.2132 -0.4140 -2.1830
  187SAPI   C1421439   5.390   4.508   6.197  0.3038  0.4399  0.2324
  187SAPI    H421440   5.470   4.501   6.120  0.0304  2.0660 -0.2410
  187SAPI    O421441   5.337   4.380   6.197  0.0146 -0.2320  0.0112
  187SAPI   HO421442   5.271   4.368   6.265  0.6609 -1.3230  0.4562
  187SAPI   C1521443   5.287   4.619   6.172  0.2117 -0.5707  0.3151
  187SAPI    H521444   5.205   4.617   6.247 -0.2996  0.1822 -0.1960
  187SAPI    O521445   5.237   4.595   6.037 -0.4605 -0.5753 -0.3939
  187SAPI   HO521446   5.185   4.515   6.030 -2.1498  0.5733 -2.5473
  187SAPI   C1621447   5.356   4.754   6.192  0.6555 -0.4620  0.3376
  187SAPI    H621448   5.423   4.762   6.103  1.9624 -1.6809  1.1798
  187SAPI    O621449   5.255   4.852   6.180  0.6826  0.0067 -0.4618
  187SAPI   HO621450   5.240   4.910   6.256 -0.9244 -1.1599  0.1542
  187SAPI   C1121451   5.425   4.773   6.324 -0.3326 -0.3909 -0.3093
  187SAPI    H121452   5.352   4.745   6.403  0.5292 -0.1242  0.5911
  187SAPI     P21453   5.427   5.014   6.451  0.1929  0.3421 -0.2298
  187SAPI   O1321454   5.288   5.033   6.411  0.9096  0.2314  0.0929
  187SAPI   O1421455   5.514   5.135   6.436  0.2677  0.3941 -0.2420
  187SAPI   O1221456   5.482   4.903   6.350 -0.4004 -0.2382 -0.0396
  187SAPI   O1121457   5.445   4.947   6.592  0.3037  0.5606 -0.1240
  187SAPI    C121458   5.582   4.906   6.617  0.1379 -0.0142  0.2272
  187SAPI    HA21459   5.594   4.797   6.599 -0.0467 -0.3460  1.9852
  187SAPI    HB21460   5.655   4.957   6.550 -0.1528 -0.1190 -0.1717
  187SAPI    C221461   5.624   4.938   6.762 -0.2243  0.1444 -0.1322
  187SAPI    HS21462   5.726   4.898   6.777 -0.0974  0.6312  0.3319
  187SAPI   O2121463   5.537   4.877   6.857  0.0074 -0.3153  0.6685
  187SAPI   C2121464   5.560   4.747   6.871 -0.1217  0.0183 -0.1516
  187SAPI   O2221465   5.650   4.683   6.816 -0.9677  0.9958 -0.4107
  187SAPI   C2221466   5.441   4.693   6.945  0.2142 -0.1338  0.2252
  187SAPI   H2R21467   5.419   4.755   7.034  0.0970 -1.4796  1.1663
  187SAPI   H2S21468   5.351   4.706   6.881  2.3417  0.2591 -2.9443
  187SAPI    C321469   5.640   5.098   6.782  0.4225  0.0791 -0.1112
  187SAPI    HX21470   5.538   5.141   6.770 -1.5172 -4.3699 -2.4168
  187SAPI    HY21471   5.709   5.141   6.707  2.7685 -0.7341  1.4684
  187SAPI   O3121472   5.687   5.142   6.906 -0.1425 -0.7235 -0.4881
  187SAPI   C3121473   5.814   5.110   6.937  0.6965  0.0638 -0.2360
  187SAPI   O3221474   5.899   5.064   6.860  0.0532 -0.4262 -0.9323
  187SAPI   C3221475   5.837   5.135   7.089 -0.3569  0.3394 -0.1611
  187SAPI   H2X21476   5.780   5.225   7.119 -1.4072 -0.0552 -0.9109
  187SAPI   H2Y21477   5.943   5.166   7.099 -0.3416  1.2759 -2.5418
  187SAPI   C2321478   5.460   4.545   6.982  0.3062 -0.5930  0.3318
  187SAPI   H3R21479   5.481   4.484   6.891 -2.3592  0.1158 -0.8584
  187SAPI   H3S21480   5.360   4.506   7.008  0.8503 -1.3549  1.3792
  187SAPI   C2421481   5.542   4.519   7.112  0.7370  0.3179  0.3144
  187SAPI   H4R21482   5.488   4.573   7.193  0.3290 -1.9556  1.6605
  187SAPI   H4S21483   5.646   4.556   7.105  0.7735 -0.1299 -3.2432
  187SAPI   C2521484   5.528   4.368   7.137 -0.8435 -0.4444  0.8795
  187SAPI   H5R21485   5.572   4.307   7.057  2.5025  1.7598  0.8703
  187SAPI   C2621486   5.478   4.308   7.240 -0.5093  0.3342 -0.3746
  187SAPI   H6R21487   5.477   4.198   7.246 -0.6075  0.2925 -1.0894
  187SAPI   C2721488   5.425   4.369   7.367 -0.4691  0.2626  0.2095
  187SAPI   H7R21489   5.317   4.345   7.381  0.0326 -1.1250  2.1264
  187SAPI   H7S21490   5.408   4.478   7.362 -1.0516  0.3137  2.3362
  187SAPI   C2821491   5.504   4.347   7.494  0.2714  0.3103  1.2241
  187SAPI   H8R21492   5.597   4.293   7.471  0.0959 -0.0768  1.4270
  187SAPI   C2921493   5.464   4.387   7.615  0.2110 -0.5068  0.0583
  187SAPI   H9R21494   5.532   4.368   7.700  1.4084 -1.5129 -1.0671
  187SAPI  C21021495   5.336   4.453   7.646  0.6230 -1.0333 -0.4258
  187SAPI  H10R21496   5.266   4.374   7.680 -2.0700  1.4670  0.2290
  187SAPI  H10S21497   5.293   4.483   7.549  0.2335 -0.7722 -0.1763
  187SAPI  C21121498   5.330   4.572   7.738  0.3374 -0.5605  0.2200
  187SAPI  H11R21499   5.404   4.647   7.708  0.0208 -1.0047 -1.8721
  187SAPI  C21221500   5.234   4.605   7.829 -0.7538 -0.3645  0.2610
  187SAPI  H12R21501   5.247   4.703   7.877 -3.5305  0.4090 -0.4115
  187SAPI  C21321502   5.110   4.543   7.876 -0.0588  0.1796 -1.0431
  187SAPI  H13R21503   5.054   4.497   7.792 -0.4150 -1.2744 -0.0566
  187SAPI  H13S21504   5.049   4.630   7.907 -0.3535 -0.1796 -0.6048
  187SAPI  C21421505   5.140   4.437   7.979  0.2140 -0.2757 -0.2272
  187SAPI  H14R21506   5.242   4.394   7.986 -0.0607 -1.0588 -0.8780
  187SAPI  C21521507   5.056   4.384   8.065 -0.0568  0.4374  0.4089
  187SAPI  H15R21508   5.092   4.314   8.142  0.4346  1.1614  0.8516
  187SAPI  C21621509   4.916   4.436   8.078  0.2243  0.4822 -0.1026
  187SAPI  H16R21510   4.841   4.355   8.066 -0.2199  0.6874  1.1103
  187SAPI  H16S21511   4.898   4.517   8.005  0.0479 -0.0197 -0.6245
  187SAPI  C21721512   4.895   4.481   8.221  0.3172 -0.3505 -0.6413
  187SAPI  H17R21513   4.793   4.524   8.225  0.5685  0.2198  1.8966
  187SAPI  H17S21514   4.953   4.572   8.249 -1.5917  0.7868 -0.1604
  187SAPI  C21821515   4.896   4.376   8.333 -0.0949 -0.4285 -0.6103
  187SAPI  H18R21516   4.997   4.338   8.358 -0.5005 -0.2901  1.3857
  187SAPI  H18S21517   4.835   4.287   8.306 -3.6917  1.3270  1.1091
  187SAPI  C21921518   4.822   4.424   8.460  0.3673 -0.0439 -0.2648
  187SAPI  H19R21519   4.848   4.530   8.482  1.6506  0.0720 -2.1481
  187SAPI  H19S21520   4.852   4.359   8.545 -0.7166 -0.6469 -0.3189
  187SAPI  C22021521   4.671   4.397   8.452  0.0421  0.2859 -0.5110
  187SAPI  H20R21522   4.618   4.447   8.368 -3.4248 -2.5003 -0.2545
  187SAPI  H20S21523   4.628   4.423   8.551 -2.1213  3.2117 -2.0442
  187SAPI  H20T21524   4.654   4.288   8.437  0.7183  0.0458  0.4175
  187SAPI   C3321525   5.810   5.010   7.162  0.0131 -0.5288 -0.6378
  187SAPI   H3X21526   5.873   5.013   7.254  0.3016 -0.8808 -0.8187
  187SAPI   H3Y21527   5.830   4.915   7.107 -1.5477 -0.9964 -0.4408
  187SAPI   C3421528   5.662   5.011   7.206 -0.2593 -0.3569 -0.3582
  187SAPI   H4X21529   5.598   4.964   7.128 -1.4642 -3.5197  2.3013
  187SAPI   H4Y21530   5.632   5.116   7.227 -2.3388 -0.7661 -1.0452
  187SAPI   C3521531   5.639   4.922   7.331 -0.4828  1.1456  0.5797
  187SAPI   H5X21532   5.707   4.949   7.414  0.2307 -2.8168  1.4755
  187SAPI   H5Y21533   5.653   4.817   7.297 -2.7475  1.6411 -2.3755
  187SAPI   C3621534   5.497   4.926   7.389  0.1283 -0.2880  0.5590
  187SAPI   H6X21535   5.423   4.903   7.310 -0.0395 -0.7048  0.8315
  187SAPI   H6Y21536   5.473   5.032   7.413 -0.9960 -0.9471  2.5828
  187SAPI   C3721537   5.482   4.840   7.514  0.6273 -0.8219 -0.0894
  187SAPI   H7X21538   5.529   4.741   7.499 -0.1874 -1.1874 -0.2598
  187SAPI   H7Y21539   5.374   4.821   7.533  0.4325  2.1214  2.6889
  187SAPI   C3821540   5.540   4.909   7.637  0.6934 -0.7041 -0.2506
  187SAPI   H8X21541   5.502   5.013   7.631 -1.0918 -1.3738 -1.2922
  187SAPI   H8Y21542   5.651   4.918   7.641  0.6752  0.1375 -1.1431
  187SAPI   C3921543   5.501   4.866   7.778  0.4538  0.1451  0.4969
  187SAPI   H9X21544   5.544   4.766   7.798 -0.7378 -0.3502  0.7056
  187SAPI   H9Y21545   5.393   4.839   7.779  1.3358 -4.4798 -1.0997
  187SAPI  C31021546   5.535   4.971   7.888 -0.2167  0.0452 -0.3014
  187SAPI  H10X21547   5.485   5.070   7.877  0.4331  0.2680 -1.3815
  187SAPI  H10Y21548   5.646   4.980   7.885 -0.2356  0.2663 -0.3468
  187SAPI  C31121549   5.486   4.918   8.020  0.2381  0.2385  0.0391
  187SAPI  H11X21550   5.531   4.820   8.044  0.7288  0.0874 -1.4218
  187SAPI  H11Y21551   5.379   4.891   8.016  0.5318 -1.0590  0.4826
  187SAPI  C31221552   5.529   5.008   8.145  0.1326  0.3133  0.5635
  187SAPI  H12X21553   5.634   5.042   8.139 -0.3446  2.5195  3.0664
  187SAPI  H12Y21554   5.517   4.964   8.246  0.8490  2.6729  1.7506
  187SAPI  C31321555   5.445   5.133   8.149 -0.3500 -0.1846  0.5670
  187SAPI  H13X21556   5.340   5.099   8.156 -0.1255 -0.8778  0.6816
  187SAPI  H13Y21557   5.463   5.173   8.047 -0.2065 -1.0098  0.2551
  187SAPI  C31421558   5.479   5.252   8.243 -0.1744 -0.3476  0.3791
  187SAPI  H14X21559   5.405   5.331   8.217  0.3614  1.0560  2.8118
  187SAPI  H14Y21560   5.583   5.293   8.249 -0.1631 -0.3528  0.2255
  187SAPI  C31521561   5.439   5.218   8.385 -0.2286  0.1365  0.0095
  187SAPI  H15X21562   5.503   5.139   8.430 -0.8963  0.0595  0.8317
  187SAPI  H15Y21563   5.332   5.190   8.388 -0.2207 -0.0331 -1.0697
  187SAPI  C31621564   5.456   5.340   8.477  0.0890  0.1850 -0.1395
  187SAPI  H16X21565   5.383   5.420   8.451  0.4312  0.4995 -0.1550
  187SAPI  H16Y21566   5.555   5.389   8.463  0.5527 -0.0147  2.0597
  187SAPI  C31721567   5.445   5.305   8.626  0.2313 -0.5608  0.0254
  187SAPI  H17X21568   5.357   5.237   8.632 -0.1071 -0.4148 -2.5352
  187SAPI  H17Y21569   5.422   5.395   8.687  0.9404 -0.2571 -0.1475
  187SAPI  C31821570   5.581   5.250   8.690  0.3023 -0.0132  0.1127
  187SAPI  H18X21571   5.665   5.318   8.666  0.4112 -0.3010 -0.3273
  187SAPI  H18Y21572   5.604   5.151   8.646 -0.6560  0.9531 -2.7906
  187SAPI  H18Z21573   5.570   5.231   8.799  1.3803 -3.0175 -0.2329
  188SAPI   C1221574   6.228   1.844   6.369 -0.1575 -0.1615  0.0375
  188SAPI    H221575   6.225   1.889   6.471  0.9787  1.8280 -0.7534
  188SAPI    O221576   6.124   1.901   6.290  0.0568  0.5426  0.2654
  188SAPI   HO221577   6.048   1.885   6.346  0.8875  0.7094  1.5017
  188SAPI   C1321578   6.365   1.876   6.309  0.0017  1.0813 -0.1990
  188SAPI    H321579   6.444   1.827   6.370 -1.1853 -1.0805 -0.2837
  188SAPI    O321580   6.395   2.012   6.302 -0.1464 -0.1659 -0.0553
  188SAPI   HO321581   6.481   2.017   6.345  0.1137 -0.2325 -0.5456
  188SAPI   C1421582   6.371   1.815   6.163  0.1193 -0.7240 -0.0422
  188SAPI    H421583   6.297   1.869   6.100  3.0784  3.1577 -0.5167
  188SAPI    O421584   6.502   1.836   6.100  0.2862 -0.5112 -0.0997
  188SAPI   HO421585   6.525   1.929   6.094 -0.2138 -0.3622  0.2657
  188SAPI   C1521586   6.340   1.661   6.172 -0.8189 -0.2108  0.1804
  188SAPI    H521587   6.426   1.622   6.230 -1.3987 -1.5386  0.1707
  188SAPI    O521588   6.341   1.602   6.038 -0.1507  0.1532 -0.2120
  188SAPI   HO521589   6.429   1.599   5.997 -1.0665  1.3981 -2.4537
  188SAPI   C1621590   6.209   1.633   6.247 -0.1283  0.0141 -0.1824
  188SAPI    H621591   6.125   1.663   6.182 -0.8629  1.2637  1.2806
  188SAPI    O621592   6.182   1.492   6.260 -0.6398 -0.6799 -0.8134
  188SAPI   HO621593   6.213   1.464   6.346 -2.6962 -0.6460 -0.0166
  188SAPI   C1121594   6.203   1.696   6.385  0.0731 -0.2784 -0.4023
  188SAPI    H121595   6.289   1.663   6.447  0.4387 -2.4656 -1.9683
  188SAPI     P21596   6.058   1.570   6.573  0.0345  0.5096  0.4715
  188SAPI   O1321597   6.168   1.469   6.572  0.4754  0.1490 -0.6768
  188SAPI   O1421598   5.918   1.520   6.571  0.0869  0.6860  0.3442
  188SAPI   O1221599   6.077   1.679   6.455 -0.3561  0.8165  0.4427
  188SAPI   O1121600   6.065   1.659   6.697 -0.0831 -1.2396  0.3172
  188SAPI    C121601   5.962   1.759   6.728 -0.5808 -0.3723  0.4321
  188SAPI    HA21602   6.003   1.862   6.738 -1.4786 -0.0557  1.0102
  188SAPI    HB21603   5.879   1.751   6.654 -0.2123 -2.2126  0.1866
  188SAPI    C221604   5.889   1.742   6.866 -0.1683  0.1610  0.6238
  188SAPI    HS21605   5.815   1.825   6.869  0.2970  0.5485  2.1377
  188SAPI   O2121606   5.984   1.755   6.973 -0.2573 -0.3003  0.1522
  188SAPI   C2121607   5.920   1.776   7.087  0.7540  0.4183 -0.3811
  188SAPI   O2221608   5.803   1.816   7.087  0.1093  0.0887  0.1413
  188SAPI   C2221609   6.018   1.770   7.203  0.4102 -0.6048 -0.2890
  188SAPI   H2R21610   6.049   1.664   7.190  0.1440 -0.7270  0.0648
  188SAPI   H2S21611   6.115   1.824   7.201  0.0532  0.0272 -1.7318
  188SAPI    C321612   5.822   1.600   6.861 -0.4825 -0.0611  0.3701
  188SAPI    HX21613   5.904   1.525   6.852  1.0137  1.6266 -0.6769
  188SAPI    HY21614   5.776   1.597   6.759 -0.7908  0.8409  0.4758
  188SAPI   O3121615   5.731   1.566   6.968  0.4705 -0.2633  0.4786
  188SAPI   C3121616   5.613   1.618   6.947 -0.1797 -0.1534  0.3865
  188SAPI   O3221617   5.579   1.682   6.849 -0.5271 -0.4403  0.3006
  188SAPI   C3221618   5.515   1.565   7.052 -0.5438  0.2200 -0.5218
  188SAPI   H2X21619   5.532   1.457   7.037  0.9420  0.1620  1.2258
  188SAPI   H2Y21620   5.407   1.580   7.031 -1.0468 -1.4723  0.6937
  188SAPI   C2321621   5.932   1.794   7.329 -0.1864  0.2350 -0.0711
  188SAPI   H3R21622   5.967   1.730   7.413 -1.6324 -0.6430 -0.1206
  188SAPI   H3S21623   5.823   1.777   7.317 -0.0844 -1.6399  1.2599
  188SAPI   C2421624   5.942   1.940   7.380  0.4063  0.1461  0.8873
  188SAPI   H4R21625   5.858   1.953   7.451 -0.4201  2.4030 -0.3939
  188SAPI   H4S21626   5.915   2.015   7.302 -1.5716  1.1903  2.4928
  188SAPI   C2521627   6.077   1.977   7.442 -0.2943  0.6949 -0.4215
  188SAPI   H5R21628   6.173   1.961   7.392  0.1600 -0.5661  0.7650
  188SAPI   C2621629   6.091   2.032   7.560  0.1512  0.1545  0.2704
  188SAPI   H6R21630   6.191   2.053   7.600  0.0759 -0.4555  0.7913
  188SAPI   C2721631   5.975   2.066   7.650 -0.9011 -0.5188 -0.4004
  188SAPI   H7R21632   5.912   1.981   7.685 -1.4550  0.2291  0.4580
  188SAPI   H7S21633   5.905   2.130   7.592  0.0089  0.2881 -0.6448
  188SAPI   C2821634   6.016   2.148   7.769  0.1620 -0.7084 -0.9794
  188SAPI   H8R21635   6.021   2.257   7.753 -1.9171 -0.4362 -0.1603
  188SAPI   C2921636   6.052   2.102   7.892 -0.1080 -0.4472  0.5675
  188SAPI   H9R21637   6.064   2.178   7.971 -0.9378 -0.1599  0.4274
  188SAPI  C21021638   6.058   1.955   7.931  0.9534 -0.2101  0.0023
  188SAPI  H10R21639   6.132   1.927   8.008  0.9188  0.3551  0.2448
  188SAPI  H10S21640   6.102   1.888   7.854  0.5742  0.9273 -1.2500
  188SAPI  C21121641   5.923   1.911   7.979  0.4124 -0.1640 -0.1361
  188SAPI  H11R21642   5.843   1.907   7.903 -0.3211 -1.1719  0.6572
  188SAPI  C21221643   5.890   1.864   8.104 -0.2844  0.2844  0.2905
  188SAPI  H12R21644   5.785   1.831   8.111 -0.3671  0.5766  0.4060
  188SAPI  C21321645   5.979   1.849   8.231  0.6411 -0.5528 -0.7334
  188SAPI  H13R21646   6.087   1.863   8.207  0.5278  3.1751  0.3370
  188SAPI  H13S21647   5.955   1.752   8.278 -2.8023  0.1167 -0.8027
  188SAPI  C21421648   5.944   1.962   8.328 -0.6288  0.2960 -0.0351
  188SAPI  H14R21649   5.836   1.980   8.341 -0.2427  2.2146  0.8573
  188SAPI  C21521650   6.031   2.038   8.400 -0.5040  0.3138  0.7970
  188SAPI  H15R21651   5.994   2.126   8.455 -0.2413  1.6266 -1.0391
  188SAPI  C21621652   6.182   2.029   8.396  0.2733 -0.8518  0.3717
  188SAPI  H16R21653   6.221   1.928   8.368 -0.2834 -0.5091 -1.8203
  188SAPI  H16S21654   6.221   2.067   8.493  0.0669 -0.1846  0.1965
  188SAPI  C21721655   6.238   2.120   8.283  0.2191 -0.4438 -0.0866
  188SAPI  H17R21656   6.219   2.062   8.191  1.8410 -0.8156 -0.2204
  188SAPI  H17S21657   6.348   2.131   8.292  0.1281 -0.1629  0.8223
  188SAPI  C21821658   6.177   2.264   8.257  0.2859 -0.1571 -0.5158
  188SAPI  H18R21659   6.191   2.323   8.350 -1.6532  0.7865 -0.7604
  188SAPI  H18S21660   6.069   2.256   8.231  0.0979  1.1775 -0.2451
  188SAPI  C21921661   6.243   2.339   8.146 -0.1509 -0.3849 -0.0382
  188SAPI  H19R21662   6.193   2.437   8.139  1.4821  0.4376 -0.7016
  188SAPI  H19S21663   6.229   2.278   8.054  1.8299 -1.4638  0.3158
  188SAPI  C22021664   6.388   2.380   8.163 -0.9577 -0.0818 -0.1339
  188SAPI  H20R21665   6.395   2.447   8.251  0.1745 -1.0661  0.5632
  188SAPI  H20S21666   6.422   2.435   8.073 -2.6696  2.9150  0.9222
  188SAPI  H20T21667   6.452   2.290   8.179 -2.9348 -1.7409 -1.0811
  188SAPI   C3321668   5.546   1.615   7.196  0.4129  0.1448  0.0914
  188SAPI   H3X21669   5.654   1.596   7.214  0.5389 -0.0209 -0.7764
  188SAPI   H3Y21670   5.496   1.559   7.277  1.9591 -1.1685  0.1786
  188SAPI   C3421671   5.487   1.755   7.217 -0.6978 -0.7477 -0.1122
  188SAPI   H4X21672   5.389   1.782   7.172 -0.2471  3.5156  1.0242
  188SAPI   H4Y21673   5.556   1.825   7.165 -0.6850 -1.6099 -1.2836
  188SAPI   C3521674   5.472   1.790   7.358  0.1129  0.2846  0.0607
  188SAPI   H5X21675   5.566   1.785   7.419  0.8887 -0.3643 -1.1611
  188SAPI   H5Y21676   5.391   1.726   7.399  0.2259  0.0694 -0.0501
  188SAPI   C3621677   5.409   1.926   7.368  0.5540 -0.0473  0.6734
  188SAPI   H6X21678   5.304   1.912   7.334  0.2286  2.8001  0.2523
  188SAPI   H6Y21679   5.462   1.999   7.304 -1.3407  1.6427  0.9165
  188SAPI   C3721680   5.398   1.981   7.516  0.7305 -0.4161  0.1764
  188SAPI   H7X21681   5.448   1.921   7.595  0.7169 -1.6582 -0.7255
  188SAPI   H7Y21682   5.289   1.966   7.527  0.9006 -1.8474  0.0490
  188SAPI   C3821683   5.422   2.132   7.518 -0.0458 -1.2071 -0.3475
  188SAPI   H8X21684   5.352   2.196   7.461  0.0588  1.1159  1.9619
  188SAPI   H8Y21685   5.528   2.144   7.484  0.4482  1.7399  1.8393
  188SAPI   C3921686   5.418   2.190   7.666 -0.5544 -0.0641  0.8710
  188SAPI   H9X21687   5.313   2.179   7.701 -0.6756 -0.8887  0.2843
  188SAPI   H9Y21688   5.443   2.298   7.664 -1.7218  0.2080  0.3180
  188SAPI  C31021689   5.524   2.130   7.763 -0.0319  0.2909  0.5512
  188SAPI  H10X21690   5.627   2.168   7.748  0.8596 -1.0685  2.7834
  188SAPI  H10Y21691   5.526   2.018   7.764 -0.8591  0.2139 -1.5616
  188SAPI  C31121692   5.493   2.169   7.910  0.2172  0.1970  0.0344
  188SAPI  H11X21693   5.391   2.135   7.936  0.3274  0.8199  1.4083
  188SAPI  H11Y21694   5.487   2.278   7.932  0.6530 -0.1074  1.8361
  188SAPI  C31221695   5.595   2.116   8.018  0.4281 -0.4927  0.1232
  188SAPI  H12X21696   5.669   2.198   8.027  0.1575 -0.3182  0.8788
  188SAPI  H12Y21697   5.647   2.030   7.971  0.0174 -0.5807 -0.1820
  188SAPI  C31321698   5.530   2.088   8.151 -0.5975  0.6726 -0.5573
  188SAPI  H13X21699   5.597   2.031   8.218 -2.2358 -1.4477 -0.6221
  188SAPI  H13Y21700   5.442   2.030   8.117 -0.2197  0.0421 -0.4689
  188SAPI  C31421701   5.467   2.215   8.215 -0.4109  0.0046  0.0047
  188SAPI  H14X21702   5.382   2.244   8.150 -0.3833 -0.3136 -0.1747
  188SAPI  H14Y21703   5.541   2.298   8.219  0.6347 -0.7887 -1.5994
  188SAPI  C31521704   5.412   2.200   8.360  0.2739 -0.0789 -0.0942
  188SAPI  H15X21705   5.349   2.109   8.371 -0.2606  0.4733  1.9387
  188SAPI  H15Y21706   5.339   2.284   8.357  0.7806  0.3339 -1.8614
  188SAPI  C31621707   5.502   2.213   8.483 -1.1692  0.5044  0.5962
  188SAPI  H16X21708   5.555   2.309   8.465 -0.9481 -0.3140 -5.0250
  188SAPI  H16Y21709   5.565   2.122   8.493 -1.8074 -0.4569 -2.9037
  188SAPI  C31721710   5.424   2.214   8.613 -0.3813 -0.3432  0.2349
  188SAPI  H17X21711   5.328   2.269   8.602 -2.0222 -2.5922  2.2669
  188SAPI  H17Y21712   5.493   2.251   8.691 -0.3368  1.7238 -0.7130
  188SAPI  C31821713   5.378   2.065   8.650  0.4922  0.1688  0.2811
  188SAPI  H18X21714   5.324   2.025   8.562  2.4282 -2.2837  0.1061
  188SAPI  H18Y21715   5.318   2.074   8.743 -1.0149  0.8455 -0.7129
  188SAPI  H18Z21716   5.465   2.000   8.673  0.4867 -0.3037 -0.9682
  189POPC     N21717   4.938   4.377  11.041 -0.4612  0.5832  0.3984
  189POPC   C1221718   5.031   4.304  11.141  0.4828 -0.0508 -0.6353
  189POPC  H12A21719   4.975   4.227  11.192 -3.3687  2.8460 -0.0294
  189POPC  H12B21720   5.059   4.375  11.217  2.7464 -1.5889  0.0539
  189POPC   C1321721   4.812   4.416  11.107  0.0408 -0.3319 -0.3698
  189POPC  H13A21722   4.827   4.477  11.194  2.3062 -0.0431 -0.9092
  189POPC  H13B21723   4.747   4.472  11.041 -1.0823 -2.0748 -0.8171
  189POPC  H13C21724   4.762   4.324  11.136 -1.6138  0.2346 -1.3070
  189POPC   C1421725   5.014   4.484  10.983  0.7842 -0.0362  0.4566
  189POPC  H14A21726   5.105   4.438  10.946  0.1229 -2.7505  2.0339
  189POPC  H14B21727   4.964   4.510  10.891  1.3178 -1.1503 -0.1645
  189POPC  H14C21728   5.031   4.571  11.045 -0.7550  2.2823 -2.1177
  189POPC   C1521729   4.916   4.274  10.933  0.2266  0.6024 -0.1834
  189POPC  H15A21730   4.857   4.193  10.972  3.2611 -2.4153 -1.3072
  189POPC  H15B21731   5.004   4.229  10.888 -1.3068 -2.2381 -0.6174
  189POPC  H15C21732   4.856   4.313  10.852 -0.9805 -1.3744 -0.3247
  189POPC   C1121733   5.171   4.257  11.104 -0.2514 -1.0718  0.6268
  189POPC  H11A21734   5.171   4.179  11.026  0.3457  1.6398 -2.2970
  189POPC  H11B21735   5.220   4.207  11.190  0.3918 -2.4171 -0.4842
  189POPC     P21736   5.409   4.351  11.042 -0.0974  0.2617  0.4904
  189POPC   O1321737   5.462   4.237  11.118 -0.0919 -0.3469  0.1923
  189POPC   O1421738   5.474   4.481  11.067 -0.1870  0.0550  0.2050
  189POPC   O1221739   5.255   4.371  11.061 -0.3136 -0.9125 -0.0774
  189POPC   O1121740   5.420   4.320  10.886  0.0872 -0.3533 -0.5924
  189POPC    C121741   5.331   4.400  10.807  1.0681 -0.3254 -0.1519
  189POPC    HA21742   5.358   4.506  10.822 -1.5636  0.3394  0.2862
  189POPC    HB21743   5.227   4.391  10.843  0.9489 -0.8744 -0.6178
  189POPC    C221744   5.315   4.360  10.656  0.4954  0.2260  0.9039
  189POPC    HS21745   5.212   4.383  10.623  0.7164 -0.0203 -0.0046
  189POPC   O2121746   5.347   4.220  10.632 -0.0440 -0.0664  0.4885
  189POPC   C2121747   5.277   4.134  10.695  0.6071  0.6199  0.6138
  189POPC   O2221748   5.181   4.158  10.764 -0.1568  0.7465 -0.0860
  189POPC   C2221749   5.320   3.997  10.658 -0.3504  0.0877  0.1473
  189POPC   H2R21750   5.357   3.939  10.745  1.3228 -0.8454 -1.1238
  189POPC   H2S21751   5.405   4.004  10.588  0.1412 -0.5061  0.6702
  189POPC    C321752   5.402   4.466  10.580 -0.1629 -0.3461 -0.6681
  189POPC    HX21753   5.501   4.467  10.629  0.0383  1.3325 -1.0314
  189POPC    HY21754   5.359   4.569  10.586 -0.0621 -0.3453  0.1285
  189POPC   O3121755   5.421   4.417  10.455 -0.3417  0.3599  0.3244
  189POPC   C3121756   5.340   4.466  10.361 -0.4295 -0.2709  0.5042
  189POPC   O3221757   5.250   4.547  10.383 -0.2140  1.0156 -0.1294
  189POPC   C3221758   5.382   4.414  10.223  0.0703 -0.1200 -0.6107
  189POPC   H2X21759   5.378   4.303  10.221 -0.0658 -0.1521  0.6100
  189POPC   H2Y21760   5.487   4.449  10.210 -0.0202  0.4077 -0.0003
  189POPC   C2321761   5.218   3.922  10.574 -0.5089  0.2643  0.0653
  189POPC   H3R21762   5.143   3.880  10.644 -0.1830 -0.1214  0.1901
  189POPC   H3S21763   5.273   3.832  10.539 -1.3088  0.5204 -1.9853
  189POPC   C2421764   5.160   3.996  10.448  0.3775  0.0510 -0.2644
  189POPC   H4R21765   5.093   4.075  10.488  0.8487 -0.9823  2.8158
  189POPC   H4S21766   5.094   3.918  10.403  0.4553  0.1165 -0.4956
  189POPC   C2521767   5.260   4.043  10.349 -0.1892 -0.4177 -0.0233
  189POPC   H5R21768   5.336   3.962  10.341  1.2650  1.0564 -3.3315
  189POPC   H5S21769   5.317   4.136  10.371 -2.4135  0.9943  0.0955
  189POPC   C2621770   5.218   4.050  10.206  0.1479 -0.4812  0.2385
  189POPC   H6R21771   5.193   3.947  10.171 -0.8001  0.2939 -1.5357
  189POPC   H6S21772   5.307   4.066  10.141  1.3125 -0.9560  1.6805
  189POPC   C2721773   5.113   4.164  10.187  0.0005 -0.4113 -0.0045
  189POPC   H7R21774   5.163   4.255  10.226  0.7798  0.0421 -1.9307
  189POPC   H7S21775   5.025   4.150  10.252  1.0591 -2.7723  1.0232
  189POPC   C2821776   5.074   4.181  10.043 -0.5754 -0.3416  0.2954
  189POPC   H8R21777   5.170   4.208   9.995 -0.1073 -0.1171  1.3115
  189POPC   H8S21778   4.999   4.263  10.034  0.0862  0.2019 -0.3768
  189POPC   C2921779   5.008   4.061   9.980  0.5534 -0.0964 -0.0127
  189POPC   H9121780   4.908   4.041  10.021  1.5792 -2.2061  1.6495
  189POPC  C21021781   5.044   3.982   9.876  0.1867  0.6110 -0.4844
  189POPC  H10121782   4.974   3.908   9.834 -0.9746  0.8604  0.9569
  189POPC  C21121783   5.173   4.000   9.800 -0.5782 -0.1462  0.3365
  189POPC  H11R21784   5.207   3.897   9.776  1.4840  0.4674  0.4678
  189POPC  H11S21785   5.244   4.066   9.854 -1.1196  0.7156  0.0203
  189POPC  C21221786   5.141   4.059   9.660  0.1811 -0.3648  0.4323
  189POPC  H12R21787   5.232   4.060   9.596 -1.0626  2.5708 -1.5009
  189POPC  H12S21788   5.115   4.166   9.678  0.1842 -0.3269  0.2073
  189POPC  C21321789   5.036   3.992   9.574 -0.4197 -0.6086  0.2578
  189POPC  H13R21790   4.942   4.005   9.631  0.5102  1.4041  1.4050
  189POPC  H13S21791   5.064   3.884   9.565  0.5812 -0.2562 -1.3213
  189POPC  C21421792   5.028   4.056   9.436  0.0128  0.5159 -0.0605
  189POPC  H14R21793   5.120   4.063   9.375 -1.2240  0.9635 -1.9598
  189POPC  H14S21794   4.999   4.164   9.441  1.6655  1.0046 -0.4492
  189POPC  C21521795   4.923   3.998   9.342 -0.6294 -0.3269  0.4728
  189POPC  H15R21796   4.820   4.028   9.372 -1.1371 -1.3698 -0.1981
  189POPC  H15S21797   4.952   3.893   9.323 -1.6444 -0.0308 -3.5331
  189POPC  C21621798   4.964   4.059   9.202  0.1318  0.0934 -0.5489
  189POPC  H16R21799   5.068   4.031   9.174  1.0609 -0.6893  3.1556
  189POPC  H16S21800   4.960   4.170   9.214  0.9431  0.2051 -1.2234
  189POPC  C21721801   4.872   4.021   9.088  0.4900  0.4339  0.0427
  189POPC  H17R21802   4.905   4.053   8.986 -2.4983  2.4029 -0.4358
  189POPC  H17S21803   4.770   4.063   9.101  1.1488  2.2422 -0.2305
  189POPC  C21821804   4.856   3.868   9.079  0.9163 -0.5045  0.0168
  189POPC  H18R21805   4.828   3.811   9.170 -0.8878 -1.1248 -0.8758
  189POPC  H18S21806   4.952   3.814   9.061  1.3167 -0.6386  2.2765
  189POPC  H18T21807   4.791   3.838   8.994  0.6428 -0.9076  0.3707
  189POPC   C3321808   5.300   4.476  10.106 -0.0838 -0.2035 -0.1440
  189POPC   H3X21809   5.309   4.586  10.115  0.4916 -0.1896 -0.8252
  189POPC   H3Y21810   5.199   4.434  10.127  0.3517 -0.5457  1.3435
  189POPC   C3421811   5.359   4.433   9.966  0.2246 -0.1836  0.7348
  189POPC   H4X21812   5.367   4.323   9.970  0.5453 -0.2165 -0.3934
  189POPC   H4Y21813   5.459   4.475   9.941  0.6126 -0.7180  1.3430
  189POPC   C3521814   5.259   4.471   9.853  0.0562  0.9749  0.2153
  189POPC   H5X21815   5.236   4.580   9.849  0.3467  1.0932  1.2646
  189POPC   H5Y21816   5.160   4.423   9.866  0.6327 -0.3338 -0.1519
  189POPC   C3621817   5.310   4.428   9.718  0.2920 -0.8380 -0.1778
  189POPC   H6X21818   5.336   4.320   9.718  0.2277 -0.8807  1.5422
  189POPC   H6Y21819   5.408   4.479   9.710 -0.1185 -0.1712 -1.2725
  189POPC   C3721820   5.233   4.474   9.596 -0.0464 -0.1782  0.0525
  189POPC   H7X21821   5.241   4.584   9.585  0.5869 -0.3588 -1.4573
  189POPC   H7Y21822   5.129   4.437   9.609  0.2949 -1.8987 -1.7404
  189POPC   C3821823   5.286   4.419   9.462 -0.2149  0.5368 -0.3836
  189POPC   H8X21824   5.317   4.315   9.486 -1.0692  1.0401  3.6962
  189POPC   H8Y21825   5.384   4.468   9.444  0.0509 -0.0822 -0.6734
  189POPC   C3921826   5.184   4.424   9.350 -0.1208 -0.1757  0.7743
  189POPC   H9X21827   5.097   4.356   9.350  0.7195 -1.3230  3.0962
  189POPC   H9Y21828   5.235   4.406   9.252 -1.0472 -1.2916  0.4869
  189POPC  C31021829   5.129   4.568   9.340 -0.1731  0.0098 -0.5280
  189POPC  H10X21830   5.210   4.644   9.335 -0.7556  0.6841 -0.0372
  189POPC  H10Y21831   5.079   4.599   9.435 -2.2906  0.7183 -1.7986
  189POPC  C31121832   5.023   4.589   9.231  0.2727  0.0049 -0.0198
  189POPC  H11X21833   4.989   4.695   9.235 -1.1363 -0.4565  1.5345
  189POPC  H11Y21834   4.930   4.530   9.247 -0.8863  1.8257  0.2419
  189POPC  C31221835   5.073   4.537   9.097 -0.1216 -0.1303 -0.5370
  189POPC  H12X21836   5.129   4.441   9.099  0.4249  0.1866 -0.4637
  189POPC  H12Y21837   5.144   4.618   9.067 -0.7688  0.1641 -1.3032
  189POPC  C31321838   4.975   4.534   8.983  0.4450  0.0935  0.1233
  189POPC  H13X21839   5.048   4.545   8.900  0.2116  0.7702  0.0029
  189POPC  H13Y21840   4.906   4.620   8.969  0.3954 -0.2260 -1.8224
  189POPC  C31421841   4.892   4.407   8.971 -0.6352  0.3343 -0.0979
  189POPC  H14X21842   4.839   4.393   9.067  0.8378  1.5847  0.9570
  189POPC  H14Y21843   4.967   4.327   8.956  1.2261  1.7402  1.2311
  189POPC  C31521844   4.806   4.425   8.847  0.6881  0.0753  0.4424
  189POPC  H15X21845   4.818   4.343   8.773 -0.6245 -0.1060  0.4026
  189POPC  H15Y21846   4.831   4.514   8.786 -0.2753 -0.9101 -1.5097
  189POPC  C31621847   4.652   4.410   8.884 -0.4748  0.2138  0.2947
  189POPC  H16X21848   4.622   4.489   8.957 -0.2727  1.5012 -0.9573
  189POPC  H16Y21849   4.613   4.313   8.919 -0.2656 -0.4589 -1.2297
  189POPC  H16Z21850   4.600   4.433   8.788 -1.2090 -0.1523  0.6026
  190POPC     N21851   1.149   6.601  11.208  0.8109 -0.4115 -0.0560
  190POPC   C1221852   1.083   6.572  11.076  0.5869  0.5561  0.3279
  190POPC  H12A21853   1.015   6.489  11.091  0.1255  1.0095  0.7618
  190POPC  H12B21854   1.153   6.535  11.002  1.7846  0.1454  1.6352
  190POPC   C1321855   1.045   6.667  11.300  0.3053 -0.0584 -0.1406
  190POPC  H13A21856   0.983   6.742  11.254 -0.3308 -0.4925 -0.0009
  190POPC  H13B21857   0.973   6.593  11.333  0.5337  0.8480  2.6691
  190POPC  H13C21858   1.095   6.710  11.386  0.6311 -0.7658  0.0377
  190POPC   C1421859   1.206   6.476  11.267 -0.7074 -0.0460 -0.3991
  190POPC  H14A21860   1.269   6.418  11.201 -0.7156 -3.0697  2.0157
  190POPC  H14B21861   1.266   6.490  11.356 -0.8005 -0.0729 -0.3319
  190POPC  H14C21862   1.126   6.407  11.290  0.2225 -1.8470 -2.2600
  190POPC   C1521863   1.261   6.689  11.182 -0.0761  0.0794  0.4293
  190POPC  H15A21864   1.336   6.642  11.120 -0.2173 -2.1770  1.8819
  190POPC  H15B21865   1.311   6.719  11.273 -0.1755 -2.6647  1.4790
  190POPC  H15C21866   1.232   6.778  11.128 -0.4366 -0.4246 -0.2216
  190POPC   C1121867   0.997   6.693  11.025 -0.0915  0.2614 -0.2061
  190POPC  H11A21868   0.991   6.689  10.914 -0.9706  0.0167 -0.1570
  190POPC  H11B21869   1.051   6.789  11.037 -1.2049  0.7551  1.2203
  190POPC     P21870   0.754   6.603  11.084 -0.2781 -0.0462 -0.0294
  190POPC   O1321871   0.640   6.653  11.003  0.0581  0.4423 -0.0328
  190POPC   O1421872   0.721   6.565  11.221 -0.5751 -0.0884 -0.1367
  190POPC   O1221873   0.864   6.706  11.081  0.0457 -0.0974 -0.3514
  190POPC   O1121874   0.822   6.480  11.009 -0.2897  0.2230 -0.0570
  190POPC    C121875   0.736   6.376  10.962  0.1514 -1.0561 -0.4530
  190POPC    HA21876   0.641   6.373  11.021 -0.2508 -1.2470 -1.0979
  190POPC    HB21877   0.782   6.276  10.975 -0.0058 -0.9213  1.5718
  190POPC    C221878   0.708   6.406  10.809  0.5747  1.1595 -0.2121
  190POPC    HS21879   0.613   6.464  10.806  0.7369  1.3878 -1.8435
  190POPC   O2121880   0.688   6.273  10.756 -0.0717  0.9123 -0.2700
  190POPC   C2121881   0.571   6.209  10.780  0.2411  0.2349  0.7782
  190POPC   O2221882   0.476   6.259  10.832  0.4062  0.3870 -1.2879
  190POPC   C2221883   0.573   6.066  10.720  0.3413 -0.7217 -0.0551
  190POPC   H2R21884   0.600   5.991  10.797 -0.9937 -0.9462  0.2244
  190POPC   H2S21885   0.655   6.066  10.645  1.1343  1.3046  0.7350
  190POPC    C321886   0.812   6.477  10.727 -0.0929 -0.4556 -0.7088
  190POPC    HX21887   0.914   6.438  10.748 -0.1507  0.0886  0.6101
  190POPC    HY21888   0.808   6.578  10.773  0.2074 -1.9927  2.9988
  190POPC   O3121889   0.782   6.466  10.584 -1.3037 -1.0485 -0.1023
  190POPC   C3121890   0.761   6.586  10.528  0.6180 -0.0121  0.2328
  190POPC   O3221891   0.766   6.693  10.578  0.2546 -0.6035 -0.3009
  190POPC   C3221892   0.720   6.564  10.378 -0.2742  0.3021  0.4930
  190POPC   H2X21893   0.789   6.495  10.324 -1.2262 -1.5662  1.5506
  190POPC   H2Y21894   0.740   6.664  10.335 -2.9270  1.3481  1.4802
  190POPC   C2321895   0.442   6.022  10.662 -0.2000  0.0284  1.1758
  190POPC   H3R21896   0.358   6.047  10.730 -0.9013 -0.3871  0.4727
  190POPC   H3S21897   0.436   5.912  10.648  1.7536  0.0356 -0.1301
  190POPC   C2421898   0.416   6.098  10.529  0.4540  0.2318 -0.0857
  190POPC   H4R21899   0.499   6.071  10.460 -1.7581 -0.3560 -2.7216
  190POPC   H4S21900   0.418   6.208  10.542 -2.3504  0.1846  1.4204
  190POPC   C2521901   0.283   6.058  10.462  0.4765  0.6532 -0.5787
  190POPC   H5R21902   0.187   6.084  10.512  1.2877 -0.2731  1.5804
  190POPC   H5S21903   0.279   5.947  10.459  1.0631  0.6478 -1.6566
  190POPC   C2621904   0.282   6.112  10.316  0.7250  0.0056  0.3263
  190POPC   H6R21905   0.354   6.047  10.262 -1.8747 -1.7115 -1.3060
  190POPC   H6S21906   0.321   6.215  10.326  1.0711 -0.1632  0.7489
  190POPC   C2721907   0.143   6.099  10.248 -0.3148 -0.0341 -0.8655
  190POPC   H7R21908   0.076   6.161  10.310 -0.7225 -1.1182 -0.2109
  190POPC   H7S21909   0.109   5.994  10.258 -0.9779  0.3484  1.3807
  190POPC   C2821910   0.140   6.133  10.096  0.0661  0.6073  0.7166
  190POPC   H8R21911   0.226   6.081  10.048  0.1681  0.2915  1.2419
  190POPC   H8S21912   0.159   6.240  10.071  1.9255 -0.4667 -3.3058
  190POPC   C2921913   0.003   6.090  10.041 -0.3551  0.5691 -1.2316
  190POPC   H9121914  -0.009   5.981  10.037  0.5462  0.3426  0.7148
  190POPC  C21021915  -0.092   6.169   9.998  0.1824  0.5445  0.6449
  190POPC  H10121916  -0.185   6.126   9.958  1.4653 -0.9544 -0.8609
  190POPC  C21121917  -0.084   6.317   9.987 -0.0834 -0.7537 -0.5728
  190POPC  H11R21918   0.020   6.357   9.990  0.1038 -1.1759 -1.1854
  190POPC  H11S21919  -0.130   6.353  10.081 -3.9994 -0.5456 -2.3877
  190POPC  C21221920  -0.165   6.368   9.867 -0.7360  0.6902  1.1982
  190POPC  H12R21921  -0.157   6.478   9.878  0.3920  0.5987  1.4679
  190POPC  H12S21922  -0.267   6.326   9.875 -0.3716 -0.9002 -1.3550
  190POPC  C21321923  -0.128   6.314   9.730 -0.2613 -0.7878  0.0886
  190POPC  H13R21924  -0.123   6.203   9.731 -0.1128 -0.8013  2.0436
  190POPC  H13S21925  -0.022   6.340   9.709  0.6426 -0.6266  4.0054
  190POPC  C21421926  -0.229   6.357   9.625 -0.5082 -0.6663 -0.6221
  190POPC  H14R21927  -0.236   6.467   9.609 -2.2060 -0.4542  1.1964
  190POPC  H14S21928  -0.333   6.335   9.658 -0.2869 -0.5778  0.1724
  190POPC  C21521929  -0.195   6.292   9.486  0.8121  0.6590 -0.5306
  190POPC  H15R21930  -0.209   6.183   9.502 -1.3454  1.0700  0.8646
  190POPC  H15S21931  -0.092   6.312   9.449  0.3206  0.1879 -2.2365
  190POPC  C21621932  -0.286   6.349   9.371  0.9196 -0.7864  0.7041
  190POPC  H16R21933  -0.251   6.453   9.357  0.0932 -0.4958  0.7849
  190POPC  H16S21934  -0.392   6.341   9.402 -0.2343 -1.4313 -2.9574
  190POPC  C21721935  -0.272   6.272   9.237  0.0550 -0.1629 -0.8592
  190POPC  H17R21936  -0.372   6.254   9.192  0.1570  1.4154 -1.7519
  190POPC  H17S21937  -0.230   6.178   9.280 -1.2835 -0.9579 -1.2461
  190POPC  C21821938  -0.190   6.332   9.130 -0.3267  0.0298 -0.5215
  190POPC  H18R21939  -0.176   6.262   9.044  0.5143  0.6325 -0.8944
  190POPC  H18S21940  -0.092   6.358   9.175 -1.7106 -1.2817  3.6863
  190POPC  H18T21941  -0.232   6.425   9.086 -2.1497 -0.1614  0.7314
  190POPC   C3321942   0.581   6.517  10.349  0.1024  0.0415 -0.1586
  190POPC   H3X21943   0.506   6.583  10.397 -0.2810 -0.1960 -0.4228
  190POPC   H3Y21944   0.558   6.417  10.391  1.0695  0.5355  1.6252
  190POPC   C3421945   0.551   6.522  10.195  0.4356 -0.3168  0.5378
  190POPC   H4X21946   0.630   6.460  10.146 -0.5278 -0.5935 -0.7291
  190POPC   H4Y21947   0.543   6.626  10.157 -1.3399 -1.0234 -1.1948
  190POPC   C3521948   0.414   6.448  10.174 -0.0683  0.2972 -0.6550
  190POPC   H5X21949   0.337   6.492  10.240 -0.2119 -2.7685  1.3970
  190POPC   H5Y21950   0.420   6.345  10.214 -0.8918  0.3488 -0.3850
  190POPC   C3621951   0.354   6.456  10.030  0.2012 -0.0487 -0.0495
  190POPC   H6X21952   0.380   6.551   9.977  0.6394 -0.7169 -1.0568
  190POPC   H6Y21953   0.243   6.452  10.042  0.2717  1.4341  1.4773
  190POPC   C3721954   0.391   6.335   9.940 -0.2846 -0.0618 -0.2519
  190POPC   H7X21955   0.380   6.240   9.997  3.3815 -0.0017  0.7872
  190POPC   H7Y21956   0.498   6.339   9.912 -0.5934  1.7580 -1.3410
  190POPC   C3821957   0.316   6.315   9.809  0.8049 -0.4129  0.1478
  190POPC   H8X21958   0.350   6.393   9.736 -1.4908  0.2571 -0.2830
  190POPC   H8Y21959   0.211   6.343   9.827  1.2750  0.0220  2.4695
  190POPC   C3921960   0.335   6.165   9.766  0.4277 -0.1885 -0.3191
  190POPC   H9X21961   0.252   6.117   9.822  1.4390 -1.2914  0.2876
  190POPC   H9Y21962   0.437   6.127   9.790  0.6842  0.4789 -0.3310
  190POPC  C31021963   0.337   6.150   9.614  0.3903 -0.1734  1.1296
  190POPC  H10X21964   0.343   6.045   9.581  0.1874 -0.4410  1.9214
  190POPC  H10Y21965   0.422   6.210   9.574 -0.4622  0.4493  0.2047
  190POPC  C31121966   0.216   6.208   9.545 -0.9631 -0.0781 -0.4389
  190POPC  H11X21967   0.220   6.317   9.561  0.8487  0.0724 -1.6802
  190POPC  H11Y21968   0.123   6.157   9.580 -0.2951 -0.0739  1.4363
  190POPC  C31221969   0.232   6.193   9.395  0.3314  0.3057 -0.2616
  190POPC  H12X21970   0.340   6.186   9.374  0.7039 -0.4801  1.6675
  190POPC  H12Y21971   0.192   6.287   9.352 -0.3688  0.7224  1.2290
  190POPC  C31321972   0.148   6.089   9.318  0.7425  0.6038  0.1837
  190POPC  H13X21973   0.139   6.126   9.213 -2.1749  0.7335  0.3880
  190POPC  H13Y21974   0.042   6.097   9.351  0.9123 -1.7165  1.4913
  190POPC  C31421975   0.187   5.944   9.331  0.2891 -0.1658  0.0214
  190POPC  H14X21976   0.194   5.911   9.437  0.2658 -2.1675 -0.5618
  190POPC  H14Y21977   0.281   5.929   9.274 -0.6958  0.6624 -1.9035
  190POPC  C31521978   0.079   5.854   9.268 -0.1364  0.6475  0.5145
  190POPC  H15X21979  -0.020   5.872   9.315 -0.1679  1.9310 -0.0079
  190POPC  H15Y21980   0.110   5.748   9.281  3.3071  1.3693 -0.7643
  190POPC  C31621981   0.070   5.884   9.118  0.3272  0.6948 -0.4848
  190POPC  H16X21982   0.036   5.986   9.088 -1.0782  0.5468  0.4896
  190POPC  H16Y21983  -0.008   5.815   9.079  0.2786  1.8181 -2.5149
  190POPC  H16Z21984   0.170   5.861   9.077  0.2322  0.4903 -0.6044
  191POPC     N21985   0.420   1.077   6.136 -0.0419 -0.1130 -0.1514
  191POPC   C1221986   0.404   1.191   6.241  0.1249  0.2028 -0.0505
  191POPC  H12A21987   0.332   1.261   6.203 -0.1378 -0.3715 -0.6311
  191POPC  H12B21988   0.503   1.232   6.257  0.6100 -1.0808  0.4584
  191POPC   C1321989   0.289   1.015   6.105 -0.3702  0.4258  0.0268
  191POPC  H13A21990   0.304   0.938   6.032  0.1096  0.6038 -0.0638
  191POPC  H13B21991   0.256   0.963   6.194 -0.1638  2.1449  1.1533
  191POPC  H13C21992   0.213   1.085   6.071 -1.7656 -1.0766 -0.0563
  191POPC   C1421993   0.479   1.140   6.014  0.1235  0.0440 -0.1124
  191POPC  H14A21994   0.464   1.069   5.934 -1.0448 -0.1659  0.2675
  191POPC  H14B21995   0.433   1.236   5.998 -0.0432  0.1544  0.9997
  191POPC  H14C21996   0.583   1.156   6.035  0.3756 -1.5765 -0.0034
  191POPC   C1521997   0.520   0.974   6.175  0.0463 -0.0055  0.3207
  191POPC  H15A21998   0.480   0.909   6.251  0.4135 -0.4693  0.1169
  191POPC  H15B21999   0.612   1.026   6.200 -1.6182  2.0548  2.7722
  191POPC  H15C22000   0.534   0.920   6.083 -1.2922 -1.4573  0.9326
  191POPC   C1122001   0.361   1.153   6.386  0.5908  0.4748 -0.4811
  191POPC  H11A22002   0.357   1.238   6.457 -2.2554  0.0843 -0.0728
  191POPC  H11B22003   0.434   1.080   6.427 -0.9560 -1.7932 -1.5671
  191POPC     P22004   0.105   1.166   6.387 -0.2483  0.0203 -0.2085
  191POPC   O1322005  -0.011   1.078   6.416 -0.8213 -0.8813 -0.1399
  191POPC   O1422006   0.087   1.243   6.261 -0.5122  0.1483 -0.2106
  191POPC   O1222007   0.235   1.080   6.396 -0.8146 -0.7077 -0.3967
  191POPC   O1122008   0.120   1.272   6.509 -0.1517 -0.2808  0.1049
  191POPC    C122009   0.064   1.246   6.636  0.0488 -0.5171 -0.5418
  191POPC    HA22010   0.036   1.141   6.659  2.6980 -0.7374  2.3503
  191POPC    HB22011  -0.032   1.300   6.651  0.0579 -0.7301  0.3763
  191POPC    C222012   0.169   1.266   6.753  0.7607 -0.3323  0.1730
  191POPC    HS22013   0.239   1.336   6.703  0.4091  0.8197  1.2285
  191POPC   O2122014   0.234   1.137   6.771 -0.8317 -0.0079 -0.4633
  191POPC   C2122015   0.364   1.140   6.753  0.1499  0.0090  0.9947
  191POPC   O2222016   0.439   1.238   6.740  0.6463 -0.3099  0.4456
  191POPC   C2222017   0.410   0.997   6.740  0.6314  0.6228 -0.2949
  191POPC   H2R22018   0.494   0.982   6.669  2.6724  1.1103  1.9014
  191POPC   H2S22019   0.319   0.935   6.721  0.5520  0.0983  1.5656
  191POPC    C322020   0.110   1.332   6.879 -0.0677 -0.9942 -0.5537
  191POPC    HX22021   0.055   1.259   6.942  1.3603  1.1850  3.6119
  191POPC    HY22022   0.044   1.417   6.852 -0.6462 -0.6794  1.6279
  191POPC   O3122023   0.220   1.390   6.952  0.4551 -0.0976 -0.0677
  191POPC   C3122024   0.283   1.313   7.041  0.0561 -0.7863  0.0596
  191POPC   O3222025   0.254   1.202   7.069 -0.0319  0.0371 -0.0948
  191POPC   C3222026   0.387   1.397   7.115  0.2324  0.8467  0.2931
  191POPC   H2X22027   0.342   1.498   7.124 -0.4352  0.6067 -0.3401
  191POPC   H2Y22028   0.482   1.395   7.057 -1.3891  1.2738 -2.5587
  191POPC   C2322029   0.460   0.944   6.875  0.5904  0.1160  0.3609
  191POPC   H3R22030   0.495   0.839   6.867  1.5233  0.3566  1.0274
  191POPC   H3S22031   0.374   0.947   6.945  0.6519 -0.5459  0.4646
  191POPC   C2422032   0.576   1.035   6.930 -0.3979  0.1346  0.0265
  191POPC   H4R22033   0.540   1.139   6.945 -0.3968 -0.0782  1.6474
  191POPC   H4S22034   0.673   1.028   6.875  0.5085 -0.9897  1.6921
  191POPC   C2522035   0.612   0.981   7.077  0.0424 -0.1566 -0.0487
  191POPC   H5R22036   0.635   0.874   7.061 -1.4785 -0.3536 -1.0809
  191POPC   H5S22037   0.525   0.990   7.146 -0.3847 -0.3939 -0.5501
  191POPC   C2622038   0.730   1.050   7.143 -0.4316  0.0242  0.4733
  191POPC   H6R22039   0.720   1.160   7.141  1.0252  0.1582 -0.0914
  191POPC   H6S22040   0.817   1.035   7.076 -2.1470 -1.2360 -1.6421
  191POPC   C2722041   0.759   0.998   7.280  0.3075  0.4534  0.3799
  191POPC   H7R22042   0.772   0.890   7.257 -0.0729  1.1597 -4.0187
  191POPC   H7S22043   0.674   1.020   7.348 -0.1559 -1.1114  0.3281
  191POPC   C2822044   0.880   1.074   7.330  0.3252  0.6488 -0.0495
  191POPC   H8R22045   0.851   1.179   7.352  0.3563  0.6165  0.1449
  191POPC   H8S22046   0.953   1.085   7.247 -3.1404  2.1745 -3.1647
  191POPC   C2922047   0.937   1.008   7.442 -0.3308 -0.4130 -1.2277
  191POPC   H9122048   0.999   0.923   7.412  1.8217  1.0424 -1.1187
  191POPC  C21022049   0.933   1.045   7.577  0.2437  0.4666  0.5032
  191POPC  H10122050   0.990   0.983   7.648 -1.2924  0.3328  1.6755
  191POPC  C21122051   0.875   1.163   7.650 -0.3690 -0.1651  0.7844
  191POPC  H11R22052   0.804   1.209   7.578  0.6731 -0.3749 -0.4153
  191POPC  H11S22053   0.961   1.232   7.668  0.9161 -0.8683 -2.1559
  191POPC  C21222054   0.805   1.146   7.785  0.4777 -0.1662  0.5654
  191POPC  H12R22055   0.700   1.117   7.760  0.6400 -1.2657  1.0724
  191POPC  H12S22056   0.804   1.245   7.834  4.6125  0.5488 -0.4649
  191POPC  C21322057   0.869   1.046   7.876  0.2296  1.0062  0.0645
  191POPC  H13R22058   0.854   0.947   7.828  0.5506  0.3988  1.1784
  191POPC  H13S22059   0.806   1.052   7.968 -0.6433 -0.3793 -0.3942
  191POPC  C21422060   1.020   1.058   7.905 -0.0040  0.6344 -0.0842
  191POPC  H14R22061   1.041   1.154   7.957  1.3048  0.5822 -0.4774
  191POPC  H14S22062   1.085   1.058   7.815  0.4487  0.3119  0.2425
  191POPC  C21522063   1.075   0.946   7.994 -0.0105  0.0538  0.2536
  191POPC  H15R22064   1.185   0.944   7.978 -0.0184  0.5957  0.1005
  191POPC  H15S22065   1.027   0.851   7.964  2.1195 -0.9663 -0.0773
  191POPC  C21622066   1.070   0.978   8.141  0.1513 -0.2643 -0.3989
  191POPC  H16R22067   0.965   1.000   8.169 -0.2315 -0.1769 -1.8576
  191POPC  H16S22068   1.132   1.069   8.156 -1.1853  0.2994  2.1862
  191POPC  C21722069   1.128   0.876   8.243 -1.0305  0.0571 -0.5579
  191POPC  H17R22070   1.239   0.881   8.240 -0.7478 -3.4977 -0.3609
  191POPC  H17S22071   1.090   0.776   8.211 -0.9104 -0.5758  1.1672
  191POPC  C21822072   1.087   0.920   8.380 -0.3665 -0.0173  0.3407
  191POPC  H18R22073   1.102   0.839   8.456 -0.0589 -0.1440  0.1455
  191POPC  H18S22074   0.986   0.966   8.380 -1.0393 -1.3999  1.5996
  191POPC  H18T22075   1.153   1.004   8.408  1.8793 -1.3412 -0.6951
  191POPC   C3322076   0.403   1.347   7.263 -0.3628 -0.1540  0.6526
  191POPC   H3X22077   0.448   1.245   7.260 -0.2690 -0.1284  1.1074
  191POPC   H3Y22078   0.303   1.343   7.312 -2.1498  0.9563 -2.5831
  191POPC   C3422079   0.492   1.436   7.350 -0.3704 -0.6869 -0.2340
  191POPC   H4X22080   0.472   1.545   7.349 -0.2501 -0.5938  2.1780
  191POPC   H4Y22081   0.598   1.421   7.320 -0.4722 -0.8848 -0.4962
  191POPC   C3522082   0.490   1.403   7.503 -0.4335  0.2618  0.0382
  191POPC   H5X22083   0.578   1.338   7.524 -0.1863  0.7309  0.4804
  191POPC   H5Y22084   0.395   1.347   7.515 -0.2363 -0.0165  0.3211
  191POPC   C3622085   0.507   1.516   7.608 -0.4856 -0.5998 -0.2037
  191POPC   H6X22086   0.440   1.603   7.592 -4.6166 -3.5278 -0.4728
  191POPC   H6Y22087   0.615   1.544   7.606 -0.5451 -0.3825 -0.3983
  191POPC   C3722088   0.479   1.464   7.750 -0.2592 -0.0198  0.6605
  191POPC   H7X22089   0.544   1.374   7.761 -0.2267 -0.1173 -0.2461
  191POPC   H7Y22090   0.370   1.460   7.772 -0.8616  1.1068 -1.7860
  191POPC   C3822091   0.513   1.579   7.844 -0.7709  0.2753 -0.2351
  191POPC   H8X22092   0.444   1.666   7.836  1.8015  2.3800 -0.9557
  191POPC   H8Y22093   0.605   1.630   7.810 -1.1888  1.6118  0.5190
  191POPC   C3922094   0.530   1.534   7.988  0.0219  0.8252  0.0517
  191POPC   H9X22095   0.465   1.448   8.014  0.8758  0.2242  0.2408
  191POPC   H9Y22096   0.496   1.617   8.054  1.9495  0.7034  1.2688
  191POPC  C31022097   0.682   1.502   8.021 -0.1668 -0.6447  0.0599
  191POPC  H10X22098   0.739   1.598   8.028  1.5700 -1.6591  0.2709
  191POPC  H10Y22099   0.736   1.444   7.943  1.5296 -0.4778  1.0589
  191POPC  C31122100   0.702   1.419   8.149  0.2218  0.9161 -0.8718
  191POPC  H11X22101   0.655   1.319   8.132  1.8595 -0.6520  2.6608
  191POPC  H11Y22102   0.639   1.459   8.231  2.1144 -1.5738  2.0396
  191POPC  C31222103   0.850   1.400   8.183 -0.6956  0.3703 -0.0918
  191POPC  H12X22104   0.905   1.495   8.196  0.0585 -0.3952  3.5405
  191POPC  H12Y22105   0.884   1.346   8.092 -2.1618  0.5232 -0.7610
  191POPC  C31322106   0.873   1.322   8.316 -0.1388 -1.0277  0.6553
  191POPC  H13X22107   0.822   1.223   8.308 -0.3070 -0.9051  0.1969
  191POPC  H13Y22108   0.811   1.380   8.387 -0.6885  0.2570 -0.8162
  191POPC  C31422109   1.018   1.323   8.351  0.5303 -0.6423 -0.0733
  191POPC  H14X22110   1.078   1.416   8.334 -1.3185  0.4834 -0.7655
  191POPC  H14Y22111   1.062   1.259   8.271 -0.1067  2.3400 -3.0556
  191POPC  C31522112   1.051   1.289   8.495 -0.4175 -0.2575  0.0218
  191POPC  H15X22113   1.161   1.281   8.507 -0.4659  0.1839  0.8554
  191POPC  H15Y22114   1.015   1.184   8.498 -0.2518 -0.3736 -1.4857
  191POPC  C31622115   1.000   1.376   8.621 -0.1008  1.0292 -0.4055
  191POPC  H16X22116   1.033   1.481   8.608 -2.7295  1.8173 -1.2749
  191POPC  H16Y22117   1.043   1.329   8.712 -0.7561 -1.0513 -1.0899
  191POPC  H16Z22118   0.890   1.363   8.627  0.1607 -0.8248  1.4858
  192POPC     N22119   0.614   3.925   6.547 -0.5240  0.1356  0.2126
  192POPC   C1222120   0.651   3.857   6.421 -0.0501  0.2218 -0.4599
  192POPC  H12A22121   0.756   3.876   6.403  0.3492  1.7374  2.7224
  192POPC  H12B22122   0.587   3.900   6.346 -0.8540 -0.6385 -0.2867
  192POPC   C1322123   0.665   4.063   6.539  0.1974  0.1287  0.3022
  192POPC  H13A22124   0.647   4.121   6.629 -0.7782  0.1423  0.1153
  192POPC  H13B22125   0.771   4.069   6.518  0.5707 -0.0967  1.9560
  192POPC  H13C22126   0.624   4.121   6.458  1.8402 -0.1336 -0.7722
  192POPC   C1422127   0.468   3.926   6.559  0.0973  0.7035 -0.4581
  192POPC  H14A22128   0.407   3.953   6.473 -2.3853  0.7671  1.2197
  192POPC  H14B22129   0.443   3.826   6.590 -0.9520  1.3255  0.7601
  192POPC  H14C22130   0.430   3.985   6.641  2.2034  1.6387 -0.0778
  192POPC   C1522131   0.679   3.854   6.663  0.1325 -0.1515 -0.8606
  192POPC  H15A22132   0.783   3.883   6.666  0.0909  0.0230 -1.0856
  192POPC  H15B22133   0.652   3.750   6.661 -0.1192 -0.2529  2.6513
  192POPC  H15C22134   0.639   3.902   6.751  2.2810  2.1742 -1.0480
  192POPC   C1122135   0.628   3.703   6.413  0.2727 -0.4542  0.1829
  192POPC  H11A22136   0.696   3.666   6.492  1.6205  1.0552 -0.2243
  192POPC  H11B22137   0.652   3.667   6.311  0.6283  1.4701 -0.4544
  192POPC     P22138   0.453   3.543   6.515 -0.1880  0.2016 -0.3166
  192POPC   O1322139   0.482   3.424   6.424 -0.1603 -0.5997 -0.0644
  192POPC   O1422140   0.310   3.548   6.555  0.6629 -0.2781 -0.3595
  192POPC   O1222141   0.492   3.674   6.443  0.4547 -0.1252  0.3969
  192POPC   O1122142   0.541   3.546   6.643 -0.2157 -0.0523 -0.2709
  192POPC    C122143   0.629   3.437   6.682 -0.0673 -0.2546  0.4732
  192POPC    HA22144   0.723   3.442   6.623  0.0013 -1.6284  0.4465
  192POPC    HB22145   0.574   3.341   6.675 -0.3876 -0.2968  2.7838
  192POPC    C222146   0.655   3.435   6.831  0.0504 -0.5054  0.2588
  192POPC    HS22147   0.727   3.354   6.856  0.6777  0.6973  2.7543
  192POPC   O2122148   0.531   3.427   6.907  0.0872  0.7585  0.0223
  192POPC   C2122149   0.499   3.313   6.943 -0.4025  0.4633 -0.0304
  192POPC   O2222150   0.553   3.209   6.924 -0.0628 -0.0321  0.1004
  192POPC   C2222151   0.366   3.318   7.018  1.0186  0.1112 -0.2272
  192POPC   H2R22152   0.301   3.243   6.968 -0.9514  1.2610  0.4898
  192POPC   H2S22153   0.325   3.420   7.001 -0.5228 -0.1348  1.6521
  192POPC    C322154   0.714   3.569   6.885  0.1651  0.0625 -0.2567
  192POPC    HX22155   0.655   3.660   6.860  2.0922  0.9308 -1.8616
  192POPC    HY22156   0.815   3.579   6.840 -0.5836  0.8713 -1.8358
  192POPC   O3122157   0.726   3.560   7.030 -0.3752  0.3258  0.7851
  192POPC   C3122158   0.785   3.670   7.081 -0.2807  0.1546  0.3042
  192POPC   O3222159   0.837   3.760   7.018  0.4819  0.0596 -0.2269
  192POPC   C3222160   0.783   3.644   7.231 -0.4015  0.1913 -1.0420
  192POPC   H2X22161   0.824   3.737   7.276  0.2751 -1.0545  1.0505
  192POPC   H2Y22162   0.854   3.561   7.252  0.7073  1.6396  1.4437
  192POPC   C2322163   0.369   3.268   7.165 -0.5337  0.2948  0.3274
  192POPC   H3R22164   0.404   3.353   7.228 -2.1500  1.3290 -0.0933
  192POPC   H3S22165   0.449   3.193   7.181 -0.4241  0.4782  0.6501
  192POPC   C2422166   0.238   3.196   7.206 -0.2339 -0.8606  0.7250
  192POPC   H4R22167   0.220   3.103   7.148 -1.2991  0.3253 -0.9404
  192POPC   H4S22168   0.160   3.269   7.177  0.1204 -0.8481 -0.2514
  192POPC   C2522169   0.234   3.169   7.360  0.5555 -0.2163  0.0737
  192POPC   H5R22170   0.244   3.267   7.411 -1.5478 -0.2213  0.5515
  192POPC   H5S22171   0.322   3.105   7.382  0.6771  0.2746  1.1129
  192POPC   C2622172   0.111   3.101   7.421 -0.4969  0.4628  0.2244
  192POPC   H6R22173   0.130   3.092   7.530  2.0658  1.1891 -0.0892
  192POPC   H6S22174   0.105   3.006   7.364 -0.1727  1.4366 -1.5021
  192POPC   C2722175  -0.023   3.169   7.414 -0.3818  0.1267  0.5225
  192POPC   H7R22176  -0.061   3.161   7.310  1.3013  0.8548 -0.1839
  192POPC   H7S22177  -0.003   3.277   7.430 -0.9916  0.3637 -0.2152
  192POPC   C2822178  -0.135   3.112   7.505 -0.9694 -0.1835  0.0536
  192POPC   H8R22179  -0.165   3.019   7.452  1.2901 -0.7518 -0.3329
  192POPC   H8S22180  -0.232   3.166   7.501 -0.7970  0.1663  0.5320
  192POPC   C2922181  -0.101   3.092   7.654 -0.4008 -0.1524 -0.2633
  192POPC   H9122182  -0.085   2.989   7.690  1.4853  0.1904 -0.0023
  192POPC  C21022183  -0.067   3.196   7.738  0.7227  0.1707  0.7448
  192POPC  H10122184  -0.059   3.180   7.846  2.6875  1.3825  0.8449
  192POPC  C21122185  -0.067   3.348   7.704  0.1060  0.4514 -0.5961
  192POPC  H11R22186  -0.075   3.357   7.594  0.9248 -0.7922 -0.7739
  192POPC  H11S22187   0.035   3.386   7.727  0.0174 -0.9304  2.6221
  192POPC  C21222188  -0.174   3.437   7.762  0.1335 -0.5726 -0.2070
  192POPC  H12R22189  -0.273   3.391   7.743  0.6859 -0.7477 -3.0157
  192POPC  H12S22190  -0.174   3.527   7.698 -0.8118  0.0543  0.6499
  192POPC  C21322191  -0.158   3.459   7.916  0.5987 -0.4206 -0.4208
  192POPC  H13R22192  -0.060   3.500   7.949  0.0501 -0.5167  1.4026
  192POPC  H13S22193  -0.150   3.357   7.960  3.9755  0.3915  1.1982
  192POPC  C21422194  -0.271   3.544   7.986  0.8836  0.6522 -0.2672
  192POPC  H14R22195  -0.268   3.642   7.932 -0.6186  0.9663  0.1695
  192POPC  H14S22196  -0.247   3.548   8.094  2.3642  0.7323 -0.5756
  192POPC  C21522197  -0.403   3.468   7.964 -0.7284 -0.3559  1.0159
  192POPC  H15R22198  -0.401   3.361   7.993 -2.9350 -0.5506  0.6289
  192POPC  H15S22199  -0.419   3.468   7.854 -0.9340 -0.3800  1.0446
  192POPC  C21622200  -0.515   3.521   8.050 -0.1855 -1.1168  0.4276
  192POPC  H16R22201  -0.498   3.631   8.057 -4.0915 -0.0098 -2.8749
  192POPC  H16S22202  -0.517   3.486   8.155  1.1731 -1.5550  0.3134
  192POPC  C21722203  -0.649   3.469   8.000  0.3140 -0.7164 -0.3477
  192POPC  H17R22204  -0.641   3.364   7.965 -0.4966  0.0670 -3.1397
  192POPC  H17S22205  -0.669   3.528   7.908 -1.1197 -1.9494 -0.8682
  192POPC  C21822206  -0.760   3.486   8.100  0.2579 -0.0292  0.1131
  192POPC  H18R22207  -0.771   3.590   8.138 -2.2243 -0.4162  0.6446
  192POPC  H18S22208  -0.740   3.426   8.191 -2.5170 -0.1162  0.7497
  192POPC  H18T22209  -0.858   3.452   8.060  1.2476 -2.2888 -0.5288
  192POPC   C3322210   0.647   3.619   7.300  0.4956 -0.1089 -0.2510
  192POPC   H3X22211   0.579   3.576   7.224  0.6181 -0.4796 -0.1508
  192POPC   H3Y22212   0.608   3.722   7.314  0.6841 -0.3690  3.1496
  192POPC   C3422213   0.651   3.537   7.433 -0.1368  0.4111 -0.2421
  192POPC   H4X22214   0.728   3.575   7.504  1.2662 -1.1584 -0.8684
  192POPC   H4Y22215   0.684   3.434   7.409 -3.6190 -0.9387  0.0959
  192POPC   C3522216   0.509   3.511   7.493 -0.4657  0.1555  0.2204
  192POPC   H5X22217   0.444   3.461   7.419 -1.1788  1.6542 -0.1925
  192POPC   H5Y22218   0.472   3.607   7.536  1.0533  0.5790  0.6530
  192POPC   C3622219   0.523   3.408   7.609  0.8112 -0.6202 -0.5069
  192POPC   H6X22220   0.601   3.438   7.682  0.4337 -0.2694 -0.2503
  192POPC   H6Y22221   0.560   3.313   7.563 -0.4546  0.0212 -3.0169
  192POPC   C3722222   0.387   3.399   7.686 -0.9685  0.3439  0.1038
  192POPC   H7X22223   0.315   3.345   7.620 -0.2821 -3.3531  2.1330
  192POPC   H7Y22224   0.344   3.501   7.699 -1.8081 -0.2042  1.8580
  192POPC   C3822225   0.394   3.340   7.826  0.0815  0.1470  0.4776
  192POPC   H8X22226   0.469   3.400   7.882  0.4750  0.2947 -0.1990
  192POPC   H8Y22227   0.426   3.234   7.825 -2.0915 -0.6054  1.8243
  192POPC   C3922228   0.254   3.342   7.889 -0.1827  0.1835 -0.1424
  192POPC   H9X22229   0.183   3.279   7.832 -0.2688 -1.0453  1.2570
  192POPC   H9Y22230   0.207   3.442   7.893 -0.5304  0.0019  0.4435
  192POPC  C31022231   0.261   3.296   8.034 -0.7633 -0.4099  0.6803
  192POPC  H10X22232   0.244   3.386   8.097 -0.2663 -0.7813  1.3590
  192POPC  H10Y22233   0.349   3.239   8.071 -0.0012  0.0594 -0.3634
  192POPC  C31122234   0.141   3.205   8.068  0.5134  0.3223 -0.2674
  192POPC  H11X22235   0.145   3.104   8.021 -2.4132 -0.9460  1.8629
  192POPC  H11Y22236   0.042   3.254   8.057 -0.0331  0.0084  2.4790
  192POPC  C31222237   0.137   3.150   8.218  0.4125 -0.1108  0.2421
  192POPC  H12X22238   0.047   3.087   8.228  0.0813 -0.1617 -2.3699
  192POPC  H12Y22239   0.120   3.240   8.281 -2.1706  1.2500 -2.1711
  192POPC  C31322240   0.252   3.060   8.266  0.2939 -0.8449  0.3694
  192POPC  H13X22241   0.344   3.122   8.265 -0.6672  0.7598  2.3868
  192POPC  H13Y22242   0.259   2.966   8.209 -2.8349  0.2300 -2.0513
  192POPC  C31422243   0.234   3.020   8.415  0.9279 -0.1667  0.2614
  192POPC  H14X22244   0.153   2.946   8.435  0.2988  0.5038  0.2413
  192POPC  H14Y22245   0.199   3.112   8.466 -0.4029 -0.8151  0.5648
  192POPC  C31522246   0.360   2.964   8.481  0.6750  0.6179  0.2026
  192POPC  H15X22247   0.443   3.034   8.453 -0.3845  0.8696 -2.6908
  192POPC  H15Y22248   0.376   2.857   8.455  0.5459  0.3071  1.3485
  192POPC  C31622249   0.365   2.972   8.631  0.8221  0.3485 -0.2984
  192POPC  H16X22250   0.292   2.902   8.677  3.1979 -1.6598  0.6203
  192POPC  H16Y22251   0.345   3.076   8.664 -1.4277  0.3984 -1.5869
  192POPC  H16Z22252   0.462   2.936   8.671  0.9489  2.0237  0.9952
  193SOD    SOD22253   3.318   6.658   3.452  0.4236 -0.6358  0.4042
  194SOD    SOD22254   5.943   4.690  11.662 -0.1689  0.3107  0.1444
  195SOD    SOD22255   3.290   4.858  11.616 -0.2471  0.1305  0.0091
  196SOD    SOD22256   1.134   0.003  13.673  0.2057  0.4268  0.3951
  197SOD    SOD22257   5.842   6.281   4.993  0.2439  0.0159 -0.2524
  198SOD    SOD22258   3.502   5.399   2.478  0.3849 -0.6128 -0.1228
  199SOD    SOD22259   4.561   3.398  10.865 -0.2292 -0.3677  0.4402
  200SOD    SOD22260   4.759   3.378   1.017 -0.0613  0.2878 -0.0799
  201SOD    SOD22261   2.750   6.623   3.649  0.1147  0.2075  0.3429
  202SOD    SOD22262   1.672   2.096   5.362  0.6204  0.2108 -0.2942
  203SOD    SOD22263   0.991   2.674   4.077  0.3865 -0.5474 -0.4372
  204SOD    SOD22264   0.472   2.923   0.679 -0.3228 -0.2104  0.3828
  205SOD    SOD22265   3.323   4.522  14.797  0.5904 -0.8604 -0.2282
  206SOD    SOD22266   5.917   2.607   6.048 -0.1124  0.2608  0.2880
  207SOD    SOD22267   5.432   3.016   5.850 -0.4421  0.7873  0.0949
  208SOD    SOD22268   4.346   4.330  14.200 -0.2758  0.1131 -0.1655
  209SOD    SOD22269   2.160   5.479   4.190  0.5881  0.1552  0.1286
  210SOD    SOD22270   0.047   5.653  15.427 -0.5477  0.5106 -0.3202
  211SOD    SOD22271   3.147   2.790  15.721  0.2071 -0.6195  0.0778
  212SOD    SOD22272   0.943   4.403  15.663  0.1264  0.1848 -0.2025
  213SOD    SOD22273   2.976   2.042  12.196  0.3553  0.3323 -0.3887
  214SOD    SOD22274   1.428   5.436   3.941 -0.3149  0.0749  0.1204
  215SOD    SOD22275   1.559   4.824   0.568  0.2848  0.3851 -0.3619
  216SOD    SOD22276   2.831   5.773  11.470 -0.2175  0.1000  0.1406
  217SOD    SOD22277   2.423   3.780   4.441 -0.3626  0.3329  0.5712
  218SOD    SOD22278   2.287   3.568   0.954 -0.3231  0.3678  0.2696
  219SOD    SOD22279   1.544   0.223  10.855 -0.2656  0.0633 -0.1339
  220SOD    SOD22280   4.366   5.625   0.067  0.0288  0.1167 -0.0265
  221SOD    SOD22281   4.775   3.458  16.616  0.2251  0.0787 -0.2405
  222SOD    SOD22282   0.071   2.210   2.663  0.3556  0.0808 -0.1289
  223SOD    SOD22283   6.754   6.424   0.213  0.2779  0.0048 -0.4939
  224SOD    SOD22284   2.322   0.693  15.565  0.2296  0.1227 -0.0604
  225SOD    SOD22285   6.756   5.657  11.783 -0.4488 -0.0468 -0.3383
  226SOD    SOD22286   2.595   3.831  15.372 -0.2552 -0.2274  0.2571
  227SOD    SOD22287   3.224   0.675  15.291  0.3522  0.3982  0.2695
  228SOD    SOD22288   0.500   0.655   0.731 -0.3748 -0.0381 -0.0625
  229SOD    SOD22289   2.585   5.949   6.589  0.3992 -0.2288 -0.1056
  230SOD    SOD22290   5.183   1.955  12.592 -0.3740  0.4541 -0.1300
  231SOD    SOD22291   6.504   5.897   6.124  0.1706  0.0671  0.3111
  232SOD    SOD22292   3.832   1.590   5.297 -0.1341 -0.1181 -0.1205
  233SOD    SOD22293   2.826   6.728   0.184  0.3283  0.1353  0.7958
  234SOD    SOD22294   5.714   2.446  14.299  0.0562 -0.2046  0.1127
  235SOD    SOD22295   1.501   3.781   5.055 -0.1979  0.0116  0.1745
  236SOD    SOD22296   3.387   1.759  14.943 -0.1504  0.5449  0.2173
  237SOD    SOD22297   1.882   1.665  11.627  0.2088 -0.0131 -0.2114
  238SOD    SOD22298   5.679   4.813  16.811  0.1173  0.6494 -0.2414
  239SOD    SOD22299   1.743   0.799   5.611 -0.4529 -0.0832  0.0753
  240SOD    SOD22300   5.739   6.424   0.429  0.1086  0.3413  0.4824
  241SOD    SOD22301   4.290   5.341   4.180 -0.5832  0.3493 -0.1116
  242SOD    SOD22302   0.074   0.085   1.982  0.5167  0.4449 -0.1689
  243SOD    SOD22303   1.593   6.308  12.551 -0.3449  0.2450  0.3791
  244SOD    SOD22304   5.169   0.542  10.927  0.3665  0.2953  0.0279
  245SOD    SOD22305   4.731   1.334   2.216 -0.2909  0.2524  0.0254
  246SOD    SOD22306   5.218   5.578   0.446  0.3154  0.0964  0.4709
  247SOD    SOD22307   4.223   2.223   4.909 -0.3394 -0.4062 -0.0513
  248SOD    SOD22308   0.780   1.590   4.724 -0.0948  0.3903  0.8732
  249SOD    SOD22309   1.825   4.058   6.465 -0.0816  0.2809 -0.1772
  250SOD    SOD22310   3.621   5.363  11.437 -0.0656 -0.1406 -0.0852
  251SOD    SOD22311   6.451   0.608  15.188 -0.3373  0.1816 -0.1338
  252SOD    SOD22312   4.920   5.690   2.256 -0.0121 -0.3527  0.5968
  253SOD    SOD22313   3.055   3.540   6.436  0.2179  0.4363 -0.0887
  254SOD    SOD22314   3.187   5.913  14.019  0.0918  0.2895 -0.0977
  255SOD    SOD22315   1.923   6.385  11.802 -0.1891  0.1595 -0.2462
  256SOD    SOD22316   0.261   0.848  14.688  0.4009  0.0535 -0.0750
  257SOD    SOD22317   3.265   3.509  13.854  0.1429 -0.3957  0.3481
  258SOD    SOD22318   5.152   3.798  16.936  0.3172  0.1021 -0.2378
  259SOD    SOD22319   6.615   6.060   4.604 -0.2772 -0.7486  0.1311
  260SOD    SOD22320   0.539   4.382  10.469  0.1247  0.1864 -0.2156
  261SOD    SOD22321   2.151   5.807   6.038 -0.4340  0.3215 -0.2736
  262SOD    SOD22322   4.318   6.594   4.714  0.1833  0.2650 -0.2397
  263SOD    SOD22323   0.445   2.071  17.018 -0.0863 -0.1117 -0.0414
  264SOD    SOD22324   2.128   1.930  17.182  0.0648  0.3499  0.3920
  265SOD    SOD22325   0.413   6.560  11.106 -0.2422 -0.3542  0.4828
  266SOD    SOD22326   5.436   4.103   4.742 -0.1553 -0.2350  0.6551
  267SOD    SOD22327   5.929   0.825  12.312  0.1569 -0.0335 -0.2963
  268SOD    SOD22328   5.031   2.688  14.053 -0.2055 -0.3948  0.0694
  269SOD    SOD22329   0.991   2.793  13.933 -0.2678  0.2436 -0.2858
  270CLA    CLA22330   2.543   1.251   5.271 -0.0777 -0.3947  0.1573
  271CLA    CLA22331   5.666   3.622   2.353 -0.0209 -0.0984 -0.5450
  272CLA    CLA22332   5.000   3.944  14.959  0.0345  0.6633 -0.0989
  273CLA    CLA22333   1.633   5.998   2.972  0.1826 -0.5330  0.2265
  274CLA    CLA22334   6.557   5.670   2.237  0.2412  0.0459 -0.0707
  275CLA    CLA22335   1.229   1.220   5.356 -0.1298 -0.0423  0.3081
  276CLA    CLA22336   3.797   1.576   3.877  0.1069  0.2265  0.1348
  277CLA    CLA22337   2.746   2.033  17.191 -0.1640  0.0744  0.0850
  278CLA    CLA22338   2.235   0.389   0.662  0.0174  0.0554  0.1970
  279CLA    CLA22339   0.906   6.494   3.507 -0.1651 -0.0872  0.0292
  280CLA    CLA22340   1.175   5.990  16.998  0.2509 -0.0641  0.1279
  281CLA    CLA22341   0.230   6.679  13.724  0.7640  0.1446  0.3571
  282CLA    CLA22342   1.882   6.080   4.635  0.1335  0.5283  0.3249
  283CLA    CLA22343   2.935   3.129   1.131 -0.1401  0.5557  0.6990
  284CLA    CLA22344   0.292   1.801   2.668  0.2541  0.1526  0.1880
  285CLA    CLA22345   1.684   4.077   1.002  0.1445  0.0089 -0.1146
  286CLA    CLA22346   3.300   2.328   4.149 -0.1481  0.1491 -0.0818
  287CLA    CLA22347   4.112   4.820   3.917  0.4313  0.4689  0.1461
  288CLA    CLA22348   0.566   6.373   1.826  0.4265 -0.0503 -0.0463
  289CLA    CLA22349   6.326   0.207  17.282 -0.1591 -0.1329  0.0648
  290CLA    CLA22350   4.997   4.782   0.024  0.0932  0.1890 -0.0496
  291CLA    CLA22351   2.611   3.311   1.583  0.3071 -0.3927  0.2055
  292CLA    CLA22352   3.170   0.290   0.085  0.2249  0.0037  0.0686
  293CLA    CLA22353   5.691   3.435  12.334 -0.1227  0.0193 -0.1426
  294CLA    CLA22354   4.976   1.658  13.254 -0.4931 -0.3650  0.0170
  295CLA    CLA22355   3.108   6.460  13.232  0.2474  0.3151 -0.1796
  296CLA    CLA22356   1.116   4.566  14.988  0.2472 -0.3540 -0.3331
  297CLA    CLA22357   1.307   2.480  16.525  0.0800 -0.1274  0.2665
  298CLA    CLA22358   2.307   5.386  13.657  0.1189 -0.2869  0.1998
  299CLA    CLA22359   3.072   6.471   4.532 -0.0089  0.1271 -0.4887
  300CLA    CLA22360   1.447   1.622  12.048  0.1687  0.0390  0.0299
  301CLA    CLA22361   4.911   6.681   4.446 -0.3853 -0.1961 -0.1622
  302CLA    CLA22362   2.372   6.037  15.162 -0.0763  0.1014 -0.0695
  303CLA    CLA22363   4.351   5.434   1.473  0.2928  0.1679  0.0329
  304CLA    CLA22364   0.217   5.321  13.982 -0.3634  0.0173  0.4224
  305CLA    CLA22365   0.826   3.819  16.030 -0.0044  0.3379  0.2926
  306CLA    CLA22366   0.598   4.736   5.353 -0.0640  0.1376  0.2840
  307CLA    CLA22367   5.194   4.458   1.193 -0.1227 -0.2568  0.0923
  308CLA    CLA22368   4.188   5.624  17.267  0.1592  0.5500 -0.3231
  309CLA    CLA22369   6.398   2.675   1.464  0.0098 -0.0157  0.0458
  310CLA    CLA22370   0.161   2.580   3.910 -0.1899  0.1477  0.4545
  311CLA    CLA22371   2.303   0.584  15.330 -0.3824 -0.2065 -0.1697
  312CLA    CLA22372   6.124   6.734  15.047  0.0845 -0.0817 -0.4779
  313CLA    CLA22373   1.922   1.180   3.734  0.1681 -0.3565 -0.3384
  314CLA    CLA22374   3.541   6.153   3.390  0.4784 -0.4084  0.4636
  315CLA    CLA22375   5.774   2.903  12.156  0.3873  0.1921 -0.3325
  316CLA    CLA22376   5.513   4.744  14.276 -0.1784  0.3871 -0.0954
  317CLA    CLA22377   0.975   3.584  12.699  0.2486  0.0823  0.0641
  318CLA    CLA22378   0.656   5.585  15.742 -0.3393  0.1574  0.4009
  319CLA    CLA22379   1.926   5.293  11.493  0.4453  0.1218 -0.2507
  320CLA    CLA22380   4.526   4.323   0.003  0.1787  0.0862 -0.1220
  321CLA    CLA22381   2.185   3.432  14.232 -0.3323  0.3510  0.6183
  322CLA    CLA22382   4.790   5.232  14.761 -0.1190  0.2700 -0.4626
  323TIP3   OH222383   2.392   5.773   6.093  1.1117 -0.2363 -0.2816
  323TIP3    H122384   2.454   5.799   6.025 -1.0500 -0.2346 -2.4053
  323TIP3    H222385   2.441   5.710   6.147  3.9700  2.2620  0.3158
  324TIP3   OH222386   5.087   4.582  11.317 -0.1646  0.0592 -0.1523
  324TIP3    H122387   5.088   4.531  11.397  0.1377  1.7273  0.9577
  324TIP3    H222388   5.006   4.633  11.321  0.0872  0.5162 -0.6525
  325TIP3   OH222389   4.339   2.877   2.860  0.1672  0.6304  0.4551
  325TIP3    H122390   4.423   2.890   2.902  1.0726  0.4798 -1.2347
  325TIP3    H222391   4.324   2.957   2.809  0.5868 -0.3939 -1.3555
  326TIP3   OH222392   2.165   5.286   5.230  0.6881  0.4151 -0.0795
  326TIP3    H122393   2.232   5.351   5.253  1.7763 -0.4384 -0.7495
  326TIP3    H222394   2.214   5.208   5.206 -0.6182 -0.8933  1.2834
  327TIP3   OH222395   6.673   5.983   2.318 -0.7451 -0.1051  0.6634
  327TIP3    H122396   6.750   5.997   2.264 -0.8131 -1.0588  0.2999
  327TIP3    H222397   6.643   5.895   2.295 -1.1574 -0.2709  1.7730
  328TIP3   OH222398   5.935   2.277  12.707  0.0369  0.3347  0.3702
  328TIP3    H122399   5.940   2.372  12.693  0.9399  0.4591  1.3796
  328TIP3    H222400   6.007   2.258  12.767 -0.7290 -0.8523  0.9476
  329TIP3   OH222401   6.302   1.605   1.800 -0.6259 -0.9030  0.1575
  329TIP3    H122402   6.254   1.604   1.883  1.3678  0.1299  1.4084
  329TIP3    H222403   6.348   1.521   1.798  0.1860 -0.4777  0.6563
  330TIP3   OH222404   5.301   0.861  13.459  0.2823  0.0990 -0.5307
  330TIP3    H122405   5.381   0.881  13.411  2.3417 -1.5876  1.9934
  330TIP3    H222406   5.251   0.806  13.398  1.1649  0.8272 -1.9877
  331TIP3   OH222407   0.978   6.194  15.168 -0.2762  0.3432 -0.1306
  331TIP3    H122408   0.902   6.187  15.110 -0.4066 -2.0373  0.2010
  331TIP3    H222409   1.045   6.139  15.127 -0.4690 -1.6609  2.0194
  332TIP3   OH222410   2.366   0.549   4.237 -0.1559 -0.1517 -0.9575
  332TIP3    H122411   2.436   0.493   4.202  0.3988 -0.4829  0.5691
  332TIP3    H222412   2.374   0.631   4.189  0.3285 -0.7055 -1.8454
  333TIP3   OH222413   6.085   1.771  13.357  0.5859  0.2167  0.3702
  333TIP3    H122414   6.001   1.738  13.327  0.4136  0.6654  0.3441
  333TIP3    H222415   6.150   1.713  13.317  0.4545  1.6133 -2.1034
  334TIP3   OH222416   1.053   6.229   2.205  0.1642  0.1001  0.1736
  334TIP3    H122417   1.067   6.306   2.259 -0.3571  0.3381 -0.0280
  334TIP3    H222418   1.141   6.202   2.178  0.6691 -1.3843  2.9772
  335TIP3   OH222419   2.832   1.366  11.404  0.1855 -0.0119 -0.1795
  335TIP3    H122420   2.911   1.342  11.357  1.4145  0.5386  1.4945
  335TIP3    H222421   2.831   1.462  11.403 -0.6101 -0.0107 -0.3951
  336TIP3   OH222422   4.138   2.617   5.105 -0.1452  0.0704 -0.0171
  336TIP3    H122423   4.099   2.542   5.150 -0.3468  0.5677  0.6424
  336TIP3    H222424   4.232   2.605   5.117 -0.1962  0.1558  0.4589
  337TIP3   OH222425   3.827   1.912   3.086  0.1571 -0.0166  0.0484
  337TIP3    H122426   3.794   1.966   3.158 -0.2150  0.6620 -0.6220
  337TIP3    H222427   3.811   1.822   3.115  0.8813  0.2104  1.2216
  338TIP3   OH222428   3.306   0.886  13.449  0.1160 -0.2900 -0.3986
  338TIP3    H122429   3.236   0.923  13.394 -0.3084  0.0117  0.3173
  338TIP3    H222430   3.262   0.866  13.532  0.3057 -2.5726 -0.7993
  339TIP3   OH222431   1.323   3.572  13.039 -0.0958  0.5081  0.1053
  339TIP3    H122432   1.369   3.564  13.122 -1.5201  0.6868  0.9349
  339TIP3    H222433   1.296   3.663  13.034  0.3043  0.5867 -0.7334
  340TIP3   OH222434   2.707   0.899  15.837 -0.1930 -0.1295 -0.7052
  340TIP3    H122435   2.715   0.991  15.814  0.8239  0.2037  0.8836
  340TIP3    H222436   2.764   0.887  15.913  0.1729 -2.1991 -1.2186
  341TIP3   OH222437   4.099   5.446   1.852 -0.0895 -0.2333  0.6327
  341TIP3    H122438   4.099   5.538   1.827 -1.2729  0.0039  1.3821
  341TIP3    H222439   4.169   5.438   1.917  2.6031 -0.7296 -2.1258
  342TIP3   OH222440   2.506   3.311  11.409 -0.5870  0.0062 -0.0487
  342TIP3    H122441   2.534   3.383  11.352 -0.2972  0.9007  1.1791
  342TIP3    H222442   2.561   3.237  11.383 -0.3559  0.4306 -0.8160
  343TIP3   OH222443   4.309   3.900  15.797 -0.4833  0.5905  0.5885
  343TIP3    H122444   4.302   3.994  15.781 -0.5714  0.3493 -0.9733
  343TIP3    H222445   4.218   3.869  15.793 -0.2985  0.1405 -1.2218
  344TIP3   OH222446   0.652   6.438   5.282  0.2335 -0.1238 -0.2171
  344TIP3    H122447   0.613   6.391   5.356  1.1911 -0.5364  0.0415
  344TIP3    H222448   0.723   6.490   5.321 -1.5881  2.6184 -0.2814
  345TIP3   OH222449   2.307   6.333  16.280 -0.1862 -0.3962 -0.4500
  345TIP3    H122450   2.253   6.278  16.337 -0.0197 -0.2517 -0.1520
  345TIP3    H222451   2.339   6.273  16.212  0.0735 -0.6860 -0.0716
  346TIP3   OH222452   1.194   6.739   4.401 -0.0199 -0.1982  0.3551
  346TIP3    H122453   1.157   6.765   4.317 -0.1622 -3.3153 -0.6963
  346TIP3    H222454   1.200   6.820   4.451 -0.1233  1.7756 -2.5545
  347TIP3   OH222455   5.779   5.602   3.567  0.3755  0.3130 -0.2201
  347TIP3    H122456   5.832   5.678   3.544 -0.6922  1.2449  0.3093
  347TIP3    H222457   5.689   5.629   3.550  0.0139 -1.0501 -0.5876
  348TIP3   OH222458   2.711   5.248   2.714 -0.1284 -0.1953 -0.4124
  348TIP3    H122459   2.666   5.171   2.748  0.3512 -0.6941 -0.9049
  348TIP3    H222460   2.699   5.244   2.620  0.3047  0.0860 -0.4821
  349TIP3   OH222461   3.585   5.549  12.589  0.4506  0.0638  0.5534
  349TIP3    H122462   3.640   5.627  12.598  2.5200 -1.5695  3.1445
  349TIP3    H222463   3.510   5.566  12.646  0.4798  0.4637  0.4790
  350TIP3   OH222464   2.158   2.296   6.028  0.1298 -0.0682 -0.4629
  350TIP3    H122465   2.078   2.277   6.077  0.3432  0.5455  0.1360
  350TIP3    H222466   2.165   2.391   6.028  0.6165 -0.0986 -0.9068
  351TIP3   OH222467   2.147   4.245   0.191  0.2029  0.0241 -0.4456
  351TIP3    H122468   2.095   4.210   0.119  0.2747  1.9163 -1.4555
  351TIP3    H222469   2.195   4.169   0.224 -2.0832 -1.4911 -0.3857
  352TIP3   OH222470   1.427   1.394   3.153 -0.3673  0.1921 -0.1648
  352TIP3    H122471   1.490   1.363   3.087  1.0683 -1.1508  1.7341
  352TIP3    H222472   1.343   1.358   3.124  0.6363 -2.4427 -0.0541
  353TIP3   OH222473   6.752   0.128   6.378  0.1047 -0.1141 -0.1489
  353TIP3    H122474   6.832   0.114   6.429  0.2609 -2.0975 -0.8519
  353TIP3    H222475   6.681   0.110   6.439  0.2866 -1.6644 -0.3304
  354TIP3   OH222476   5.962   1.166   2.546 -0.5131 -0.2168  0.2723
  354TIP3    H122477   5.936   1.242   2.598 -0.8056 -0.3545  0.3305
  354TIP3    H222478   5.945   1.090   2.603 -0.1834 -0.3229  0.2310
  355TIP3   OH222479   3.930   2.513   5.988  0.4997  0.0547 -0.4831
  355TIP3    H122480   3.878   2.447   6.036 -1.8113  1.8924 -0.2783
  355TIP3    H222481   3.894   2.512   5.900  1.0806  0.4395 -0.7268
  356TIP3   OH222482   5.598   3.607   5.022  0.1085  0.2089  0.1375
  356TIP3    H122483   5.542   3.572   5.091  0.9011  0.5939  1.0065
  356TIP3    H222484   5.667   3.654   5.069 -0.3861  2.1242 -0.9397
  357TIP3   OH222485   3.081   1.135   0.657 -0.5741  0.2753  0.4213
  357TIP3    H122486   3.054   1.060   0.603  0.6870  1.7759 -2.5149
  357TIP3    H222487   3.020   1.204   0.633  0.1676  1.0553  0.7504
  358TIP3   OH222488   2.857   3.278  13.896 -0.5828 -0.3189  0.1305
  358TIP3    H122489   2.840   3.207  13.958  0.3941 -0.9928 -0.3459
  358TIP3    H222490   2.832   3.357  13.943 -0.6956 -0.8916  1.0627
  359TIP3   OH222491   3.312   0.572  12.556  0.1707  0.2838 -0.3442
  359TIP3    H122492   3.224   0.581  12.591  0.4277 -0.3762  0.5017
  359TIP3    H222493   3.329   0.655  12.511 -0.4999  0.8103  0.3524
  360TIP3   OH222494   0.200   0.313   3.625  0.3361  0.0679 -0.0241
  360TIP3    H122495   0.239   0.225   3.619 -0.0606 -0.0880 -0.3231
  360TIP3    H222496   0.164   0.329   3.538  1.1646  0.8854 -0.2212
  361TIP3   OH222497   2.772   4.950   0.501  0.1272 -0.2228 -0.1238
  361TIP3    H122498   2.774   5.030   0.449 -0.0967 -1.0657 -1.4803
  361TIP3    H222499   2.829   4.889   0.454  0.7296 -0.7017  1.1821
  362TIP3   OH222500   0.772   2.523  10.627 -0.6288  0.2742 -0.4635
  362TIP3    H122501   0.691   2.491  10.667  0.5115 -2.3158 -0.0111
  362TIP3    H222502   0.771   2.618  10.642 -3.4944  0.3191 -0.4106
  363TIP3   OH222503   1.776   3.744   0.082  0.4330  0.2216  0.2213
  363TIP3    H122504   1.864   3.707   0.073  0.7525  1.1489 -0.8191
  363TIP3    H222505   1.791   3.836   0.106 -0.1411  0.9016 -1.7816
  364TIP3   OH222506   1.603   0.281   1.821 -0.1552 -0.2059  0.0039
  364TIP3    H122507   1.604   0.235   1.905  1.2952  0.6303  0.4676
  364TIP3    H222508   1.692   0.270   1.786 -0.5138  0.1104 -1.0671
  365TIP3   OH222509   2.136   0.510   2.957 -0.1159  0.3213 -0.0561
  365TIP3    H122510   2.143   0.522   2.862  0.6868  0.8203  0.0628
  365TIP3    H222511   2.051   0.548   2.980  0.1774  1.2088 -0.4149
  366TIP3   OH222512   4.194   1.408   5.732  0.1194 -0.8444 -0.4217
  366TIP3    H122513   4.230   1.482   5.684 -1.2655 -1.8496 -3.2263
  366TIP3    H222514   4.104   1.434   5.752 -0.0365 -1.3561 -0.4531
  367TIP3   OH222515   1.829   0.342  14.393 -0.6157 -0.1915  0.5263
  367TIP3    H122516   1.842   0.290  14.313  0.2499 -0.6400  0.9468
  367TIP3    H222517   1.824   0.432  14.363 -0.1966 -0.3494 -0.0251
  368TIP3   OH222518   2.396   1.304  10.621 -0.2428  0.3023 -0.0818
  368TIP3    H122519   2.350   1.231  10.580  1.3348  0.8069 -3.0127
  368TIP3    H222520   2.479   1.267  10.650  0.4432  0.7987 -1.3257
  369TIP3   OH222521   6.174   0.597   1.539 -0.8456  0.1751  0.0292
  369TIP3    H122522   6.222   0.666   1.584  0.0967 -1.0295  0.9364
  369TIP3    H222523   6.107   0.569   1.603  0.5372 -1.5842  0.7977
  370TIP3   OH222524   5.692   2.462  12.184 -1.4815 -0.3454  0.2465
  370TIP3    H122525   5.768   2.483  12.238 -0.3322  0.7669 -1.6866
  370TIP3    H222526   5.706   2.371  12.157 -0.4814  0.0330 -0.5797
  371TIP3   OH222527   1.996   1.344  12.622 -0.0825  0.2232  0.2990
  371TIP3    H122528   2.033   1.286  12.556  2.1584  2.7868 -0.8901
  371TIP3    H222529   1.903   1.320  12.626  0.5610 -2.8759 -0.5948
  372TIP3   OH222530   1.481   1.193   3.406  0.2850 -0.0524 -0.3180
  372TIP3    H122531   1.443   1.107   3.387 -1.2188  0.5611 -0.2395
  372TIP3    H222532   1.527   1.217   3.325 -1.6545  0.2552 -1.4030
  373TIP3   OH222533   0.849   4.275   1.511  0.6883  0.3666 -0.3134
  373TIP3    H122534   0.862   4.236   1.425 -1.4702  1.8487 -1.4017
  373TIP3    H222535   0.856   4.370   1.496 -2.6146  0.8605  0.4421
  374TIP3   OH222536   4.850   3.806  14.478 -0.2894  0.5856 -0.0387
  374TIP3    H122537   4.846   3.716  14.510  0.7001  0.7037  0.4522
  374TIP3    H222538   4.802   3.804  14.395 -3.1227  0.3489  1.5104
  375TIP3   OH222539   1.014   2.973  15.103 -0.3320  0.1257 -1.0175
  375TIP3    H122540   1.030   2.970  15.197  2.5776  0.1517 -1.4029
  375TIP3    H222541   0.925   3.007  15.094 -1.8532 -2.7220  1.7104
  376TIP3   OH222542   4.603   4.647  12.172  0.3957 -0.5830  0.8860
  376TIP3    H122543   4.585   4.715  12.107  0.4155 -1.0266  0.4087
  376TIP3    H222544   4.681   4.603  12.139  0.6569 -0.5435  1.4329
  377TIP3   OH222545   5.851   2.963  14.483  0.3166 -0.7568 -0.4763
  377TIP3    H122546   5.769   3.007  14.507 -0.2105 -0.2755 -2.9014
  377TIP3    H222547   5.918   3.012  14.530 -0.7562 -1.3265  1.7780
  378TIP3   OH222548   2.040   2.328   3.564 -0.4038 -0.1886  0.1930
  378TIP3    H122549   2.020   2.273   3.488 -2.2916 -1.8183  1.7616
  378TIP3    H222550   1.989   2.408   3.549  0.8689  0.4171 -1.1874
  379TIP3   OH222551   3.539   2.601   2.324  0.4360  0.8876  0.4913
  379TIP3    H122552   3.482   2.540   2.370 -0.8593  1.9215  0.3114
  379TIP3    H222553   3.531   2.683   2.372 -0.4085  1.8051 -1.1377
  380TIP3   OH222554   5.045   2.594   3.495 -0.0333  0.0617 -0.2374
  380TIP3    H122555   5.001   2.678   3.483  0.4780  0.5162  0.8733
  380TIP3    H222556   4.973   2.531   3.507 -0.4045  0.5151 -0.0563
  381TIP3   OH222557   1.054   5.439  16.053 -0.0689  0.5035  0.5346
  381TIP3    H122558   0.991   5.371  16.078 -0.5730  1.0639  0.8389
  381TIP3    H222559   1.065   5.428  15.959  3.5911 -3.1089  1.1348
  382TIP3   OH222560   6.265   1.620  13.239  0.0557  0.1330 -0.1994
  382TIP3    H122561   6.323   1.548  13.262  0.7000  0.3854 -0.9995
  382TIP3    H222562   6.263   1.619  13.143 -0.7697  0.5177 -0.1965
  383TIP3   OH222563   2.556   5.473   2.066 -0.1085 -0.4633  0.0015
  383TIP3    H122564   2.529   5.476   1.974 -2.2481 -0.8752  0.5584
  383TIP3    H222565   2.504   5.542   2.109 -0.0826 -1.1073  1.1104
  384TIP3   OH222566   2.802   0.324  11.775 -0.2114 -0.1420 -0.0421
  384TIP3    H122567   2.776   0.296  11.687  0.0427  1.3006 -0.6046
  384TIP3    H222568   2.772   0.254  11.832 -1.9337 -0.3090 -1.0862
  385TIP3   OH222569   4.219   6.488  15.958 -0.5358  0.3548 -0.0348
  385TIP3    H122570   4.213   6.581  15.940  0.9502  0.0472 -2.6867
  385TIP3    H222571   4.163   6.447  15.892 -0.8536 -0.6481  0.8355
  386TIP3   OH222572   4.188   3.675  16.647  0.0135  0.9066 -0.5847
  386TIP3    H122573   4.198   3.654  16.740  1.2859  2.9090 -0.1908
  386TIP3    H222574   4.214   3.767  16.641  0.0243  0.8080 -2.9482
  387TIP3   OH222575   0.895   4.410  16.789  0.3893  0.0439 -0.3450
  387TIP3    H122576   0.934   4.401  16.702  0.8886 -3.4683  0.1016
  387TIP3    H222577   0.919   4.330  16.835 -1.7530  0.7520  2.2914
  388TIP3   OH222578   6.745   5.899  14.092 -0.1805 -0.1081 -0.0724
  388TIP3    H122579   6.793   5.863  14.167  1.5019  0.5266 -0.7996
  388TIP3    H222580   6.653   5.883  14.113  0.1941  0.5232  2.3813
  389TIP3   OH222581   4.101   1.639  13.534 -0.0267  0.3148 -0.2090
  389TIP3    H122582   4.104   1.720  13.483 -1.5087  0.3607 -0.2524
  389TIP3    H222583   4.016   1.641  13.578  0.8216 -0.1631  1.5515
  390TIP3   OH222584   0.875   5.793  12.485 -0.3181  0.3833  0.2040
  390TIP3    H122585   0.941   5.725  12.492 -0.3069  0.5245  1.6180
  390TIP3    H222586   0.793   5.746  12.468 -0.1394  0.0938  0.1550
  391TIP3   OH222587   2.751   0.961   5.068 -0.1107 -0.8405  0.1256
  391TIP3    H122588   2.745   0.907   5.146 -0.8426 -0.5510  0.2759
  391TIP3    H222589   2.805   1.035   5.094 -1.8981  0.2301  0.9458
  392TIP3   OH222590   3.770   0.608   3.395 -0.0976  0.0983  0.0518
  392TIP3    H122591   3.755   0.702   3.383 -0.5778 -0.1004 -1.0573
  392TIP3    H222592   3.759   0.593   3.489  1.9529  1.4624  0.5654
  393TIP3   OH222593   6.157   2.203  13.587  0.5118 -0.2238 -0.2238
  393TIP3    H122594   6.247   2.169  13.588  1.1471  1.2360 -1.9551
  393TIP3    H222595   6.116   2.160  13.513  0.3139  0.3569 -0.4567
  394TIP3   OH222596   3.757   3.709  17.024  0.2980  0.4641 -0.5989
  394TIP3    H122597   3.708   3.644  16.973 -0.0276  0.0609  0.2032
  394TIP3    H222598   3.756   3.675  17.114 -0.4129  1.8736 -0.0342
  395TIP3   OH222599   0.552   1.447  13.332  0.1388  1.1360 -0.0717
  395TIP3    H122600   0.609   1.440  13.409 -1.1352 -0.1811  0.7936
  395TIP3    H222601   0.531   1.357  13.309 -2.4826  1.5838  0.3172
  396TIP3   OH222602   3.450   3.343  16.815  0.5650  0.4341 -0.0104
  396TIP3    H122603   3.438   3.279  16.745  0.7122 -0.3976  0.7112
  396TIP3    H222604   3.364   3.352  16.855  0.5014  0.8409 -0.2305
  397TIP3   OH222605   4.641   1.955   5.074  0.4960  0.3041  0.3919
  397TIP3    H122606   4.650   2.006   5.155 -1.8233 -0.1156  1.0019
  397TIP3    H222607   4.690   2.005   5.009  0.6551  1.7984  1.5844
  398TIP3   OH222608   0.857   2.482   4.542  0.4111 -0.3396 -0.1324
  398TIP3    H122609   0.805   2.454   4.467 -0.8997 -1.5579  1.1735
  398TIP3    H222610   0.924   2.414   4.552 -0.0633 -0.7423  0.4012
  399TIP3   OH222611   6.632   3.857  14.691  0.1235 -0.2002  0.3338
  399TIP3    H122612   6.611   3.777  14.643  1.0249  0.0825 -0.5686
  399TIP3    H222613   6.565   3.862  14.759  0.2227 -1.8744  0.6075
  400TIP3   OH222614   2.506   3.362  12.723  0.0096 -0.3713 -0.0011
  400TIP3    H122615   2.568   3.290  12.718  0.2760 -0.0852 -0.8681
  400TIP3    H222616   2.473   3.372  12.634 -2.0167 -1.1430  0.5934
  401TIP3   OH222617   3.427   2.032   3.845  0.4621  0.0990  0.8023
  401TIP3    H122618   3.465   1.944   3.841 -0.5573 -0.3148 -0.3630
  401TIP3    H222619   3.489   2.083   3.897  1.0768 -1.2996  1.4852
  402TIP3   OH222620   6.299   2.572   0.149  0.4514 -0.2832 -0.0962
  402TIP3    H122621   6.341   2.627   0.215  0.6095 -0.3675 -0.1243
  402TIP3    H222622   6.371   2.540   0.095  0.3355 -0.3169 -0.2320
  403TIP3   OH222623   1.646   5.565   3.772  0.2956  0.2585 -0.4089
  403TIP3    H122624   1.718   5.628   3.778  1.5031 -0.9558 -1.4573
  403TIP3    H222625   1.574   5.615   3.733  1.0239  1.1407 -0.6815
  404TIP3   OH222626   2.373   4.607   2.093 -0.6680 -0.3605  0.3394
  404TIP3    H122627   2.307   4.616   2.161 -0.1304 -1.3385  1.0177
  404TIP3    H222628   2.422   4.529   2.117 -0.6495 -0.9131 -1.3278
  405TIP3   OH222629   3.197   3.255  11.184 -0.4189 -0.4536 -0.7264
  405TIP3    H122630   3.213   3.161  11.187 -0.5505 -0.4625  1.0373
  405TIP3    H222631   3.101   3.263  11.181 -0.4861 -0.4157  0.6077
  406TIP3   OH222632   2.938   6.513   0.616 -0.9499  0.1791  0.8634
  406TIP3    H122633   2.875   6.441   0.614  0.1288 -0.7902 -0.7503
  406TIP3    H222634   2.974   6.516   0.528 -0.4505  2.2683  1.0866
  407TIP3   OH222635   2.060   5.501  16.978  0.0412  1.0386  0.1332
  407TIP3    H122636   2.005   5.542  16.911  1.2402 -0.4635 -1.8619
  407TIP3    H222637   2.018   5.416  16.994  0.8260  0.5824 -0.1720
  408TIP3   OH222638   2.829   0.240  12.671 -0.2464 -0.0502  0.2933
  408TIP3    H122639   2.813   0.287  12.753  1.3640  0.5358  0.3026
  408TIP3    H222640   2.920   0.259  12.650 -0.0896 -1.7048 -0.6786
  409TIP3   OH222641   4.909   5.052  10.630  0.2125 -0.1012 -0.0769
  409TIP3    H122642   4.988   5.099  10.603  0.0508 -0.5872 -1.4405
  409TIP3    H222643   4.846   5.120  10.651  0.4223  0.2989 -0.7222
  410TIP3   OH222644   5.885   1.772  14.949 -0.3082 -0.1811  0.7735
  410TIP3    H122645   5.878   1.708  14.877 -2.9767  0.7843  0.0413
  410TIP3    H222646   5.905   1.719  15.026 -0.1407 -1.5924 -0.1913
  411TIP3   OH222647   1.660   6.102   5.063 -0.0161 -0.0394  0.0588
  411TIP3    H122648   1.667   6.009   5.084 -0.0282 -0.6515 -2.3264
  411TIP3    H222649   1.747   6.126   5.032  0.0442  0.8333  0.8668
  412TIP3   OH222650   1.459   3.894   3.551  0.7852 -0.0129  0.6461
  412TIP3    H122651   1.535   3.846   3.582  0.8210  1.1228  2.4903
  412TIP3    H222652   1.389   3.829   3.547  1.3956 -0.6897  0.7351
  413TIP3   OH222653   0.585   2.415   4.019  0.4316 -0.0072  0.5719
  413TIP3    H122654   0.558   2.331   3.982  3.2371 -0.3207 -1.0339
  413TIP3    H222655   0.531   2.424   4.098 -0.9744 -2.6001  0.0423
  414TIP3   OH222656   6.709   5.925  15.065  0.0351  0.0601  0.1722
  414TIP3    H122657   6.755   6.007  15.047  0.8801 -0.5750 -0.6829
  414TIP3    H222658   6.643   5.919  14.996  0.7116 -0.5042 -0.4383
  415TIP3   OH222659   3.897   5.312  17.159 -0.1543  0.5221  0.2125
  415TIP3    H122660   3.933   5.269  17.082 -1.5289 -1.3242  0.5379
  415TIP3    H222661   3.969   5.312  17.223 -0.1836 -1.6694  0.3144
  416TIP3   OH222662   1.144   2.403   6.513 -0.2395  0.0828  0.4985
  416TIP3    H122663   1.160   2.364   6.598 -1.1513 -0.7128  0.3166
  416TIP3    H222664   1.232   2.417   6.477  0.1354 -0.8519  0.9964
  417TIP3   OH222665   4.424   3.175   1.515  0.1365  0.1741  0.2080
  417TIP3    H122666   4.355   3.118   1.550  0.1780  0.9901  1.6992
  417TIP3    H222667   4.380   3.232   1.453 -0.3413  0.0553  0.4365
  418TIP3   OH222668   3.135   0.815  16.756 -0.2974 -0.1809  0.2556
  418TIP3    H122669   3.181   0.815  16.840 -1.0089 -1.1240  0.6694
  418TIP3    H222670   3.172   0.740  16.708 -0.2583  0.0392 -0.0575
  419TIP3   OH222671   1.899   1.068   0.949  0.1682 -0.1694 -0.1582
  419TIP3    H122672   1.822   1.013   0.936 -0.6129  0.9682 -0.5394
  419TIP3    H222673   1.968   1.026   0.898 -0.0709 -1.4067  0.4789
  420TIP3   OH222674   4.277   1.543  16.827 -0.1026 -0.3877 -0.1495
  420TIP3    H122675   4.324   1.498  16.897 -0.5556  0.2217  0.5620
  420TIP3    H222676   4.344   1.568  16.764  0.3394 -0.7414  0.1852
  421TIP3   OH222677   1.374   0.206   1.076  0.1547 -0.0598  0.7983
  421TIP3    H122678   1.344   0.282   1.126 -0.1464 -0.0576  0.6164
  421TIP3    H222679   1.305   0.191   1.012  0.6808  0.1401  0.1706
  422TIP3   OH222680   3.024   4.467  13.673 -0.4182  0.5784  0.0816
  422TIP3    H122681   3.038   4.536  13.739 -0.4594  0.7230 -0.0619
  422TIP3    H222682   3.065   4.501  13.594  1.2347 -0.3501  0.4905
  423TIP3   OH222683   0.968   5.855  12.171  0.2982 -0.3066  0.0773
  423TIP3    H122684   0.955   5.766  12.203  1.5115 -0.5045  0.0483
  423TIP3    H222685   1.008   5.844  12.085  0.6452  0.2591  0.1611
  424TIP3   OH222686   0.236   3.463   4.765 -0.6422 -0.0886  0.1763
  424TIP3    H122687   0.267   3.374   4.751 -2.0026 -0.4619 -0.6393
  424TIP3    H222688   0.164   3.454   4.827 -1.5390  0.2769 -0.7853
  425TIP3   OH222689   3.782   0.147   5.030  0.1001  0.3857  0.0035
  425TIP3    H122690   3.746   0.193   5.105 -2.1606  0.2653 -0.9299
  425TIP3    H222691   3.811   0.217   4.971 -1.1822  0.5885 -0.4105
  426TIP3   OH222692   5.975   1.157  16.230  0.1780 -0.3764 -0.2490
  426TIP3    H122693   5.914   1.083  16.235 -0.3741  0.0659 -0.4043
  426TIP3    H222694   6.052   1.127  16.278 -0.7301 -0.3841  1.2638
  427TIP3   OH222695   6.126   0.039  10.677  0.0892 -0.4069  0.1108
  427TIP3    H122696   6.104  -0.048  10.643 -0.4239 -0.5343  0.7539
  427TIP3    H222697   6.222   0.042  10.674  0.1285 -1.1536  0.4770
  428TIP3   OH222698   4.022   4.255   4.066 -0.0650 -0.3100  0.2924
  428TIP3    H122699   3.979   4.217   4.142 -0.7127 -0.5374 -0.1746
  428TIP3    H222700   3.968   4.226   3.992  0.5359 -0.0706 -0.2451
  429TIP3   OH222701   2.855   6.234  12.840  0.0382  0.1849  0.2249
  429TIP3    H122702   2.848   6.249  12.934 -0.0599 -2.8845  0.8135
  429TIP3    H222703   2.772   6.264  12.804 -1.6325 -2.1925  1.7741
  430TIP3   OH222704   4.249   3.345   4.825  0.4999  0.1194  0.5772
  430TIP3    H122705   4.295   3.417   4.868 -1.4883  2.1071 -0.4133
  430TIP3    H222706   4.312   3.311   4.761  0.7710  2.6465 -0.6448
  431TIP3   OH222707   1.910   5.167  14.475  0.4827  0.1599  0.2872
  431TIP3    H122708   1.988   5.198  14.428  0.7165 -2.8338 -1.5644
  431TIP3    H222709   1.940   5.154  14.565  1.8604  0.0382 -0.1618
  432TIP3   OH222710   4.784   3.507   4.174  0.1141 -0.0008  0.5910
  432TIP3    H122711   4.768   3.541   4.086 -1.8644  0.1839  0.9649
  432TIP3    H222712   4.878   3.518   4.188  0.1133  2.0688 -0.6423
  433TIP3   OH222713   4.646   4.561  11.844 -0.5466  0.5779 -0.2237
  433TIP3    H122714   4.694   4.529  11.767  0.5258  1.9932 -0.1955
  433TIP3    H222715   4.714   4.599  11.900 -1.3606 -0.0821  1.2652
  434TIP3   OH222716   4.104   5.359  16.268 -0.6012 -0.2678 -0.8421
  434TIP3    H122717   4.128   5.444  16.232  0.0289 -0.3254 -0.5794
  434TIP3    H222718   4.072   5.379  16.356  1.6432 -0.4789  0.0868
  435TIP3   OH222719   1.764   5.493   2.045 -0.0219 -0.2115 -0.0811
  435TIP3    H122720   1.683   5.449   2.020 -0.5863  0.9873 -0.4707
  435TIP3    H222721   1.801   5.524   1.962 -0.2013  0.9529  0.2544
  436TIP3   OH222722   5.463   4.843  14.590 -0.0832  0.2480  0.2169
  436TIP3    H122723   5.493   4.823  14.501 -0.5355  0.3400  0.0389
  436TIP3    H222724   5.477   4.762  14.639  1.8105  0.7131  0.5241
  437TIP3   OH222725   6.561   1.092   2.861  0.6142  0.0547  0.3964
  437TIP3    H122726   6.584   1.130   2.776 -1.2113 -0.0722 -0.1814
  437TIP3    H222727   6.494   1.150   2.896 -0.8485 -1.5475  0.3576
  438TIP3   OH222728   2.168   6.419  12.110 -0.3248  0.3864 -1.0242
  438TIP3    H122729   2.205   6.335  12.136  1.4000  1.3615 -0.1709
  438TIP3    H222730   2.086   6.427  12.160  1.1420  0.6407  1.5012
  439TIP3   OH222731   2.289   4.658   1.832  0.2311  0.2477  0.1749
  439TIP3    H122732   2.319   4.637   1.920 -0.7639 -0.1033  0.4460
  439TIP3    H222733   2.329   4.591   1.776 -1.1791 -1.1044  0.7312
  440TIP3   OH222734   5.995   0.422  15.713 -0.1420 -0.7439 -0.1365
  440TIP3    H122735   6.025   0.380  15.632 -1.9284 -1.3345 -0.5276
  440TIP3    H222736   5.929   0.362  15.748 -0.5071  0.2560  0.9407
  441TIP3   OH222737   5.788   2.464  11.860  0.5830  0.1169 -0.2255
  441TIP3    H122738   5.795   2.400  11.931  0.4753 -0.0217 -0.3401
  441TIP3    H222739   5.842   2.538  11.889 -0.0532  0.3758  0.3455
  442TIP3   OH222740   2.853   5.534   0.669  0.4550  0.0386 -0.2617
  442TIP3    H122741   2.848   5.544   0.764  1.5042  0.6882 -0.2572
  442TIP3    H222742   2.805   5.609   0.635  0.8081  0.2828 -0.2325
  443TIP3   OH222743   0.446   0.754  14.567  0.4167 -0.5324 -0.0304
  443TIP3    H122744   0.538   0.739  14.544  0.3442  0.1486 -0.8034
  443TIP3    H222745   0.397   0.693  14.512  0.3854 -0.6536  0.1313
  444TIP3   OH222746   4.130   3.207  15.544 -0.4403  0.1087  0.2331
  444TIP3    H122747   4.184   3.212  15.466  2.2092 -3.4254  1.5618
  444TIP3    H222748   4.057   3.150  15.519 -0.3938  0.1556 -0.0090
  445TIP3   OH222749   2.740   4.916   5.125 -0.0348  0.3055 -0.1480
  445TIP3    H122750   2.822   4.885   5.087 -0.5791 -0.3280 -0.8436
  445TIP3    H222751   2.765   4.960   5.206  1.0147  0.3950 -0.5171
  446TIP3   OH222752   4.333   2.057  11.396 -1.1496  0.3797 -0.3794
  446TIP3    H122753   4.250   2.034  11.354 -0.5660 -1.1474 -0.7813
  446TIP3    H222754   4.393   1.988  11.368  0.9703  2.7588 -2.1607
  447TIP3   OH222755   2.647   0.515   5.735  0.4959  0.3797 -0.1374
  447TIP3    H122756   2.612   0.556   5.814  1.0546  1.4857 -0.4398
  447TIP3    H222757   2.667   0.425   5.761 -2.0322 -0.1627  0.1898
  448TIP3   OH222758   5.158   5.704   6.410  0.3432  0.1201 -0.9763
  448TIP3    H122759   5.181   5.796   6.397 -0.5378  0.8389  1.8618
  448TIP3    H222760   5.098   5.704   6.485 -0.0680 -2.7416 -1.1702
  449TIP3   OH222761   3.528   4.594   0.540 -0.3096 -0.0699 -0.6081
  449TIP3    H122762   3.620   4.573   0.551 -0.6002 -0.6641  1.1533
  449TIP3    H222763   3.484   4.544   0.610 -1.9900 -0.0231 -1.5720
  450TIP3   OH222764   6.254   3.684   1.925  0.1308 -0.1064 -0.2344
  450TIP3    H122765   6.172   3.675   1.876  0.3429 -2.0560 -0.3091
  450TIP3    H222766   6.226   3.696   2.016 -0.2379  2.1841 -0.5812
  451TIP3   OH222767   3.047   2.652  14.952 -0.0396 -0.0395 -0.0835
  451TIP3    H122768   3.115   2.620  14.893  0.9883  1.4278  0.2380
  451TIP3    H222769   3.079   2.738  14.981 -1.7638  0.4396  0.5413
  452TIP3   OH222770   1.852   4.491  13.236 -0.2753  0.4217  0.2657
  452TIP3    H122771   1.819   4.525  13.153 -1.5610 -0.2198  0.4896
  452TIP3    H222772   1.922   4.430  13.212 -0.4485  0.4571 -0.3311
  453TIP3   OH222773   1.243   3.744  12.625 -0.5421 -0.3076 -0.3847
  453TIP3    H122774   1.211   3.772  12.711 -0.9176 -0.7854 -0.3634
  453TIP3    H222775   1.223   3.651  12.621  2.3452 -1.0548  0.3100
  454TIP3   OH222776   6.327   4.919  13.344  0.2270  0.0441 -0.2759
  454TIP3    H122777   6.416   4.912  13.308  0.6231 -1.0348  0.8446
  454TIP3    H222778   6.292   4.829  13.340 -0.6504  0.3749 -0.2883
  455TIP3   OH222779   3.113   6.253   2.189  0.4024 -0.1323  0.2213
  455TIP3    H122780   3.043   6.194   2.219 -0.3534  0.1319 -0.9563
  455TIP3    H222781   3.186   6.234   2.247 -0.5165 -0.7040  1.2444
  456TIP3   OH222782   1.015   3.294   3.364 -0.4278  0.2840  0.0852
  456TIP3    H122783   1.079   3.358   3.333  0.0083 -0.9531 -1.6765
  456TIP3    H222784   1.033   3.215   3.313 -2.0453 -0.7354  1.0156
  457TIP3   OH222785   5.760   0.147   0.690  0.7741 -0.7804  0.0989
  457TIP3    H122786   5.800   0.065   0.720  0.1542 -1.0170  0.2905
  457TIP3    H222787   5.835   0.204   0.671  1.2065 -1.2505  0.3508
  458TIP3   OH222788   3.126   5.500  16.257 -0.0972 -0.2984  0.7772
  458TIP3    H122789   3.121   5.405  16.274 -1.1306 -0.5611 -0.7848
  458TIP3    H222790   3.159   5.506  16.168 -1.9013  0.7387  0.1465
  459TIP3   OH222791   4.369   2.496   3.908  0.4860 -0.3285 -0.1143
  459TIP3    H122792   4.283   2.529   3.933  0.8194  0.3252  0.1872
  459TIP3    H222793   4.353   2.444   3.829 -0.4150 -1.5297  0.8208
  460TIP3   OH222794   2.893   5.460   2.949 -0.0687  0.2256  0.2610
  460TIP3    H122795   2.799   5.445   2.937  0.1292  0.6554 -2.1776
  460TIP3    H222796   2.904   5.554   2.941  0.7266  0.0586 -0.7190
  461TIP3   OH222797   6.335   5.602   1.046 -0.3957 -0.3046 -0.2368
  461TIP3    H122798   6.263   5.664   1.034 -0.9924 -1.1406 -1.2057
  461TIP3    H222799   6.387   5.609   0.966  2.1272  2.0923  1.4458
  462TIP3   OH222800   3.002   4.088   1.375  0.5263  1.0234 -0.1057
  462TIP3    H122801   3.032   4.116   1.288  0.0008  0.7711 -0.3736
  462TIP3    H222802   2.958   4.005   1.359  0.8759  0.7162  0.4844
  463TIP3   OH222803   3.740   2.124   0.617 -0.1083  0.3203  0.1549
  463TIP3    H122804   3.757   2.066   0.691  0.6467  0.8533  0.4123
  463TIP3    H222805   3.765   2.211   0.649 -0.4764  0.6705 -0.4871
  464TIP3   OH222806   4.076   1.720   1.505 -0.1953  0.6540 -0.2962
  464TIP3    H122807   4.012   1.772   1.555 -0.2030  0.5794 -0.2281
  464TIP3    H222808   4.054   1.630   1.525  1.1390  0.6308  1.2786
  465TIP3   OH222809   0.127   6.390   5.493  0.9269 -0.1277  0.8468
  465TIP3    H122810   0.116   6.296   5.504 -0.8806 -0.2548 -1.2147
  465TIP3    H222811   0.164   6.399   5.405  1.5958  1.0712  1.2322
  466TIP3   OH222812   0.654   3.249   1.084  0.1215  0.0107 -0.3123
  466TIP3    H122813   0.666   3.284   1.172 -1.6987  1.1957 -0.4873
  466TIP3    H222814   0.667   3.324   1.026  0.8402 -0.6549 -1.0395
  467TIP3   OH222815   3.699   0.074  15.641  0.0943  0.2172 -0.5743
  467TIP3    H122816   3.675  -0.018  15.645  1.9660 -0.2731  0.2828
  467TIP3    H222817   3.671   0.103  15.554  0.9885 -1.6219 -1.5218
  468TIP3   OH222818   5.523   0.376   6.197  0.1449 -0.6826  0.2495
  468TIP3    H122819   5.451   0.352   6.256 -1.1641  1.5032 -0.3581
  468TIP3    H222820   5.533   0.470   6.208  2.5613 -0.8284 -0.1556
  469TIP3   OH222821   6.153   2.475  13.760 -0.1235  0.0179 -0.0153
  469TIP3    H122822   6.213   2.537  13.718 -0.5463  0.3118 -0.2086
  469TIP3    H222823   6.150   2.400  13.700  3.2814 -1.9415  1.9785
  470TIP3   OH222824   4.882   0.282  14.133  0.4602 -0.3019  0.0831
  470TIP3    H122825   4.838   0.289  14.049  0.4407 -0.9922  0.0290
  470TIP3    H222826   4.945   0.211  14.122  1.4991  0.5775  0.2032
  471TIP3   OH222827   2.046   1.230   6.135  0.0784  0.2205  0.1932
  471TIP3    H122828   1.968   1.285   6.127  0.9456  1.9807  2.7850
  471TIP3    H222829   2.109   1.284   6.182  2.4978 -1.5705 -0.7981
  472TIP3   OH222830   4.131   2.614   1.402 -0.3672 -0.2642  0.1124
  472TIP3    H122831   4.146   2.547   1.336  1.4568 -0.5307  0.7587
  472TIP3    H222832   4.041   2.598   1.431 -1.3908  0.1060 -2.5144
  473TIP3   OH222833   0.039   0.323   3.385 -0.0377 -0.0093  0.1977
  473TIP3    H122834   0.107   0.390   3.377  2.3711 -2.4378 -2.4509
  473TIP3    H222835   0.013   0.304   3.294 -0.3399 -2.7799  0.7581
  474TIP3   OH222836   6.318   1.319  16.145 -0.4537  0.2610 -0.2449
  474TIP3    H122837   6.278   1.397  16.183  0.9289  0.2760  1.2855
  474TIP3    H222838   6.370   1.352  16.072  1.0574  1.0177  1.0821
  475TIP3   OH222839   2.373   1.648   2.230  0.3261  0.2076 -0.3751
  475TIP3    H122840   2.387   1.742   2.214  0.2215  0.2188 -0.4024
  475TIP3    H222841   2.461   1.612   2.240  0.3257  0.5410  0.9422
  476TIP3   OH222842   1.478   2.854   4.255 -0.2920  0.5936 -0.0561
  476TIP3    H122843   1.532   2.810   4.189 -1.7383 -0.0343 -0.8754
  476TIP3    H222844   1.532   2.926   4.286  1.4150 -0.6028 -0.0728
  477TIP3   OH222845   0.873   4.708   1.101  0.1551 -0.2989 -0.1273
  477TIP3    H122846   0.855   4.798   1.073  0.0641 -0.5675 -0.9822
  477TIP3    H222847   0.801   4.686   1.159 -1.3055 -0.6965 -1.9896
  478TIP3   OH222848   5.746   2.857   4.051  0.2229 -0.2786  0.1596
  478TIP3    H122849   5.753   2.794   3.980 -1.4042 -0.1760 -0.1394
  478TIP3    H222850   5.832   2.900   4.054 -0.4209  1.6925 -3.6560
  479TIP3   OH222851   0.975   3.001  12.057  0.2242  0.3257 -0.5918
  479TIP3    H122852   1.042   2.937  12.079  0.2188  0.6752  0.4914
  479TIP3    H222853   1.021   3.068  12.006  0.3516 -0.2157 -1.2122
  480TIP3   OH222854   4.353   0.753  11.795  0.5607 -0.1887 -0.4516
  480TIP3    H122855   4.447   0.752  11.780  0.6295 -1.7278 -0.0719
  480TIP3    H222856   4.318   0.693  11.729 -0.0660 -0.2321 -0.0856
  481TIP3   OH222857   4.871   3.885  11.670 -0.3054 -0.1097 -0.0279
  481TIP3    H122858   4.883   3.827  11.745  2.1143  0.7059  0.2992
  481TIP3    H222859   4.896   3.832  11.594  0.5687  0.0784  0.1236
  482TIP3   OH222860   1.357   2.857   2.309  0.1791 -0.0112 -0.0427
  482TIP3    H122861   1.387   2.841   2.398 -1.0163  1.0760  0.6030
  482TIP3    H222862   1.261   2.855   2.316  0.0741 -0.0475 -1.3240
  483TIP3   OH222863   2.726   3.317   2.682 -0.1431 -0.0609 -0.5749
  483TIP3    H122864   2.744   3.299   2.775  1.3469  0.2991 -0.7580
  483TIP3    H222865   2.730   3.412   2.675 -2.6618  0.1047 -0.6012
  484TIP3   OH222866   6.028   3.035  15.001  0.4936 -0.3928 -0.1346
  484TIP3    H122867   6.109   3.084  15.017 -0.6858  1.0593  1.8260
  484TIP3    H222868   5.988   3.080  14.927  0.1324  0.7381  0.7168
  485TIP3   OH222869   1.790   3.767  12.561  0.6484 -0.2382 -0.2263
  485TIP3    H122870   1.736   3.689  12.552  0.5989 -0.1505 -0.7430
  485TIP3    H222871   1.727   3.839  12.568  0.6671  0.0097 -2.1353
  486TIP3   OH222872   0.293   6.418  11.459 -0.5996  0.1466  0.0941
  486TIP3    H122873   0.231   6.490  11.450  0.7004  1.2089 -1.0627
  486TIP3    H222874   0.336   6.414  11.373  0.1618 -1.2577  0.5140
  487TIP3   OH222875   5.125   5.379   3.582 -0.1196  0.7091  0.5904
  487TIP3    H122876   5.143   5.300   3.531  1.4551  1.8239 -0.6821
  487TIP3    H222877   5.061   5.351   3.648  1.0984 -1.8442  0.8113
  488TIP3   OH222878   1.642   0.740  13.634  0.9636  0.5347  0.3684
  488TIP3    H122879   1.691   0.798  13.692  1.5925 -0.6917  1.0927
  488TIP3    H222880   1.705   0.673  13.607  0.1904  0.0381 -0.2502
  489TIP3   OH222881   3.693   6.395  11.537  0.0294  0.4029  0.0301
  489TIP3    H122882   3.746   6.451  11.480 -0.2268 -0.7455 -1.3890
  489TIP3    H222883   3.605   6.434  11.532 -0.0655  0.1158 -0.6438
  490TIP3   OH222884   0.106   3.937   0.223  0.4149 -0.1005 -0.1629
  490TIP3    H122885   0.167   4.006   0.249  0.0850 -0.3842  1.4096
  490TIP3    H222886   0.069   3.969   0.141  0.0252  1.7644  0.6917
  491TIP3   OH222887   3.746   2.254  12.452 -0.3917  0.4483  0.5745
  491TIP3    H122888   3.770   2.169  12.491  0.5444  1.1370  1.5703
  491TIP3    H222889   3.769   2.245  12.360 -0.8151 -0.5653  0.5526
  492TIP3   OH222890   5.909   3.333   0.840  0.0861 -0.0033 -0.0318
  492TIP3    H122891   5.951   3.388   0.775  1.5858 -1.3241 -0.2461
  492TIP3    H222892   5.864   3.265   0.789 -1.8124  0.9938  0.2218
  493TIP3   OH222893   4.989   2.553   0.628  0.1249  0.1275 -0.3073
  493TIP3    H122894   5.072   2.600   0.638  0.1495 -0.3088  2.0357
  493TIP3    H222895   5.015   2.463   0.604  0.2530  0.2604 -0.6842
  494TIP3   OH222896   0.700   2.912   0.655  0.4982 -0.5171 -0.2721
  494TIP3    H122897   0.785   2.868   0.648  0.6259 -0.2906 -0.1433
  494TIP3    H222898   0.717   2.988   0.711 -0.0885 -1.2410  0.9105
  495TIP3   OH222899   5.566   0.106  16.521 -0.6511 -0.3469 -0.3623
  495TIP3    H122900   5.481   0.062  16.516 -0.6716 -0.1778 -1.8195
  495TIP3    H222901   5.609   0.085  16.438  0.3910  0.2759 -0.0002
  496TIP3   OH222902   0.998   5.530   4.490 -0.3085 -0.0131  0.1076
  496TIP3    H122903   1.005   5.617   4.450 -0.8151  0.2268  0.5283
  496TIP3    H222904   0.935   5.542   4.561  3.0716  0.4152  3.2651
  497TIP3   OH222905   2.577   1.418  14.980 -0.4085  0.1779 -0.2536
  497TIP3    H122906   2.534   1.344  15.023 -0.4540 -0.0220 -0.6416
  497TIP3    H222907   2.519   1.441  14.907 -1.4380  1.9017  1.0399
  498TIP3   OH222908   1.001   2.926  15.404  0.1221 -0.2608 -0.4960
  498TIP3    H122909   1.016   2.988  15.476 -1.0999 -0.0610 -0.4047
  498TIP3    H222910   1.011   2.840  15.445 -2.9195 -0.2302  0.5362
  499TIP3   OH222911   0.898   1.370  17.325 -0.1544 -0.2270  0.3045
  499TIP3    H122912   0.966   1.315  17.364 -1.3407 -1.2667  0.9679
  499TIP3    H222913   0.882   1.438  17.390  1.3058  0.9519 -0.5127
  500TIP3   OH222914   3.164   3.474   5.285  0.3075 -0.0042 -0.1589
  500TIP3    H122915   3.124   3.412   5.224 -0.2450  1.5555 -1.4741
  500TIP3    H222916   3.102   3.479   5.358  0.2236 -0.7666 -0.1698
  501TIP3   OH222917   6.501   1.343  11.450 -0.4949  0.5766  0.1592
  501TIP3    H122918   6.421   1.298  11.478  1.4782 -2.3177  1.6738
  501TIP3    H222919   6.516   1.313  11.360  0.5631 -1.7320  1.0046
  502TIP3   OH222920   4.778   2.852  17.025 -0.0251 -0.4698 -0.1489
  502TIP3    H122921   4.815   2.780  17.076  1.0661  0.3714  0.2928
  502TIP3    H222922   4.722   2.809  16.960 -1.7027 -1.5473  1.9093
  503TIP3   OH222923   5.999   4.943   3.215 -0.4648  0.0589  0.3905
  503TIP3    H122924   6.085   4.925   3.176 -0.1642  1.6965  0.2023
  503TIP3    H222925   5.952   4.860   3.210  0.6881 -0.5665 -0.6014
  504TIP3   OH222926   1.993   5.082  17.394  0.0418  0.4975  0.3223
  504TIP3    H122927   2.073   5.056  17.439  0.8818 -0.4996 -1.6220
  504TIP3    H222928   1.951   4.999  17.371  0.2825  0.9004 -1.7383
  505TIP3   OH222929   0.893   6.218   3.320  0.1836  0.1928  0.1526
  505TIP3    H122930   0.895   6.301   3.369 -2.0845  0.2792  0.2236
  505TIP3    H222931   0.914   6.151   3.385 -1.5312  0.4275  1.0003
  506TIP3   OH222932   4.897   0.843  17.155  0.0845  0.1364 -0.6622
  506TIP3    H122933   4.870   0.777  17.091 -2.0971 -0.6660  0.9283
  506TIP3    H222934   4.874   0.926  17.115  0.3736 -0.2231 -1.6076
  507TIP3   OH222935   3.628   2.679  14.826  0.0086  0.1022 -0.2355
  507TIP3    H122936   3.586   2.599  14.795 -0.8515  0.5451 -0.2266
  507TIP3    H222937   3.721   2.667  14.806 -0.0022 -1.2034  0.4358
  508TIP3   OH222938   5.012   3.299   1.672  0.1244 -0.2969  0.3091
  508TIP3    H122939   5.029   3.357   1.746  0.3140  0.2834 -0.1779
  508TIP3    H222940   4.965   3.225   1.709 -2.2399  1.2511  0.6087
  509TIP3   OH222941   2.409   0.113   5.747 -0.1615  0.0832  0.1490
  509TIP3    H122942   2.363   0.050   5.803 -0.0895 -0.2816 -0.2035
  509TIP3    H222943   2.408   0.194   5.798  1.0366 -0.5566  1.2707
  510TIP3   OH222944   5.513   0.951  15.135  0.2694  0.0361  0.3190
  510TIP3    H122945   5.595   1.000  15.127 -0.1798  0.5353 -2.9653
  510TIP3    H222946   5.464   0.975  15.056 -2.7787 -0.7702  1.8101
  511TIP3   OH222947   3.483   1.201   0.336 -0.6119 -0.6877  0.0385
  511TIP3    H122948   3.443   1.282   0.368 -0.6360 -0.9485  0.6801
  511TIP3    H222949   3.433   1.180   0.257 -0.0996  0.3346 -0.5876
  512TIP3   OH222950   6.249   5.902  13.816  0.0020 -0.1340 -0.1587
  512TIP3    H122951   6.249   5.816  13.858  2.0901  0.0325  0.2936
  512TIP3    H222952   6.289   5.887  13.730  0.4976  0.3868 -0.0303
  513TIP3   OH222953   2.676   5.107   3.115 -0.0381 -0.6643  0.0345
  513TIP3    H122954   2.754   5.102   3.171  0.2586  0.0502 -0.3012
  513TIP3    H222955   2.605   5.076   3.170  0.0677  0.9825  1.1650
  514TIP3   OH222956   6.551   3.890  11.005 -0.1943 -0.4621 -0.0559
  514TIP3    H122957   6.625   3.944  11.031  0.4353 -1.7197  0.8460
  514TIP3    H222958   6.589   3.823  10.947 -0.8741 -0.2786 -0.7426
  515TIP3   OH222959   2.184   2.036  15.459 -0.1327  0.2827  0.0345
  515TIP3    H122960   2.173   2.047  15.554  0.0431 -1.2414  0.2510
  515TIP3    H222961   2.279   2.024  15.448  0.0310  1.8199 -0.5165
  516TIP3   OH222962   0.282   0.205  13.014 -0.2414  0.5107  0.4574
  516TIP3    H122963   0.333   0.202  13.095 -1.1145 -2.5951  1.0276
  516TIP3    H222964   0.191   0.213  13.043 -0.4469  1.2832 -0.3432
  517TIP3   OH222965   0.993   4.335   4.387 -0.2397 -0.1751 -0.1096
  517TIP3    H122966   0.971   4.375   4.471 -0.2634  2.3840 -1.2451
  517TIP3    H222967   0.911   4.337   4.337 -0.8932 -3.8639  0.4503
  518TIP3   OH222968   5.077   0.485   2.001 -0.6609  0.0067 -0.4213
  518TIP3    H122969   5.146   0.419   1.987 -1.9771 -1.3350 -0.8799
  518TIP3    H222970   5.115   0.567   1.970  0.8611 -0.6205 -0.2966
  519TIP3   OH222971   2.291   1.618  11.800  0.2676  0.7170  0.1331
  519TIP3    H122972   2.317   1.704  11.767 -1.0099  1.1857  0.3178
  519TIP3    H222973   2.342   1.607  11.880  2.7872 -0.0810 -1.4321
  520TIP3   OH222974   2.364   1.045  17.103 -0.2015  0.0453 -0.4489
  520TIP3    H122975   2.388   0.959  17.136  1.3668  0.6901  0.2313
  520TIP3    H222976   2.359   1.035  17.008 -0.6414 -0.9166 -0.3299
  521TIP3   OH222977   0.409   5.788  16.494 -0.1586 -0.5339 -0.0990
  521TIP3    H122978   0.436   5.824  16.410  1.5926 -0.8013  0.2937
  521TIP3    H222979   0.357   5.710  16.472 -2.3376  1.0643 -0.9188
  522TIP3   OH222980   4.979   3.328   4.739 -0.5811 -0.0755 -0.0963
  522TIP3    H122981   5.066   3.293   4.718 -0.8896 -1.4193  0.7358
  522TIP3    H222982   4.995   3.419   4.764  0.5582 -0.2333 -0.2043
  523TIP3   OH222983   0.528   1.870  15.993  0.0783  0.0152 -0.2012
  523TIP3    H122984   0.525   1.808  15.921  3.6725 -0.1162 -0.3999
  523TIP3    H222985   0.531   1.956  15.951 -0.6686  0.1181 -0.0646
  524TIP3   OH222986   0.630   1.252  16.578 -0.4535  0.1893  0.1580
  524TIP3    H122987   0.567   1.285  16.642 -1.6070 -0.7616 -0.4437
  524TIP3    H222988   0.655   1.329  16.527 -2.0473  0.4098 -0.3468
  525TIP3   OH222989   1.518   1.020   0.341 -0.1669  0.0858 -0.0862
  525TIP3    H122990   1.538   0.933   0.308  1.0768  0.6169 -0.8118
  525TIP3    H222991   1.451   1.054   0.282 -1.0601 -0.5623  0.5266
  526TIP3   OH222992   4.646   3.443  15.375 -0.3100 -0.1951 -0.5052
  526TIP3    H122993   4.742   3.435  15.369 -0.2849  0.6673 -1.4893
  526TIP3    H222994   4.614   3.357  15.348  0.1886 -1.1242  1.6072
  527TIP3   OH222995   2.851   5.445   4.479  0.0148  0.3175 -0.0353
  527TIP3    H122996   2.835   5.393   4.557 -1.2385  0.7916  0.0541
  527TIP3    H222997   2.930   5.408   4.440 -1.0866 -1.9584 -0.2365
  528TIP3   OH222998   4.071   3.825   6.592 -0.3226  0.2904 -0.3476
  528TIP3    H122999   3.979   3.802   6.603 -0.2545 -0.3621 -1.0550
  528TIP3    H223000   4.114   3.742   6.571  0.2776  0.7382 -0.9291
  529TIP3   OH223001   1.978   0.678  17.278  0.2639  0.4261  0.1894
  529TIP3    H123002   1.914   0.691  17.348 -0.4967  1.1589 -0.6135
  529TIP3    H223003   2.021   0.763  17.269 -0.3915  0.6530 -0.9435
  530TIP3   OH223004   3.865   0.496  15.014  0.6970 -0.6000  0.4036
  530TIP3    H123005   3.826   0.504  15.101  0.6891  1.1582  0.2630
  530TIP3    H223006   3.793   0.465  14.958  0.7730 -2.0030  1.0329
  531TIP3   OH223007   0.914   3.299  13.282 -0.0410 -0.7698 -0.3946
  531TIP3    H123008   0.860   3.338  13.213 -1.1704  1.1718  1.4711
  531TIP3    H223009   0.851   3.250  13.336 -0.2601  2.1050  2.2260
  532TIP3   OH223010   6.467   1.935   3.321  0.1241  0.4950  0.1281
  532TIP3    H123011   6.545   1.980   3.291  1.1674 -0.1040  1.8075
  532TIP3    H223012   6.479   1.926   3.416 -0.5934 -2.1990  0.0559
  533TIP3   OH223013   6.368   5.532  16.480  0.1069  0.6865 -0.0548
  533TIP3    H123014   6.426   5.494  16.546 -1.4415  1.5263  1.9039
  533TIP3    H223015   6.427   5.558  16.408  1.8885 -0.1177  1.0379
  534TIP3   OH223016   4.764   1.909  12.494  0.2997  0.8682  0.3204
  534TIP3    H123017   4.763   1.990  12.545  0.7886  0.1867  1.4529
  534TIP3    H223018   4.704   1.850  12.540  0.8964  0.1718  0.2269
  535TIP3   OH223019   4.342   4.894   4.173  0.1533 -0.2253  0.2378
  535TIP3    H123020   4.269   4.917   4.231  1.5955  2.2650  1.2479
  535TIP3    H223021   4.315   4.925   4.087 -0.0654  0.5495  0.5740
  536TIP3   OH223022   3.263   6.448   1.325 -0.0260  0.0662  0.5589
  536TIP3    H123023   3.344   6.424   1.370  0.1142 -0.2570  0.1484
  536TIP3    H223024   3.282   6.532   1.284 -0.2840  0.5516  1.4212
  537TIP3   OH223025   2.166   5.438   0.664  0.2430 -0.4104  0.0761
  537TIP3    H123026   2.161   5.348   0.697 -1.0838 -0.3249  0.1537
  537TIP3    H223027   2.077   5.472   0.673  0.9796  1.3665  1.3238
  538TIP3   OH223028   3.953   0.965  15.880  0.3477  0.1891 -0.3010
  538TIP3    H123029   3.917   0.943  15.794 -0.0903 -1.5894  0.3147
  538TIP3    H223030   4.021   1.030  15.861 -1.1165  1.3839 -1.7697
  539TIP3   OH223031   1.549   4.341   1.067 -0.0614  0.5717  0.4461
  539TIP3    H123032   1.572   4.248   1.062  0.8044  0.6849  1.6404
  539TIP3    H223033   1.460   4.342   1.103 -0.1596  0.1950  0.2167
  540TIP3   OH223034   3.395   4.528   3.897 -0.8549  0.4291  0.3455
  540TIP3    H123035   3.358   4.550   3.811  1.7387  0.1181 -0.9353
  540TIP3    H223036   3.490   4.534   3.885 -0.3521 -1.1247  2.7788
  541TIP3   OH223037   0.604   0.000   2.428  0.4912  0.1749 -0.1101
  541TIP3    H123038   0.561   0.052   2.496 -1.5110  0.3497 -1.4312
  541TIP3    H223039   0.681  -0.037   2.471  0.2422  1.6704  1.7418
  542TIP3   OH223040   5.270   1.088   1.508 -0.5533  0.1527 -0.9444
  542TIP3    H123041   5.203   1.153   1.483 -1.9479 -0.7150  0.3961
  542TIP3    H223042   5.317   1.070   1.426 -2.3187  0.3954 -2.0704
  543TIP3   OH223043   4.330   3.927  13.810 -0.6379 -0.1679  0.2121
  543TIP3    H123044   4.360   3.952  13.722  1.7099 -0.6444  0.8042
  543TIP3    H223045   4.396   3.864  13.841 -2.1889 -1.1191  1.7799
  544TIP3   OH223046   4.440   2.983  15.180  0.3960 -0.3169 -0.0682
  544TIP3    H123047   4.470   2.893  15.187 -0.2811 -0.6811 -1.4223
  544TIP3    H223048   4.347   2.976  15.158 -0.0141  0.7457  1.1878
  545TIP3   OH223049   0.864   0.617  12.693 -0.1571 -0.0517  1.3725
  545TIP3    H123050   0.848   0.553  12.763  1.1477 -1.3212  0.5529
  545TIP3    H223051   0.915   0.570  12.627  0.2819  1.6500  0.4144
  546TIP3   OH223052   4.479   1.803  15.893  1.0380  0.0556  0.0681
  546TIP3    H123053   4.527   1.774  15.970  2.3485  0.3749 -0.6023
  546TIP3    H223054   4.501   1.895  15.884  1.8179 -0.2249 -1.3002
  547TIP3   OH223055   3.584   5.698   2.567  0.2262 -0.0655  0.0750
  547TIP3    H123056   3.538   5.749   2.634  0.7369  0.0773  0.3213
  547TIP3    H223057   3.647   5.645   2.615 -1.0062 -1.7438 -0.0726
  548TIP3   OH223058   4.178   2.761  13.126 -0.8144  0.3897  0.4534
  548TIP3    H123059   4.102   2.814  13.105 -0.8781 -0.1256 -0.6844
  548TIP3    H223060   4.250   2.799  13.076 -0.0090  1.6146  2.4420
  549TIP3   OH223061   6.586   1.027  15.069  0.2321 -0.8347  0.0226
  549TIP3    H123062   6.512   1.075  15.106 -0.2229 -0.6319 -1.1023
  549TIP3    H223063   6.570   1.028  14.974  2.2636  0.2136 -0.3654
  550TIP3   OH223064   3.711   3.409   5.582  0.0797  0.1736  0.0177
  550TIP3    H123065   3.622   3.408   5.545 -0.3501  1.8017  0.9271
  550TIP3    H223066   3.698   3.414   5.676  1.1087  1.7505  0.1115
  551TIP3   OH223067   4.121   5.373   4.336 -0.5889 -0.6019  0.0626
  551TIP3    H123068   4.030   5.377   4.308 -0.9035 -0.3140  1.0941
  551TIP3    H223069   4.123   5.421   4.419  0.6907  0.2216 -0.4193
  552TIP3   OH223070   5.992   3.955  11.467  0.7671 -0.0197  0.1332
  552TIP3    H123071   6.075   3.910  11.480  1.2317  0.5735 -0.6756
  552TIP3    H223072   5.930   3.885  11.447  0.6560 -0.6583  2.3865
  553TIP3   OH223073   1.997   6.685  13.925  0.1485 -0.0554  0.1800
  553TIP3    H123074   1.955   6.657  13.844  0.3925 -2.1045  0.6868
  553TIP3    H223075   2.005   6.780  13.917 -1.8102  0.0578 -1.2222
  554TIP3   OH223076   6.455   6.075  13.958 -0.5051  0.6940  0.0221
  554TIP3    H123077   6.385   6.015  13.931  0.5279 -0.6919  0.2908
  554TIP3    H223078   6.454   6.072  14.053 -2.4113  3.5303  0.2018
  555TIP3   OH223079   2.904   0.714   2.580  0.6943 -0.2777 -0.6447
  555TIP3    H123080   2.811   0.707   2.561  1.0520 -0.7406 -2.3541
  555TIP3    H223081   2.918   0.654   2.653 -0.4296  0.1931 -0.0199
  556TIP3   OH223082   5.152   6.595   6.352 -0.3850 -0.4227 -0.2706
  556TIP3    H123083   5.135   6.566   6.441  2.7967 -0.6498  0.3834
  556TIP3    H223084   5.231   6.548   6.325  0.6251  1.9793 -1.9664
  557TIP3   OH223085   3.402   5.531   5.716  0.0883  0.0224  0.0245
  557TIP3    H123086   3.377   5.560   5.629  0.4233 -1.0365 -0.4376
  557TIP3    H223087   3.320   5.533   5.766 -0.7412 -2.0811 -1.0987
  558TIP3   OH223088   5.546   2.043  17.174 -0.1041 -0.1546 -1.0072
  558TIP3    H123089   5.561   2.124  17.222 -3.3120  0.4607 -0.7751
  558TIP3    H223090   5.550   2.069  17.082 -0.9680  0.2855 -0.9363
  559TIP3   OH223091   3.710   2.260  15.302  0.5416  0.5007  0.5658
  559TIP3    H123092   3.651   2.291  15.234  1.4486 -2.3888 -1.7443
  559TIP3    H223093   3.684   2.169  15.317  1.9176  0.3493  2.3347
  560TIP3   OH223094   0.649   3.445   4.281  0.1038 -0.2037 -0.1413
  560TIP3    H123095   0.702   3.365   4.280  1.5148  0.6574  1.3247
  560TIP3    H223096   0.693   3.502   4.343 -2.6779  0.5274  1.3096
  561TIP3   OH223097   0.704   1.364  14.464  0.2128 -0.1526  0.1324
  561TIP3    H123098   0.705   1.438  14.524  0.6868 -0.7634  0.9084
  561TIP3    H223099   0.627   1.378  14.409  0.0465  0.6748  0.5572
  562TIP3   OH223100   5.049   0.141   4.613 -0.3542 -0.5526  0.6257
  562TIP3    H123101   5.006   0.075   4.560 -0.8073 -1.1905  1.7391
  562TIP3    H223102   5.021   0.224   4.577 -1.7029 -0.9639  0.6950
  563TIP3   OH223103   5.123   0.641   4.570  0.1479  0.3767 -0.7764
  563TIP3    H123104   5.113   0.736   4.566  1.8611  0.5855 -1.0260
  563TIP3    H223105   5.217   0.627   4.582  0.1075 -1.3070 -1.9968
  564TIP3   OH223106   1.299   4.192   5.470  0.3860 -0.6256  0.4353
  564TIP3    H123107   1.280   4.257   5.538 -0.3870  1.6906 -1.8143
  564TIP3    H223108   1.370   4.231   5.418 -0.9322 -0.8863 -1.7101
  565TIP3   OH223109   0.874   0.254  11.983 -0.2749  0.2410  0.0580
  565TIP3    H123110   0.890   0.295  12.068 -0.5390 -0.2821  0.3645
  565TIP3    H223111   0.937   0.183  11.978 -0.5081  0.0377 -0.0242
  566TIP3   OH223112   5.140   5.464  12.038  0.0923  0.0578  0.2548
  566TIP3    H123113   5.100   5.538  11.994  1.2668  0.3126 -0.4455
  566TIP3    H223114   5.110   5.387  11.989  0.6528  0.2666 -0.4237
  567TIP3   OH223115   0.072   1.377   3.602  0.1216  0.1919 -0.2208
  567TIP3    H123116   0.163   1.363   3.577 -0.2237 -0.6278 -1.0807
  567TIP3    H223117   0.060   1.323   3.680  0.4793  0.6361  0.1456
  568TIP3   OH223118   0.688   5.806  16.318  0.0801 -0.4062 -0.1604
  568TIP3    H123119   0.783   5.799  16.312  0.3520 -0.4441  2.7051
  568TIP3    H223120   0.670   5.900  16.325  0.0592 -0.4608  0.6358
  569TIP3   OH223121   5.537   4.299   2.713  0.0132 -0.2503 -0.3667
  569TIP3    H123122   5.521   4.205   2.705 -2.0496 -0.0629  0.7838
  569TIP3    H223123   5.580   4.309   2.798  2.2220 -0.2940 -1.4107
  570TIP3   OH223124   4.577   5.670  11.974  0.1151 -0.4922  0.0138
  570TIP3    H123125   4.508   5.707  12.030 -1.1821 -1.1044 -1.1526
  570TIP3    H223126   4.658   5.701  12.015 -0.8266  0.4056  1.3130
  571TIP3   OH223127   5.900   1.502  13.782 -0.5586 -0.2658  0.5973
  571TIP3    H123128   5.962   1.448  13.732 -1.2549 -1.4096  0.9286
  571TIP3    H223129   5.902   1.465  13.870  1.5115  2.4434  1.8163
  572TIP3   OH223130   2.402   5.230   2.309  0.0102 -0.2672  0.6477
  572TIP3    H123131   2.470   5.291   2.337  0.2519  0.1625 -0.7873
  572TIP3    H223132   2.449   5.154   2.275 -0.1711  0.2964 -0.9373
  573TIP3   OH223133   4.832   4.249  15.708  0.0293  0.4215  0.7318
  573TIP3    H123134   4.804   4.234  15.618  0.6715 -0.5437  0.6825
  573TIP3    H223135   4.853   4.342  15.712  1.3797  0.2015 -0.5060
  574TIP3   OH223136   6.442   4.774   4.410  0.4982  0.0274 -0.3105
  574TIP3    H123137   6.496   4.765   4.488 -1.2406 -1.9597  0.7446
  574TIP3    H223138   6.362   4.817   4.440 -1.2277 -2.9123 -0.3602
  575TIP3   OH223139   2.139   3.235   3.212 -0.5316 -0.6651 -0.5419
  575TIP3    H123140   2.173   3.310   3.164 -0.4744  0.4770  1.1800
  575TIP3    H223141   2.203   3.165   3.197  0.8710  0.4671  0.0084
  576TIP3   OH223142   1.023   3.656   4.956  0.3977 -0.4553  0.1103
  576TIP3    H123143   0.973   3.694   5.028  0.8648 -1.0937  0.7763
  576TIP3    H223144   1.104   3.708   4.953  0.2564 -0.2468 -0.1416
  577TIP3   OH223145   4.108   2.895   3.754 -0.0448 -0.3660  0.5946
  577TIP3    H123146   4.152   2.811   3.767 -0.3416 -0.4386  1.1458
  577TIP3    H223147   4.062   2.911   3.836 -0.3987  0.0944  0.3100
  578TIP3   OH223148   5.042   2.357  13.315 -0.2285  0.1310  0.2381
  578TIP3    H123149   4.969   2.351  13.253  1.5452 -0.7579 -1.8988
  578TIP3    H223150   5.058   2.451  13.323  0.6619  0.2781 -2.2233
  579TIP3   OH223151   4.365   1.248   4.438 -0.7362  0.1519  0.0767
  579TIP3    H123152   4.322   1.164   4.457  0.0797 -0.0511  1.0798
  579TIP3    H223153   4.434   1.225   4.375 -0.0577 -0.0588  0.8859
  580TIP3   OH223154   5.059   2.081  14.489  0.6306  0.0622  0.5460
  580TIP3    H123155   5.112   2.021  14.435  1.1504  1.2340 -0.3056
  580TIP3    H223156   5.088   2.064  14.579  1.3332 -0.4154  0.2440
  581TIP3   OH223157   2.214   0.035  11.270 -0.2906  0.3985 -0.9534
  581TIP3    H123158   2.299   0.007  11.237  0.3695  2.1481 -0.8524
  581TIP3    H223159   2.214   0.010  11.363  0.6941  1.5791 -0.6127
  582TIP3   OH223160   6.375   2.413  13.549 -0.3860 -1.0066 -0.5164
  582TIP3    H123161   6.383   2.318  13.555  1.2707 -0.9109 -0.5649
  582TIP3    H223162   6.441   2.438  13.485 -0.8841  0.1760 -0.5932
  583TIP3   OH223163   0.967   0.060   0.055 -0.7314 -0.1942 -0.2896
  583TIP3    H123164   0.882   0.072   0.014  0.1959  0.7838 -2.0214
  583TIP3    H223165   1.008   0.146   0.053 -0.6614 -0.0207  2.9375
  584TIP3   OH223166   3.775   2.454   2.598 -0.2625  0.1407  0.1043
  584TIP3    H123167   3.833   2.471   2.524 -1.5914 -0.3688 -1.0872
  584TIP3    H223168   3.783   2.532   2.653  0.2375  0.8216 -0.9031
  585TIP3   OH223169   0.029   0.195  13.416  0.4224  0.7647  0.1287
  585TIP3    H123170  -0.035   0.258  13.384  0.1925 -0.2126 -1.3924
  585TIP3    H223171   0.055   0.144  13.339 -0.1473 -1.6759  1.4214
  586TIP3   OH223172   0.860   2.519  17.118 -0.1618 -0.3141 -0.1143
  586TIP3    H123173   0.847   2.471  17.200  2.0546 -2.1839 -0.7744
  586TIP3    H223174   0.773   2.522  17.078 -0.7607 -1.8422  0.9915
  587TIP3   OH223175   3.943   5.204   1.494  0.0793  0.6565 -0.0455
  587TIP3    H123176   4.033   5.228   1.472  0.7983 -0.5963  1.3459
  587TIP3    H223177   3.891   5.281   1.470  1.8340  2.3968  1.3782
  588TIP3   OH223178   3.739   2.516  12.914 -0.1947  0.2604 -0.1682
  588TIP3    H123179   3.713   2.473  12.833 -1.3391  1.1504 -0.3114
  588TIP3    H223180   3.665   2.501  12.974 -0.4678  1.6416 -0.1070
  589TIP3   OH223181   6.326   2.352   6.014  0.3602  0.1531  0.1905
  589TIP3    H123182   6.350   2.294   6.087 -1.1795  1.0575  1.4750
  589TIP3    H223183   6.398   2.415   6.009  1.2341 -0.8442 -0.1152
  590TIP3   OH223184   0.210   6.446   4.963 -0.3951 -0.3061  0.1912
  590TIP3    H123185   0.184   6.487   5.046  1.1139  2.3812 -0.5604
  590TIP3    H223186   0.274   6.380   4.989  0.6343  1.0137  1.1804
  591TIP3   OH223187   2.975   6.149   6.303  0.0179  0.0967 -0.5272
  591TIP3    H123188   3.019   6.160   6.219  1.6343  1.1903  0.3890
  591TIP3    H223189   2.950   6.237   6.329  1.1494  0.0433  0.9026
  592TIP3   OH223190   2.646   0.727   2.473 -0.1645 -0.2966 -0.3130
  592TIP3    H123191   2.666   0.786   2.401 -1.1636  1.8393  1.0830
  592TIP3    H223192   2.559   0.692   2.453  0.1722 -0.8744 -0.8293
  593TIP3   OH223193   6.104   6.521   0.065  0.3665  0.2272  0.4112
  593TIP3    H123194   6.012   6.528   0.040  0.1875  0.4828  1.1035
  593TIP3    H223195   6.139   6.609   0.053  0.5086  0.1398  0.1881
  594TIP3   OH223196   5.699   0.914   1.824  0.2191  0.1904  0.9617
  594TIP3    H123197   5.648   0.928   1.744  3.6182  1.6512 -1.1971
  594TIP3    H223198   5.667   0.981   1.885 -1.0408  0.4546  0.0464
  595TIP3   OH223199   2.459   2.342  16.467  0.3142 -0.7368  0.0985
  595TIP3    H123200   2.394   2.283  16.505  0.9213 -2.3593 -1.2105
  595TIP3    H223201   2.433   2.429  16.494 -2.9362 -1.2107 -1.1111
  596TIP3   OH223202   5.569   5.050   2.749  0.6190  0.2295 -0.2871
  596TIP3    H123203   5.484   5.018   2.780  0.3999 -0.0682 -1.1628
  596TIP3    H223204   5.632   5.017   2.814  0.7712 -4.3171 -2.3562
  597TIP3   OH223205   0.521   4.870   0.548  0.5970  0.2785 -0.0899
  597TIP3    H123206   0.538   4.954   0.504 -1.2411  0.5581 -0.3606
  597TIP3    H223207   0.482   4.895   0.632  0.5135 -0.3042  0.0462
  598TIP3   OH223208   1.012   1.313  12.535  0.3485 -0.2199 -0.3995
  598TIP3    H123209   1.103   1.331  12.562 -0.0222 -0.4662  1.0902
  598TIP3    H223210   0.960   1.380  12.581 -0.3532 -0.9131 -0.1689
  599TIP3   OH223211   1.265   6.653  15.719  0.5676 -0.0451  0.5695
  599TIP3    H123212   1.307   6.731  15.683 -1.6370  0.5248 -0.9336
  599TIP3    H223213   1.207   6.622  15.649 -0.2355 -1.7723  1.9203
  600TIP3   OH223214   2.427   5.738  11.604 -0.5661  0.0419 -0.0574
  600TIP3    H123215   2.374   5.792  11.663  0.9455  1.0069  0.5039
  600TIP3    H223216   2.384   5.653  11.604 -1.4151  0.4299  1.3376
  601TIP3   OH223217   3.201   3.317  15.984  0.0763 -0.1865 -0.0538
  601TIP3    H123218   3.217   3.365  16.065 -0.2159 -1.1146  0.5741
  601TIP3    H223219   3.276   3.257  15.976 -1.3123 -2.2140  1.1501
  602TIP3   OH223220   3.776   4.490   2.247 -0.0926  0.3428 -0.0926
  602TIP3    H123221   3.734   4.476   2.163 -0.4925 -0.8682  0.2804
  602TIP3    H223222   3.762   4.582   2.267 -1.8987  0.1571 -0.3539
  603TIP3   OH223223   0.310   5.693  13.450 -0.2005 -0.4299 -0.9824
  603TIP3    H123224   0.255   5.671  13.525  1.7607 -2.3187  0.0285
  603TIP3    H223225   0.281   5.634  13.381 -0.2571 -0.5671 -0.8425
  604TIP3   OH223226   3.123   5.643   2.662 -0.2192 -0.6298 -0.6836
  604TIP3    H123227   3.165   5.673   2.582  0.2319  1.2770  0.2212
  604TIP3    H223228   3.143   5.711   2.727 -1.2306 -1.7292  0.8412
  605TIP3   OH223229   1.635   4.855   1.267  0.0718  0.1811  0.1209
  605TIP3    H123230   1.622   4.786   1.332 -1.3804  1.6521  1.5213
  605TIP3    H223231   1.687   4.921   1.313  0.7313  0.3958 -0.9016
  606TIP3   OH223232   4.846   0.110   2.352 -0.1852  0.2348  0.1494
  606TIP3    H123233   4.809   0.198   2.348  1.2795  0.8459 -0.4652
  606TIP3    H223234   4.842   0.086   2.445  0.3993  1.3848  0.4843
  607TIP3   OH223235   2.726   5.708  14.774 -0.0792  0.3667 -0.3370
  607TIP3    H123236   2.671   5.661  14.711  0.1704 -0.1836 -0.1482
  607TIP3    H223237   2.703   5.800  14.762 -1.7067  0.0785  0.3890
  608TIP3   OH223238   3.155   1.159   2.786  0.5228  0.3361 -0.2773
  608TIP3    H123239   3.215   1.229   2.808  0.3298  0.4980 -0.2641
  608TIP3    H223240   3.068   1.194   2.804  0.5072 -1.2954  3.8315
  609TIP3   OH223241   1.341   4.101  11.143  0.0640  0.5618  0.3268
  609TIP3    H123242   1.346   4.077  11.051  0.2322 -1.1464  0.7476
  609TIP3    H223243   1.420   4.065  11.182 -0.7636 -0.1804  1.4124
  610TIP3   OH223244   0.524   0.425   0.795 -0.0489  0.3690  0.3112
  610TIP3    H123245   0.540   0.406   0.888  2.1820 -0.8321 -0.2470
  610TIP3    H223246   0.509   0.340   0.755  0.8791  0.6620 -0.7219
  611TIP3   OH223247   5.561   5.271  16.347  0.3418  0.6453 -0.0661
  611TIP3    H123248   5.525   5.233  16.266  0.5750 -0.0561  0.1579
  611TIP3    H223249   5.562   5.365  16.330  2.2417  0.4055 -1.6628
  612TIP3   OH223250   5.547   2.684  12.127 -0.4164 -0.1842  0.0345
  612TIP3    H123251   5.620   2.746  12.133 -0.5626  0.1025 -0.9867
  612TIP3    H223252   5.587   2.598  12.136 -0.1837  0.0385  1.2787
  613TIP3   OH223253   4.052   6.717  15.166 -0.1660 -0.2211 -0.4845
  613TIP3    H123254   4.017   6.734  15.078  0.6957  0.6500 -0.6728
  613TIP3    H223255   4.108   6.640  15.154 -0.6442 -0.5619 -0.5414
  614TIP3   OH223256   4.733   6.035   0.753  0.3308  0.0536 -0.3717
  614TIP3    H123257   4.749   6.019   0.846  1.0344 -0.4955 -0.5730
  614TIP3    H223258   4.816   6.069   0.720  0.3310 -0.4706 -0.9473
  615TIP3   OH223259   0.472   3.138  17.087 -0.3136 -0.5781 -0.0369
  615TIP3    H123260   0.420   3.166  17.012  0.8754 -1.8614 -1.4197
  615TIP3    H223261   0.475   3.042  17.080  1.2417 -0.6160  0.6444
  616TIP3   OH223262   1.330   3.908  16.705 -0.0720  0.3645  0.3172
  616TIP3    H123263   1.417   3.881  16.677 -0.8576 -0.7391 -1.2290
  616TIP3    H223264   1.310   3.985  16.653 -1.0276 -0.9381 -1.3304
  617TIP3   OH223265   5.976   4.388   5.209 -0.3398  0.0662 -0.1908
  617TIP3    H123266   5.987   4.366   5.116  0.0932 -1.4230  0.2003
  617TIP3    H223267   6.036   4.330   5.255 -1.3440  0.0219  1.1141
  618TIP3   OH223268   2.694   1.495   2.566 -0.7746  0.1296 -0.1082
  618TIP3    H123269   2.676   1.528   2.654 -2.1777 -1.5136  0.2912
  618TIP3    H223270   2.784   1.463   2.570 -0.6760  0.4637  0.5850
  619TIP3   OH223271   6.423   5.921   0.988 -0.4913  0.1849 -0.4339
  619TIP3    H123272   6.503   5.962   0.956  0.5210 -2.0059 -0.8399
  619TIP3    H223273   6.370   5.907   0.910 -0.9137  0.7992 -0.2731
  620TIP3   OH223274   1.633   4.164   6.514  0.3345  0.0616  0.2758
  620TIP3    H123275   1.647   4.249   6.557  0.2973  0.2817 -0.1457
  620TIP3    H223276   1.541   4.165   6.490  0.1023 -0.4837  1.0915
  621TIP3   OH223277   4.638   0.302   2.005  0.3085 -0.7371  0.3988
  621TIP3    H123278   4.576   0.265   1.942 -0.3086 -0.5367  0.8896
  621TIP3    H223279   4.716   0.247   1.995  0.7053  0.0630 -1.4586
  622TIP3   OH223280   2.765   2.010   1.896  0.6126  0.5318 -0.1375
  622TIP3    H123281   2.861   2.016   1.891  0.5496  3.0876  0.3537
  622TIP3    H223282   2.744   2.026   1.988 -0.2865 -1.1243 -0.0135
  623TIP3   OH223283   2.200   4.462   5.757  0.1223  0.1713 -0.1828
  623TIP3    H123284   2.105   4.457   5.758  0.0181  1.5503 -1.5111
  623TIP3    H223285   2.229   4.370   5.752 -1.0675 -0.3404  1.4904
  624TIP3   OH223286   5.718   2.075   2.311  0.0618 -0.6972 -0.4507
  624TIP3    H123287   5.669   2.053   2.232 -1.1270 -0.7147  0.2830
  624TIP3    H223288   5.715   2.171   2.314 -0.0527 -0.7062 -0.3159
  625TIP3   OH223289   6.738   4.000   3.027 -0.4432 -0.0770  0.1701
  625TIP3    H123290   6.744   4.095   3.037 -0.8888  0.0087 -0.3418
  625TIP3    H223291   6.717   3.968   3.115 -0.8984  0.3506  0.2172
  626TIP3   OH223292   5.123   6.151  15.712  0.5483 -0.0630 -1.0084
  626TIP3    H123293   5.088   6.233  15.748  1.6562  0.1547 -0.3633
  626TIP3    H223294   5.101   6.085  15.778  2.4859  0.3177  0.1193
  627TIP3   OH223295   3.077   6.270   5.272  0.2198 -0.6482 -0.4495
  627TIP3    H123296   3.042   6.260   5.360 -1.2214 -1.1851 -1.0481
  627TIP3    H223297   3.132   6.348   5.276 -0.5343 -0.1565  0.7020
  628TIP3   OH223298   0.762   0.084  14.562  0.1164 -0.2282 -0.0629
  628TIP3    H123299   0.783   0.068  14.470  0.2809 -3.3955  0.4202
  628TIP3    H223300   0.820   0.157  14.587 -0.1690  0.9346 -2.4743
  629TIP3   OH223301   3.485   5.808  14.059  0.6227 -0.2722 -0.1235
  629TIP3    H123302   3.570   5.795  14.102  0.6339 -0.2030 -0.1242
  629TIP3    H223303   3.443   5.722  14.061 -0.2822  0.1395  1.9749
  630TIP3   OH223304   1.387   2.166   3.998 -0.2236 -0.0460 -0.4904
  630TIP3    H123305   1.478   2.192   3.985  0.3350 -0.2731  2.4907
  630TIP3    H223306   1.355   2.225   4.066 -1.5292 -1.6059  0.3080
  631TIP3   OH223307   6.618   0.173   0.208 -0.0169 -0.6440 -0.2829
  631TIP3    H123308   6.527   0.200   0.196  0.6506  1.1152 -1.8448
  631TIP3    H223309   6.669   0.247   0.177  1.9919 -1.1458  1.5691
  632TIP3   OH223310   6.111   1.778   5.634  0.2704  0.2987 -0.0658
  632TIP3    H123311   6.202   1.801   5.616  0.5781  0.9153  2.0289
  632TIP3    H223312   6.114   1.688   5.667  0.0245  0.0539 -0.7028
  633TIP3   OH223313   4.019   3.608  11.791 -0.6269  0.1187 -0.1881
  633TIP3    H123314   4.057   3.695  11.777 -0.8925  0.0770 -1.2096
  633TIP3    H223315   4.054   3.554  11.721  0.3311 -0.8843  1.0154
  634TIP3   OH223316   1.759   2.755  11.224  0.2143  0.2115 -0.6925
  634TIP3    H123317   1.721   2.669  11.204  0.8351 -0.0514 -0.7615
  634TIP3    H223318   1.754   2.762  11.320  0.5852 -0.1052 -0.6475
  635TIP3   OH223319   4.520   2.519   2.753  0.0253 -0.1821  0.0547
  635TIP3    H123320   4.470   2.583   2.703  1.1433  1.1994  0.6312
  635TIP3    H223321   4.503   2.435   2.709 -0.8277  0.6292 -1.2193
  636TIP3   OH223322   0.764   6.085  11.260 -0.2218  0.2186 -0.4283
  636TIP3    H123323   0.684   6.094  11.208 -0.5129 -0.0537 -0.0373
  636TIP3    H223324   0.733   6.078  11.350  0.3058  1.2566 -0.1506
  637TIP3   OH223325   4.658   2.926  12.368  0.7773  0.6087  0.0639
  637TIP3    H123326   4.602   2.954  12.440 -0.9541  0.6213 -1.2148
  637TIP3    H223327   4.612   2.955  12.289  2.4508  0.3399 -1.0751
  638TIP3   OH223328   0.023   3.527   4.493 -0.0357 -0.2469 -0.4116
  638TIP3    H123329  -0.041   3.490   4.433 -1.9354  2.0462  0.0759
  638TIP3    H223330   0.080   3.581   4.438  0.7067 -1.2308 -0.6465
  639TIP3   OH223331   0.385   0.953   4.600  0.5351 -0.0479 -0.6652
  639TIP3    H123332   0.411   0.964   4.692  0.9502  0.5956 -0.8595
  639TIP3    H223333   0.467   0.944   4.552  0.3400  0.1576 -1.0423
  640TIP3   OH223334   0.047   4.440  11.179 -0.0004 -0.3607  0.3956
  640TIP3    H123335   0.088   4.487  11.252  0.1404 -0.6323  0.4957
  640TIP3    H223336   0.074   4.487  11.101 -0.4929  0.1836  0.5478
  641TIP3   OH223337   4.262   2.511   5.806 -0.2658  0.2819 -0.1725
  641TIP3    H123338   4.225   2.597   5.826 -0.4510  0.2423 -0.3351
  641TIP3    H223339   4.298   2.480   5.889  0.3661  0.7872 -0.2447
  642TIP3   OH223340   2.124   5.071  15.972 -0.1441 -0.3098 -0.3235
  642TIP3    H123341   2.080   4.993  16.005 -3.8992  2.7511  3.0361
  642TIP3    H223342   2.091   5.081  15.883 -0.7859 -1.7586 -0.2771
  643TIP3   OH223343   3.916   0.539  14.543  0.6702  0.5127 -0.6684
  643TIP3    H123344   3.941   0.448  14.526 -1.1263 -0.5335  1.5854
  643TIP3    H223345   3.995   0.579  14.579  0.7236 -1.0882  1.1663
  644TIP3   OH223346   2.222   0.527   0.126  0.1682  0.4895  0.0956
  644TIP3    H123347   2.157   0.573   0.179 -0.7563 -1.2634  0.5895
  644TIP3    H223348   2.173   0.495   0.050  0.6166 -0.2347  0.0990
  645TIP3   OH223349   4.523   5.779  17.393 -0.9699 -0.2710 -0.1616
  645TIP3    H123350   4.497   5.815  17.308 -2.1562 -0.9348 -0.0970
  645TIP3    H223351   4.558   5.854  17.441  0.2255  0.0128 -1.4115
  646TIP3   OH223352   5.416   4.676   1.125  0.1254  0.4023 -0.4014
  646TIP3    H123353   5.409   4.736   1.199 -0.4136  0.7280 -0.7150
  646TIP3    H223354   5.337   4.622   1.130 -1.2773  2.1453 -2.2345
  647TIP3   OH223355   1.612   5.780   3.418  0.3084  0.1831 -0.3793
  647TIP3    H123356   1.694   5.821   3.447 -0.5641  0.9798  1.0673
  647TIP3    H223357   1.588   5.829   3.339  0.7327  0.6016 -0.2578
  648TIP3   OH223358   1.348   2.724  13.318 -0.3535  0.2191 -0.4348
  648TIP3    H123359   1.332   2.814  13.348 -1.6693 -0.0340 -0.3534
  648TIP3    H223360   1.271   2.701  13.267  0.2932 -0.6247 -1.0674
  649TIP3   OH223361   4.784   0.350   0.755  0.3619  0.2286 -0.5354
  649TIP3    H123362   4.859   0.381   0.806 -0.8893  2.4850  0.0622
  649TIP3    H223363   4.733   0.297   0.816 -0.3742  1.7138  0.1785
  650TIP3   OH223364   3.139   0.994   0.246  0.2335 -0.1145  0.3100
  650TIP3    H123365   3.065   1.055   0.243 -0.9547 -1.4976  0.0683
  650TIP3    H223366   3.131   0.950   0.331  1.1860  0.1862  0.5665
  651TIP3   OH223367   3.533   4.433   2.386  0.6389 -0.2762 -0.5012
  651TIP3    H123368   3.527   4.341   2.411  1.4965 -1.1276 -3.1545
  651TIP3    H223369   3.615   4.440   2.338  0.0421  1.6307 -1.3358
  652TIP3   OH223370   5.453   1.501  15.376  0.1093 -0.0903  0.7085
  652TIP3    H123371   5.371   1.473  15.417 -0.5835 -0.4910 -0.8870
  652TIP3    H223372   5.448   1.597  15.377  0.0491 -0.0915  1.4057
  653TIP3   OH223373   2.905   1.007   1.751  0.7210 -0.3178  0.2246
  653TIP3    H123374   2.923   0.913   1.754  0.0468 -0.4525  0.2005
  653TIP3    H223375   2.829   1.018   1.809  1.1717  0.2995  0.7036
  654TIP3   OH223376   2.174   0.783   6.025 -0.1193 -0.3967 -0.8331
  654TIP3    H123377   2.099   0.724   6.015 -1.4041  1.0190 -0.0093
  654TIP3    H223378   2.189   0.788   6.119  0.8592 -0.4420 -0.9693
  655TIP3   OH223379   1.922   1.324   1.082  0.1232 -0.4144  0.0494
  655TIP3    H123380   1.926   1.293   1.172  0.4120 -0.5574 -0.0138
  655TIP3    H223381   1.921   1.244   1.029 -0.3994 -0.3404 -0.0624
  656TIP3   OH223382   4.639   2.294   3.102 -0.6577  0.1242 -0.7824
  656TIP3    H123383   4.657   2.366   3.042  1.3644  0.3647  0.0549
  656TIP3    H223384   4.720   2.243   3.105 -1.0408 -0.4697  0.9342
  657TIP3   OH223385   4.200   5.036   4.436 -0.3199 -0.5252  0.1068
  657TIP3    H123386   4.286   5.058   4.401 -0.2672 -0.5219  0.2367
  657TIP3    H223387   4.179   5.109   4.494 -0.8882  0.0176 -0.7480
  658TIP3   OH223388   0.654   0.724   5.395  0.0547 -0.5209  0.1134
  658TIP3    H123389   0.639   0.697   5.486  0.8547 -0.2831  0.3270
  658TIP3    H223390   0.731   0.675   5.367  0.3680  0.0935 -0.1262
  659TIP3   OH223391   1.407   0.643  15.030 -0.1516  0.1148  0.3915
  659TIP3    H123392   1.459   0.711  14.987 -0.7324  1.4343  1.6899
  659TIP3    H223393   1.346   0.691  15.086 -0.1048 -1.4735  1.9010
  660TIP3   OH223394   0.942   4.957  12.872 -0.2315  0.9914 -0.0595
  660TIP3    H123395   0.947   4.890  12.940 -1.1957 -0.4754 -1.3537
  660TIP3    H223396   0.874   5.017  12.902 -0.1737  0.7445  0.5811
  661TIP3   OH223397   1.578   3.651  15.588 -0.0764 -0.6010 -0.0854
  661TIP3    H123398   1.599   3.721  15.649  0.9301 -1.5706  0.7154
  661TIP3    H223399   1.484   3.660  15.572 -0.4173 -0.4521  1.7900
  662TIP3   OH223400   3.583   0.326  12.918  0.5022 -0.2790  0.6839
  662TIP3    H123401   3.582   0.346  13.011  2.9490  2.5106  0.2852
  662TIP3    H223402   3.542   0.403  12.877  0.3698 -0.9970 -0.5813
  663TIP3   OH223403   0.031   2.421   6.341 -0.5813  0.0086  0.0077
  663TIP3    H123404   0.069   2.333   6.332  0.7998  0.6693 -1.0001
  663TIP3    H223405  -0.003   2.423   6.430  0.3248 -1.1938  0.4170
  664TIP3   OH223406   2.756   2.472   4.560 -0.2049  0.5159 -0.0131
  664TIP3    H123407   2.681   2.481   4.501 -0.5984  0.7261  0.5141
  664TIP3    H223408   2.832   2.472   4.501 -0.5565  1.2377 -0.4908
  665TIP3   OH223409   3.440   2.668   0.330 -0.6396 -0.4863 -0.1606
  665TIP3    H123410   3.496   2.746   0.326 -2.0964  0.6009 -0.4355
  665TIP3    H223411   3.402   2.671   0.417  1.0301 -2.2253  0.7070
  666TIP3   OH223412   1.175   5.399  15.502 -0.4449 -0.4903  0.2289
  666TIP3    H123413   1.126   5.325  15.467 -1.3167  0.8930 -1.6866
  666TIP3    H223414   1.254   5.403  15.448 -1.3923  1.1434 -1.1706
  667TIP3   OH223415   2.936   1.346  13.830  0.6605 -0.3052  0.4020
  667TIP3    H123416   2.894   1.404  13.893 -1.1924 -1.2856  0.1467
  667TIP3    H223417   3.024   1.382  13.818  0.1448  1.4246  1.5229
  668TIP3   OH223418   0.985   6.477  13.264  0.0266 -0.0490  0.1557
  668TIP3    H123419   1.056   6.455  13.324  0.0618 -0.3546  0.0057
  668TIP3    H223420   0.905   6.451  13.311 -0.0647  1.1605  0.7166
  669TIP3   OH223421   1.519   2.742  12.569  0.2130 -0.2498 -0.5889
  669TIP3    H123422   1.559   2.709  12.649  1.9471 -3.5859 -2.6155
  669TIP3    H223423   1.553   2.686  12.500  0.3462  3.6175 -4.0339
  670TIP3   OH223424   3.876   3.684   1.738 -1.1328 -0.1183 -0.3932
  670TIP3    H123425   3.855   3.595   1.765 -1.8859 -0.0294 -0.6510
  670TIP3    H223426   3.818   3.740   1.790  0.3058  0.3321  0.7881
  671TIP3   OH223427   4.358   4.478  13.672 -0.4828  0.1295  0.7685
  671TIP3    H123428   4.329   4.515  13.756 -1.1829  4.5803 -1.1317
  671TIP3    H223429   4.449   4.455  13.686 -0.8140 -0.0756  2.9463
  672TIP3   OH223430   2.281   0.968  15.567  0.5951 -0.1552 -0.0346
  672TIP3    H123431   2.249   1.014  15.489  2.7062  1.8386  0.1538
  672TIP3    H223432   2.366   1.009  15.585  0.4125 -0.9270  3.0287
  673TIP3   OH223433   0.809   3.218   5.521  0.8515 -0.3619 -0.3499
  673TIP3    H123434   0.766   3.304   5.523  1.6110  0.0242  1.0340
  673TIP3    H223435   0.883   3.230   5.462 -0.0955 -0.6318 -1.6426
  674TIP3   OH223436   1.607   4.217  13.148  0.3969  0.3177  0.7895
  674TIP3    H123437   1.677   4.168  13.191  0.3084 -1.4224 -0.9160
  674TIP3    H223438   1.645   4.246  13.065 -0.2445  1.2910  0.8136
  675TIP3   OH223439   0.132   5.560   1.129  0.3523 -0.4607 -0.1098
  675TIP3    H123440   0.212   5.545   1.080 -0.1467 -1.0445 -0.7746
  675TIP3    H223441   0.145   5.644   1.173  1.3460 -0.5845 -0.1522
  676TIP3   OH223442   0.848   6.654   5.209 -0.2494 -0.5423  0.1554
  676TIP3    H123443   0.944   6.663   5.203 -0.4787  3.1910 -0.3989
  676TIP3    H223444   0.823   6.616   5.125  0.6948 -1.5023  0.2748
  677TIP3   OH223445   6.323   3.397  17.377 -0.6176  0.2177  0.1610
  677TIP3    H123446   6.407   3.439  17.397 -0.0896 -0.7691  0.1161
  677TIP3    H223447   6.291   3.366  17.462 -0.0519 -0.9554 -0.0257
  678TIP3   OH223448   4.084   1.110   5.148  0.0911  0.0046 -0.5946
  678TIP3    H123449   4.150   1.091   5.214 -0.0301 -1.9554 -0.9740
  678TIP3    H223450   4.009   1.142   5.197 -0.4895 -2.7063  0.4720
  679TIP3   OH223451   0.745   5.244   0.702 -0.5830  0.5750 -0.1125
  679TIP3    H123452   0.781   5.332   0.694  0.9386  0.1362  1.4014
  679TIP3    H223453   0.671   5.253   0.762  0.1052  0.7045  0.7312
  680TIP3   OH223454   6.366   3.221  13.037  0.5042  0.4437 -0.2238
  680TIP3    H123455   6.324   3.140  13.062  1.6925 -0.1467 -0.0925
  680TIP3    H223456   6.339   3.235  12.946 -0.4016  0.3718  0.0311
  681TIP3   OH223457   1.480   2.992   0.652 -0.2935  0.0120  0.6322
  681TIP3    H123458   1.405   3.009   0.595 -1.7153 -1.0513  2.0888
  681TIP3    H223459   1.445   3.001   0.741  2.0271  2.4032  1.4132
  682TIP3   OH223460   4.351   2.213   4.688  0.0141 -0.2156  0.5865
  682TIP3    H123461   4.366   2.264   4.608  0.8086 -0.4359  0.5905
  682TIP3    H223462   4.374   2.123   4.665  1.7167 -0.0409  1.4678
  683TIP3   OH223463   1.445   3.335   5.044  0.1847  0.3447 -0.1515
  683TIP3    H123464   1.386   3.327   4.969  0.6133 -0.3360 -0.4253
  683TIP3    H223465   1.403   3.284   5.113 -1.7127  3.3013  1.0791
  684TIP3   OH223466   6.055   3.928   3.090  0.2675  0.2972 -0.1006
  684TIP3    H123467   6.147   3.940   3.067  1.0094 -1.1139  1.8454
  684TIP3    H223468   6.034   3.839   3.060 -0.1462  0.2326  0.3515
  685TIP3   OH223469   2.610   2.195  16.736  0.2906 -0.2516  0.2343
  685TIP3    H123470   2.566   2.111  16.726 -1.3585  0.7898 -1.9694
  685TIP3    H223471   2.657   2.208  16.654  0.2162  1.1281  0.3788
  686TIP3   OH223472   0.517   5.204  12.245 -0.2056 -0.2701 -0.6071
  686TIP3    H123473   0.475   5.182  12.162 -0.8524 -0.1389 -0.3193
  686TIP3    H223474   0.507   5.125  12.298  2.2971 -1.2551 -1.4272
  687TIP3   OH223475   3.612   3.733  13.230 -0.2642 -0.0199  0.6488
  687TIP3    H123476   3.551   3.681  13.282 -0.7740  0.5940  0.6810
  687TIP3    H223477   3.668   3.669  13.187 -0.1300 -0.5558  1.5928
  688TIP3   OH223478   0.521   0.246  11.564 -0.3763 -0.7926  0.2901
  688TIP3    H123479   0.607   0.207  11.575 -0.1637 -0.8630 -1.4736
  688TIP3    H223480   0.460   0.175  11.586  0.0104 -1.3764 -0.4873
  689TIP3   OH223481   4.540   3.212  11.046  0.1671  0.1050 -0.0103
  689TIP3    H123482   4.586   3.241  11.125  0.9362  0.3872 -0.5435
  689TIP3    H223483   4.537   3.116  11.054  0.0070  0.1494  0.4853
  690TIP3   OH223484   2.362   1.153   2.195 -0.4938 -0.0911 -0.4879
  690TIP3    H123485   2.283   1.184   2.151 -0.4238 -0.1650 -0.6675
  690TIP3    H223486   2.433   1.176   2.136 -0.6006 -2.3877 -1.6254
  691TIP3   OH223487   1.007   0.682   3.185 -0.2362 -0.0340  0.1918
  691TIP3    H123488   1.095   0.704   3.216  0.4037 -2.1942  0.0776
  691TIP3    H223489   1.021   0.613   3.120 -1.9359  0.6177 -0.9267
  692TIP3   OH223490   0.906   2.563   3.173  0.3299 -0.3640 -0.0304
  692TIP3    H123491   0.825   2.597   3.210 -0.8753 -3.2192  0.1731
  692TIP3    H223492   0.879   2.521   3.091  1.8192 -0.2569 -0.6039
  693TIP3   OH223493   2.815   1.417  15.154  0.5028  0.5603 -0.5822
  693TIP3    H123494   2.881   1.475  15.115 -0.1319  1.7602  0.0453
  693TIP3    H223495   2.744   1.415  15.091  1.4223 -1.3872 -1.6310
  694TIP3   OH223496   5.943   4.600   1.826 -0.3973 -0.0769 -0.4019
  694TIP3    H123497   5.862   4.549   1.832  0.1667 -1.5650 -3.3305
  694TIP3    H223498   5.916   4.691   1.832 -2.3095 -0.5500 -1.2818
  695TIP3   OH223499   3.263   5.892   3.073 -0.2970  0.3631 -0.3478
  695TIP3    H123500   3.203   5.967   3.067  0.9406  1.6396  1.8705
  695TIP3    H223501   3.342   5.928   3.112  0.2114 -2.1812  1.1745
  696TIP3   OH223502   4.012   0.357   2.997 -0.3509 -0.0465 -0.3794
  696TIP3    H123503   4.069   0.422   2.955 -1.0629  0.7819 -0.0913
  696TIP3    H223504   3.955   0.409   3.053 -3.5157 -0.4542 -2.9346
  697TIP3   OH223505   0.329   4.082  11.920  0.3351 -0.2132  0.4363
  697TIP3    H123506   0.422   4.059  11.922  0.8441  1.6086 -0.6283
  697TIP3    H223507   0.321   4.149  11.853 -1.5691  0.4848  1.2672
  698TIP3   OH223508   0.702   5.557  12.473 -0.2626  0.2587 -0.4218
  698TIP3    H123509   0.718   5.474  12.428  1.2384  1.1045 -1.5411
  698TIP3    H223510   0.607   5.561  12.484 -0.3714 -1.5065 -0.5269
  699TIP3   OH223511   5.745   3.935   1.573  0.2498  0.6217  0.9053
  699TIP3    H123512   5.704   3.951   1.488 -1.8754  0.3207  1.8224
  699TIP3    H223513   5.839   3.934   1.554 -0.1805 -0.0956 -1.5338
  700TIP3   OH223514   1.628   4.307  11.945  0.0049 -0.0279  0.1197
  700TIP3    H123515   1.591   4.281  11.861 -0.4558  1.2222 -0.0937
  700TIP3    H223516   1.706   4.358  11.922 -1.4399  2.4335  0.2746
  701TIP3   OH223517   5.946   2.727   5.240 -0.5135 -0.5685  0.6164
  701TIP3    H123518   6.029   2.684   5.221 -0.0816  0.0127  1.1216
  701TIP3    H223519   5.972   2.811   5.279 -1.3353 -0.1653  0.3053
  702TIP3   OH223520   6.473   5.770  12.574 -0.2299  0.0645 -0.0761
  702TIP3    H123521   6.419   5.806  12.644  0.1236  0.6267 -0.0896
  702TIP3    H223522   6.413   5.760  12.500 -0.0203  2.0649 -0.5568
  703TIP3   OH223523   2.819   6.169   5.774 -0.2880  0.4567  0.5325
  703TIP3    H123524   2.776   6.255   5.770  1.8491  1.5788 -0.2101
  703TIP3    H223525   2.911   6.190   5.794  0.7460 -1.4577 -1.7630
  704TIP3   OH223526   5.074   3.721   1.479  0.2094  0.7484 -0.4034
  704TIP3    H123527   5.105   3.787   1.416 -4.9165  4.6878  0.4448
  704TIP3    H223528   4.986   3.700   1.449 -0.0096 -2.3959  1.9689
  705TIP3   OH223529   4.430   3.394  13.059  0.4627  0.1837 -0.5399
  705TIP3    H123530   4.458   3.303  13.054  2.9888  0.8407  0.2078
  705TIP3    H223531   4.341   3.390  13.096  0.1855 -1.9663 -1.2874
  706TIP3   OH223532   2.162   4.790  14.863  0.1481 -0.2612  0.0582
  706TIP3    H123533   2.196   4.810  14.775  0.1501  1.8005  0.4884
  706TIP3    H223534   2.212   4.847  14.922  0.4276 -1.8991  1.4794
  707TIP3   OH223535   6.094   6.417   3.847 -0.0256 -0.2562 -0.3237
  707TIP3    H123536   6.136   6.342   3.887 -0.1383 -0.1694 -0.0433
  707TIP3    H223537   6.000   6.403   3.862 -0.1645 -0.8269 -1.5876
  708TIP3   OH223538   4.493   5.534   2.177  0.5774  0.0634 -0.1965
  708TIP3    H123539   4.429   5.464   2.160 -0.8105  1.1526  0.3168
  708TIP3    H223540   4.494   5.585   2.095  1.5182 -0.4917 -0.5388
  709TIP3   OH223541   5.607   2.127  14.697  0.1400 -0.2105 -0.2232
  709TIP3    H123542   5.643   2.191  14.636 -1.9490  1.1087 -0.1984
  709TIP3    H223543   5.566   2.181  14.766 -0.9302 -1.5818  0.2577
  710TIP3   OH223544   5.419   2.689   4.389 -0.5174 -0.1051 -0.1532
  710TIP3    H123545   5.479   2.619   4.413 -0.8333 -0.2665  0.1700
  710TIP3    H223546   5.332   2.655   4.409 -0.6548  0.5196  0.3762
  711TIP3   OH223547   2.565   4.352  13.894  0.0634 -0.0621  0.5952
  711TIP3    H123548   2.510   4.283  13.856  1.8289 -1.1365 -0.1183
  711TIP3    H223549   2.503   4.408  13.942 -1.5939 -1.3888  0.1094
  712TIP3   OH223550   0.731   4.167  16.608  0.0968  0.0183 -0.1382
  712TIP3    H123551   0.786   4.245  16.600  2.2387 -1.5532 -1.9105
  712TIP3    H223552   0.736   4.143  16.700 -0.6273  1.9371  0.4399
  713TIP3   OH223553   5.780   1.936  16.983 -0.1500  0.4343 -0.2485
  713TIP3    H123554   5.809   1.847  16.963 -1.3252 -0.2384  0.8848
  713TIP3    H223555   5.829   1.992  16.922  1.4317 -0.8736 -0.2305
  714TIP3   OH223556   3.515   4.800  11.539 -0.1310 -0.0954 -0.3734
  714TIP3    H123557   3.599   4.833  11.505 -0.6158  0.4665 -1.0682
  714TIP3    H223558   3.500   4.719  11.490 -0.8471  0.7339 -1.5941
  715TIP3   OH223559   3.421   5.938  14.812  0.5712  0.2823 -0.0732
  715TIP3    H123560   3.501   5.975  14.773  0.7349 -0.9739 -0.9894
  715TIP3    H223561   3.417   5.849  14.777  0.1135 -0.5348  1.9340
  716TIP3   OH223562   5.427   2.574  17.149  0.3057  0.3014 -0.3722
  716TIP3    H123563   5.446   2.559  17.241 -4.0031  0.4108  0.7269
  716TIP3    H223564   5.473   2.656  17.128  0.8402  0.6376  1.8459
  717TIP3   OH223565   6.019   0.089   5.827  0.4626 -0.0354  0.1171
  717TIP3    H123566   5.929   0.116   5.847  0.3857 -1.0250  1.1861
  717TIP3    H223567   6.063   0.090   5.911  1.5515  0.7179 -0.4399
  718TIP3   OH223568   0.272   1.593   3.765  0.4478 -0.0251 -0.3983
  718TIP3    H123569   0.225   1.677   3.772 -1.0816 -0.9670  1.6756
  718TIP3    H223570   0.234   1.551   3.688 -1.0241 -0.0485  0.2939
  719TIP3   OH223571   6.548   0.878  17.360 -0.3183  0.3598  0.1818
  719TIP3    H123572   6.606   0.926  17.300  0.8059  0.5006  1.3607
  719TIP3    H223573   6.460   0.899  17.328  0.2248  1.1269 -0.8974
  720TIP3   OH223574   0.124   0.778  11.401  0.1738 -0.3535 -0.2797
  720TIP3    H123575   0.134   0.771  11.496  0.0660 -1.0733 -0.3112
  720TIP3    H223576   0.106   0.688  11.373  0.4400 -0.1839 -1.0073
  721TIP3   OH223577   0.371   4.524  14.185  0.5982  0.2562 -0.2149
  721TIP3    H123578   0.447   4.504  14.241  0.1162  0.0008  0.3626
  721TIP3    H223579   0.305   4.460  14.212  0.9947 -1.2053 -2.4483
  722TIP3   OH223580   5.028   0.528   4.333  0.0171  0.3826  0.7900
  722TIP3    H123581   5.076   0.449   4.309 -0.8530  0.4140 -1.3353
  722TIP3    H223582   5.064   0.554   4.418  1.2656 -1.5185  0.8951
  723TIP3   OH223583   0.108   0.536  12.058  0.1314  0.4885  0.4262
  723TIP3    H123584   0.021   0.575  12.049 -0.7609 -1.1756  1.2744
  723TIP3    H223585   0.119   0.483  11.980 -0.2806 -0.4736  1.0028
  724TIP3   OH223586   5.982   3.870  17.151 -0.2237 -0.2085  0.6576
  724TIP3    H123587   5.901   3.919  17.137  0.1443 -0.0006 -0.8531
  724TIP3    H223588   5.979   3.845  17.244 -1.7940  0.1811  0.7378
  725TIP3   OH223589   1.628   4.793   3.652  0.1050  0.0870 -0.2197
  725TIP3    H123590   1.680   4.873   3.649 -1.9706  1.5062 -0.4789
  725TIP3    H223591   1.584   4.790   3.567 -0.7280 -0.7046  0.2254
  726TIP3   OH223592   2.100   1.747   4.551  0.1512 -0.2770  0.2478
  726TIP3    H123593   2.060   1.724   4.467 -3.3894  0.1881  1.5957
  726TIP3    H223594   2.026   1.749   4.612  2.3827  0.5982  3.1438
  727TIP3   OH223595   1.745   0.765  12.392 -0.3820 -0.0162 -0.6907
  727TIP3    H123596   1.710   0.685  12.432  0.1737 -0.1684 -0.5120
  727TIP3    H223597   1.786   0.812  12.465  0.4342 -0.1856 -1.0413
  728TIP3   OH223598   2.167   4.893  11.368  0.2312 -0.3003  0.5336
  728TIP3    H123599   2.241   4.872  11.310  0.0313  0.4133  0.0056
  728TIP3    H223600   2.090   4.859  11.321  0.1223 -0.1696  0.6172
  729TIP3   OH223601   4.256   6.269   4.359  0.4081 -0.3418 -0.4088
  729TIP3    H123602   4.250   6.333   4.288 -1.0583  2.1897  1.8041
  729TIP3    H223603   4.172   6.223   4.356 -0.1248  0.5491  0.3071
  730TIP3   OH223604   5.987   2.032  15.183 -0.3994  0.0981  0.2854
  730TIP3    H123605   6.024   1.968  15.121  2.5532 -2.1924  3.9680
  730TIP3    H223606   5.906   1.991  15.214 -0.8735  0.3496 -0.5799
  731TIP3   OH223607   4.717   6.270   3.059 -0.4978 -0.5568  0.4241
  731TIP3    H123608   4.705   6.315   2.975  1.3800  0.4125  0.6127
  731TIP3    H223609   4.701   6.178   3.039 -1.8720 -0.1465 -0.5627
  732TIP3   OH223610   5.598   6.276   1.429 -0.1085  0.1709 -0.2519
  732TIP3    H123611   5.630   6.366   1.423  0.9500 -0.2005 -0.5334
  732TIP3    H223612   5.551   6.262   1.347  2.7261 -0.5956 -1.8961
  733TIP3   OH223613   2.664   6.334   5.198 -0.3701 -0.0233  0.3141
  733TIP3    H123614   2.680   6.428   5.212  1.0244 -0.3143  0.8326
  733TIP3    H223615   2.676   6.322   5.103  0.7281  0.1225  0.4132
  734TIP3   OH223616   6.333   5.506  17.380 -0.0612 -0.2482 -0.0102
  734TIP3    H123617   6.371   5.572  17.438 -0.8230 -1.3069  1.7774
  734TIP3    H223618   6.373   5.424  17.408 -2.1944 -1.1215  0.6705
  735TIP3   OH223619   6.493   2.105  11.482 -0.1225  0.3905 -0.5570
  735TIP3    H123620   6.448   2.140  11.559  1.1681 -0.2356  0.5399
  735TIP3    H223621   6.450   2.146  11.407 -0.3540  2.3104  0.5598
  736TIP3   OH223622   6.712   4.630   4.919  0.1784 -0.1188 -0.6113
  736TIP3    H123623   6.627   4.667   4.894 -0.7590 -1.1467  0.8709
  736TIP3    H223624   6.767   4.706   4.938 -0.0927  0.5869 -2.4666
  737TIP3   OH223625   4.093   2.830  12.622  0.0065  0.1320  0.2316
  737TIP3    H123626   4.003   2.847  12.650 -0.0315 -0.0786  0.2381
  737TIP3    H223627   4.108   2.738  12.643 -0.0961 -0.0922 -0.6195
  738TIP3   OH223628   2.701   5.754   0.594 -0.0355  0.2728 -0.0200
  738TIP3    H123629   2.722   5.833   0.644 -0.0387  0.3140 -0.0839
  738TIP3    H223630   2.605   5.752   0.589 -0.0129  1.0770 -1.3087
  739TIP3   OH223631   5.597   1.023  14.052  0.0550 -0.1362  0.2729
  739TIP3    H123632   5.690   1.031  14.031  0.6959 -0.9890  2.4515
  739TIP3    H223633   5.592   0.948  14.111 -2.3241 -1.3545 -1.3064
  740TIP3   OH223634   2.921   5.376  16.561 -0.3468 -0.8174 -0.0585
  740TIP3    H123635   2.890   5.359  16.472  0.4827 -2.0054 -0.1528
  740TIP3    H223636   2.895   5.298  16.611 -0.0341 -0.5541  0.5326
  741TIP3   OH223637   1.409   0.665  12.432 -0.4218  0.3131  0.2640
  741TIP3    H123638   1.343   0.602  12.461  0.8710 -1.8812 -1.2164
  741TIP3    H223639   1.383   0.689  12.343  0.3552 -0.0427 -0.0766
  742TIP3   OH223640   0.100   6.414   0.420 -0.5357  0.1668  0.3181
  742TIP3    H123641   0.114   6.320   0.417 -1.9699 -0.0677 -2.3551
  742TIP3    H223642   0.041   6.427   0.495 -1.1426 -1.2188  0.1129
  743TIP3   OH223643   3.757   0.725   5.939 -0.4488 -0.2526  0.4205
  743TIP3    H123644   3.739   0.631   5.941  1.5964 -0.7717 -1.2614
  743TIP3    H223645   3.728   0.752   5.851 -1.5517  0.8454  1.0982
  744TIP3   OH223646   3.651   3.138  14.647  0.3100  0.5904 -0.2681
  744TIP3    H123647   3.604   3.121  14.729 -0.1167 -1.0743 -0.8195
  744TIP3    H223648   3.647   3.233  14.637 -1.6138  0.6341  0.4848
  745TIP3   OH223649   0.387   5.975   1.836  0.3743  0.2837  0.0769
  745TIP3    H123650   0.472   5.931   1.849 -0.5415 -2.0675 -1.1920
  745TIP3    H223651   0.337   5.955   1.915  0.6502  0.8177  0.3905
  746TIP3   OH223652   1.009   1.761   3.608 -0.1458 -0.4403 -0.2360
  746TIP3    H123653   0.930   1.708   3.614 -0.4329  0.0387  0.2405
  746TIP3    H223654   1.022   1.795   3.697  0.3267 -0.1241 -0.4217
  747TIP3   OH223655   3.353   1.782  13.306  0.5095  0.4036 -0.4306
  747TIP3    H123656   3.271   1.742  13.278 -0.3130  1.2905  0.6248
  747TIP3    H223657   3.346   1.874  13.278  1.6036  0.2605 -1.2480
  748TIP3   OH223658   0.674   0.026   6.402  0.7299  0.4683  0.0050
  748TIP3    H123659   0.633   0.063   6.480  0.1117  0.8260 -0.4754
  748TIP3    H223660   0.768   0.030   6.419  0.5985  0.4921  0.7480
  749TIP3   OH223661   4.611   4.965  14.247 -0.0090  0.0815 -0.6558
  749TIP3    H123662   4.672   4.891  14.255 -0.3936 -0.1043  0.9653
  749TIP3    H223663   4.566   4.950  14.164  0.9323 -0.7250 -1.0357
  750TIP3   OH223664   5.241   0.210   6.331 -0.4032 -0.2818 -0.0098
  750TIP3    H123665   5.151   0.202   6.364 -0.6940 -3.8234 -1.2711
  750TIP3    H223666   5.296   0.183   6.405 -0.7985 -3.4782 -0.7301
  751TIP3   OH223667   5.697   0.975  11.126 -0.2764 -0.3120  0.4431
  751TIP3    H123668   5.652   1.041  11.178  0.7140 -0.4342  1.4919
  751TIP3    H223669   5.643   0.965  11.048 -1.8744 -0.1977  1.4812
  752TIP3   OH223670   3.936   6.432   4.347 -0.4582 -0.2847  0.2535
  752TIP3    H123671   3.932   6.337   4.354 -0.0744 -0.3574 -0.4360
  752TIP3    H223672   3.940   6.463   4.438  1.2122 -1.0149  0.4653
  753TIP3   OH223673   0.932   5.744  13.073 -0.2355  0.1960  0.1065
  753TIP3    H123674   0.895   5.817  13.025  1.4850  1.6443  0.8587
  753TIP3    H223675   0.861   5.714  13.130 -1.3854  0.3466 -1.2181
  754TIP3   OH223676   2.811   0.092  14.812 -0.3762 -0.7542  0.2490
  754TIP3    H123677   2.733   0.130  14.852 -0.9193 -1.1997 -0.3714
  754TIP3    H223678   2.817   0.005  14.850  0.0788 -0.5606  0.6303
  755TIP3   OH223679   6.238   4.275  11.799  0.2169  0.3141  0.2766
  755TIP3    H123680   6.162   4.274  11.740 -1.7974  1.5531  2.6500
  755TIP3    H223681   6.286   4.355  11.776 -0.6091  0.8440  0.3621
  756TIP3   OH223682   0.897   6.401   3.797  0.3079 -0.3346  0.4554
  756TIP3    H123683   0.913   6.422   3.705  0.2207  0.7218  0.6641
  756TIP3    H223684   0.829   6.333   3.795 -0.0937  0.0761 -0.2490
  757TIP3   OH223685   6.276   3.456   1.662  0.4720  0.0618 -0.0206
  757TIP3    H123686   6.213   3.432   1.729 -0.0384  0.4166 -0.3596
  757TIP3    H223687   6.351   3.397   1.676 -0.8477 -1.9622 -1.0252
  758TIP3   OH223688   2.012   3.935   0.364 -0.2544 -0.2316 -0.0221
  758TIP3    H123689   2.098   3.976   0.361 -0.9179  1.1974 -0.6738
  758TIP3    H223690   2.026   3.853   0.410  1.5839 -0.3585 -0.7212
  759TIP3   OH223691   4.142   5.862  12.357 -0.0726 -0.7423 -0.2003
  759TIP3    H123692   4.205   5.931  12.380 -1.7839  0.6941  0.4727
  759TIP3    H223693   4.155   5.794  12.423 -0.4144  0.3483  1.0420
  760TIP3   OH223694   3.444   1.016   1.968 -0.9475 -0.2458  0.0872
  760TIP3    H123695   3.402   1.095   2.001 -0.2071  0.1090  0.1927
  760TIP3    H223696   3.468   1.037   1.878  0.5254  0.1657  0.5571
  761TIP3   OH223697   2.897   2.035  10.981 -0.7540  0.1967  0.5841
  761TIP3    H123698   2.987   2.066  10.990 -0.1846 -1.1480 -0.0617
  761TIP3    H223699   2.902   1.942  11.002 -1.5700 -0.3802 -1.4471
  762TIP3   OH223700   6.352   2.388   4.999  0.2712 -0.3968 -0.4777
  762TIP3    H123701   6.383   2.325   4.934  0.3816 -1.0452  0.1871
  762TIP3    H223702   6.394   2.360   5.081  0.5335  0.7060 -0.2193
  763TIP3   OH223703   0.468   1.188   3.350  0.3024 -0.4671 -0.3221
  763TIP3    H123704   0.469   1.186   3.254 -0.4546  1.2241 -0.4052
  763TIP3    H223705   0.540   1.246   3.374  0.7892 -1.2540  0.1813
  764TIP3   OH223706   0.930   2.442  16.173  0.5190  0.1734  0.1411
  764TIP3    H123707   0.891   2.466  16.257  0.9064 -0.3155  0.4704
  764TIP3    H223708   1.025   2.449  16.188  0.6119 -0.6696 -0.0234
  765TIP3   OH223709   0.788   2.174   4.481 -0.5748  0.0620  0.2383
  765TIP3    H123710   0.875   2.206   4.455 -0.7789 -0.1165 -0.6971
  765TIP3    H223711   0.727   2.231   4.436 -0.9432 -1.2896 -1.0507
  766TIP3   OH223712   0.663   4.074   1.250  0.1450 -0.4211 -0.2688
  766TIP3    H123713   0.595   4.083   1.183 -0.5913  0.7434  0.5984
  766TIP3    H223714   0.621   4.106   1.330  1.3922 -0.6758  0.4987
  767TIP3   OH223715   0.201   3.902  10.943 -0.3183 -0.5172 -0.2985
  767TIP3    H123716   0.260   3.926  11.014  0.3098  1.4384 -1.4062
  767TIP3    H223717   0.174   3.812  10.963  1.0725 -0.5749  1.5437
  768TIP3   OH223718   3.977   6.606   2.403  0.2080  0.0275 -0.5181
  768TIP3    H123719   3.964   6.514   2.426 -0.1000 -0.7012 -3.2901
  768TIP3    H223720   3.960   6.653   2.485 -2.5640 -2.1658  0.3417
  769TIP3   OH223721   2.250   2.836  12.433  0.3217  0.7613 -0.2185
  769TIP3    H123722   2.230   2.907  12.372 -0.6442  0.1209 -0.6753
  769TIP3    H223723   2.345   2.828  12.431  0.3925  1.6633 -0.5989
  770TIP3   OH223724   3.308   6.525  12.356  0.0397 -0.0876  0.1310
  770TIP3    H123725   3.257   6.524  12.438 -1.6396  2.1269 -0.7812
  770TIP3    H223726   3.242   6.522  12.287  1.4687 -3.1976 -1.2812
  771TIP3   OH223727   6.239   4.303   1.366  0.0415  0.4054 -0.0845
  771TIP3    H123728   6.228   4.330   1.457  0.0429  1.4933 -0.3905
  771TIP3    H223729   6.332   4.313   1.350 -0.1652  1.7312 -0.6326
  772TIP3   OH223730   5.388   5.772  12.018  0.3839 -0.6153 -0.1751
  772TIP3    H123731   5.453   5.781  11.948  0.8495  0.6231  0.3889
  772TIP3    H223732   5.415   5.835  12.085 -1.9992  0.8133 -0.4193
  773TIP3   OH223733   5.989   1.617  14.760 -0.3641  0.0457 -0.5732
  773TIP3    H123734   6.079   1.587  14.776 -0.3926  0.2453 -0.0196
  773TIP3    H223735   5.999   1.694  14.703 -0.0791  1.0004  0.7322
  774TIP3   OH223736   5.630   5.212  11.043 -0.1034  0.1532 -0.0903
  774TIP3    H123737   5.549   5.180  11.003  0.2632 -1.8788  0.6735
  774TIP3    H223738   5.681   5.133  11.060  1.3100  1.2577  1.0391
  775TIP3   OH223739   6.196   4.238  15.594  0.8033 -0.2976  0.0674
  775TIP3    H123740   6.100   4.236  15.592  0.8098 -0.9695  0.1196
  775TIP3    H223741   6.218   4.322  15.633  0.2365 -0.0054 -0.2342
  776TIP3   OH223742   0.164   3.934  16.027 -0.3082 -0.2154 -0.3482
  776TIP3    H123743   0.085   3.934  15.973 -0.7652 -0.1125  0.3064
  776TIP3    H223744   0.236   3.929  15.964 -0.7545  1.6995 -1.0773
  777TIP3   OH223745   6.438   0.297   4.523  0.1008  0.5998  0.6863
  777TIP3    H123746   6.361   0.344   4.491 -0.6296 -1.8209 -1.4110
  777TIP3    H223747   6.429   0.297   4.619 -2.6708  0.1573  0.4866
  778TIP3   OH223748   2.178   3.941  12.839  0.1804  0.6230 -0.2899
  778TIP3    H123749   2.233   3.922  12.914  0.3969  0.5799 -0.4600
  778TIP3    H223750   2.092   3.904  12.862  0.9116 -1.7473 -1.1491
  779TIP3   OH223751   5.182   6.292  11.174 -0.9635  0.1840  0.1704
  779TIP3    H123752   5.226   6.229  11.117  0.3589  0.3299  0.9833
  779TIP3    H223753   5.157   6.364  11.115  0.8001  0.5502 -0.1998
  780TIP3   OH223754   0.980   6.693  12.360 -0.1384  0.1261  0.6489
  780TIP3    H123755   0.897   6.723  12.398  1.7858  1.3190  4.4405
  780TIP3    H223756   0.992   6.605  12.396 -1.0564 -1.3975 -2.4165
  781TIP3   OH223757   3.431   6.166   2.960 -0.1578 -1.3889  0.2381
  781TIP3    H123758   3.448   6.106   3.032  3.0385  2.0425  2.7620
  781TIP3    H223759   3.364   6.225   2.993 -1.3220 -1.9042 -1.1306
  782TIP3   OH223760   5.988   0.824   3.033 -0.0853  0.1548  0.4582
  782TIP3    H123761   5.942   0.741   3.037 -1.1996  0.4633 -2.7657
  782TIP3    H223762   6.039   0.820   2.952 -0.7743  2.8090 -0.2348
  783TIP3   OH223763   6.358   3.626  11.924  0.0253 -0.2745 -0.0929
  783TIP3    H123764   6.350   3.545  11.974  0.7022 -1.8622 -2.3903
  783TIP3    H223765   6.279   3.676  11.945 -1.0615 -2.1082  0.3941
  784TIP3   OH223766   5.480   3.354  14.405  0.2091 -0.1202  0.2734
  784TIP3    H123767   5.437   3.341  14.490 -0.0013  0.1756  0.2113
  784TIP3    H223768   5.425   3.417  14.359 -0.2709 -1.1006 -0.5204
  785TIP3   OH223769   0.020   6.169  14.858  0.2801 -0.0039 -0.0184
  785TIP3    H123770  -0.010   6.214  14.937 -0.6645 -0.5919 -0.0163
  785TIP3    H223771  -0.043   6.195  14.790  1.5125  1.0883 -0.7912
  786TIP3   OH223772   1.660   0.377   5.795  0.2949  0.2521 -0.6711
  786TIP3    H123773   1.701   0.343   5.715  0.0021  2.4002 -1.7939
  786TIP3    H223774   1.613   0.301   5.831  2.0569 -1.2863 -1.4035
  787TIP3   OH223775   3.708   1.661   4.645  0.3378  0.4982 -0.1814
  787TIP3    H123776   3.776   1.596   4.665 -0.1430 -0.2685 -0.9632
  787TIP3    H223777   3.669   1.630   4.563 -1.1570  0.7411  0.4031
  788TIP3   OH223778   2.421   5.590   3.812  0.4936  0.0050  0.2099
  788TIP3    H123779   2.406   5.618   3.721  0.6181 -1.5668 -0.3299
  788TIP3    H223780   2.486   5.520   3.804 -0.2022 -0.8065  1.4059
  789TIP3   OH223781   1.243   1.959   1.732  0.6970  0.5570 -0.3325
  789TIP3    H123782   1.294   1.930   1.656 -1.4783  0.2725 -1.7981
  789TIP3    H223783   1.172   1.895   1.738 -0.1537  1.5776  0.8730
  790TIP3   OH223784   5.232   0.466   1.166 -0.1628 -0.1074 -0.0372
  790TIP3    H123785   5.172   0.539   1.185 -1.7022 -1.4367  0.4662
  790TIP3    H223786   5.174   0.392   1.147  1.3417 -1.4205  0.2870
  791TIP3   OH223787   1.536   3.371   0.778  0.9538  1.2365  0.1016
  791TIP3    H123788   1.543   3.287   0.823 -0.2535  0.2038 -1.5380
  791TIP3    H223789   1.561   3.436   0.844 -0.4672 -0.2182  2.1794
  792TIP3   OH223790   5.331   1.723  12.866  0.1693 -0.5190 -0.0937
  792TIP3    H123791   5.397   1.654  12.851 -0.4794 -1.0208 -0.6794
  792TIP3    H223792   5.381   1.804  12.866  0.7497 -0.8683 -0.8584
  793TIP3   OH223793   4.339   5.249   1.707 -0.0998  0.4487  0.2297
  793TIP3    H123794   4.319   5.318   1.645  0.9296  0.1870 -0.4081
  793TIP3    H223795   4.325   5.168   1.659 -1.1625  0.1889  0.9300
  794TIP3   OH223796   1.616   2.128   1.175 -0.2754 -0.0912  0.5073
  794TIP3    H123797   1.632   2.157   1.085  0.1955 -1.3253  0.1756
  794TIP3    H223798   1.671   2.185   1.229  0.4586 -0.2038 -0.1106
  795TIP3   OH223799   2.070   6.006   5.631  0.1411 -0.2260 -0.2402
  795TIP3    H123800   2.018   5.992   5.552  1.0723  0.8613 -1.0685
  795TIP3    H223801   2.135   5.937   5.630 -1.0891 -1.4639  0.6882
  796TIP3   OH223802   0.865   1.648  15.025  0.3879 -0.1381 -0.0623
  796TIP3    H123803   0.843   1.732  15.064 -1.5128 -0.7655  0.3567
  796TIP3    H223804   0.917   1.603  15.092 -0.0994  0.0440  0.4494
  797TIP3   OH223805   2.019   2.213   2.656  0.3501 -0.6330  0.1901
  797TIP3    H123806   2.094   2.165   2.621  1.0508  0.4600  0.1544
  797TIP3    H223807   2.047   2.240   2.743 -0.1476 -0.5331  0.3179
  798TIP3   OH223808   6.546   1.599   4.721 -0.0123  0.8507 -0.2977
  798TIP3    H123809   6.526   1.675   4.776  0.1207 -0.4872  1.6858
  798TIP3    H223810   6.470   1.592   4.663 -0.3174  2.1159 -0.1003
  799TIP3   OH223811   5.272   4.967   3.126  0.4406  0.1868 -0.0676
  799TIP3    H123812   5.299   5.028   3.194 -2.1874 -2.2447  3.4811
  799TIP3    H223813   5.291   4.880   3.161 -2.2890 -1.2550 -1.7376
  800TIP3   OH223814   3.971   0.277   5.334 -0.2779 -0.0689  0.3536
  800TIP3    H123815   3.999   0.358   5.291 -0.5767 -0.6134 -0.9392
  800TIP3    H223816   3.875   0.281   5.331 -0.2941 -0.4257  0.3782
  801TIP3   OH223817   6.359   1.012  13.875 -0.3004 -0.2962 -0.0001
  801TIP3    H123818   6.382   0.979  13.961 -1.6301 -1.6782 -0.1354
  801TIP3    H223819   6.369   1.107  13.882  0.8242 -0.4810  1.2698
  802TIP3   OH223820   1.637   0.464   5.211  0.1999 -0.3046 -0.2735
  802TIP3    H123821   1.568   0.509   5.162  0.0095 -0.6266 -0.3035
  802TIP3    H223822   1.717   0.513   5.191  0.0972 -0.3438 -0.7829
  803TIP3   OH223823   4.019   3.316   5.815  0.3228 -0.1958 -0.3601
  803TIP3    H123824   4.101   3.292   5.858  1.0109 -1.6945 -2.3669
  803TIP3    H223825   4.034   3.404   5.780  2.1451 -1.4355 -2.9919
  804TIP3   OH223826   3.399   3.451  14.934 -0.6210 -0.1715  0.1979
  804TIP3    H123827   3.361   3.517  14.991 -0.4782  0.3913 -0.3396
  804TIP3    H223828   3.333   3.382  14.929 -0.5426 -0.3340  1.2069
  805TIP3   OH223829   0.448   3.518   2.652  0.2909 -0.4813 -0.0875
  805TIP3    H123830   0.467   3.469   2.572 -0.9122 -3.0427  1.0937
  805TIP3    H223831   0.352   3.523   2.655  0.3004  3.4966 -0.9411
  806TIP3   OH223832   5.917   5.197   5.534  0.0283 -0.3876  0.1618
  806TIP3    H123833   5.897   5.287   5.558 -2.1040 -0.3782 -1.3838
  806TIP3    H223834   5.993   5.204   5.475 -0.7538  0.5236 -0.7639
  807TIP3   OH223835   6.580   2.510  13.387 -0.1210  0.0719 -0.2422
  807TIP3    H123836   6.652   2.485  13.445  0.2952  0.0445 -0.7716
  807TIP3    H223837   6.614   2.499  13.299 -1.1796 -1.1383 -0.5287
  808TIP3   OH223838   6.749   3.402   4.099  0.2368 -0.7040 -0.1526
  808TIP3    H123839   6.824   3.376   4.152 -0.6968 -0.3331  1.3995
  808TIP3    H223840   6.680   3.420   4.162 -0.4544  1.3386 -1.3832
  809TIP3   OH223841   2.889   0.329   2.266  1.0912 -0.0575  0.5214
  809TIP3    H123842   2.947   0.393   2.307 -0.1516  0.0361  2.2425
  809TIP3    H223843   2.921   0.244   2.296  0.7890 -0.0490  0.8701
  810TIP3   OH223844   2.872   0.418   3.116  0.4874  0.3747  0.3782
  810TIP3    H123845   2.956   0.413   3.071 -0.7479  0.0050 -2.0445
  810TIP3    H223846   2.835   0.501   3.087 -0.6588 -0.2122  0.1135
  811TIP3   OH223847   3.623   4.608  13.033  0.3839 -0.1389 -0.0217
  811TIP3    H123848   3.718   4.614  13.040  0.3710 -0.0294  0.0663
  811TIP3    H223849   3.608   4.539  12.969  0.5016 -2.1104  1.9731
  812TIP3   OH223850   2.354   1.730   3.183 -0.3664 -0.3672 -0.0887
  812TIP3    H123851   2.318   1.805   3.230  0.0106 -1.0963  1.4279
  812TIP3    H223852   2.375   1.667   3.251  0.5379 -1.3429 -1.2241
  813TIP3   OH223853   3.365   6.089  13.227 -0.6682  0.2331  0.1232
  813TIP3    H123854   3.420   6.011  13.228 -0.3369  0.3304 -2.8649
  813TIP3    H223855   3.426   6.162  13.221 -1.0233  0.4447 -1.2882
  814TIP3   OH223856   1.709   4.846   4.373 -0.5327 -0.6119  0.3724
  814TIP3    H123857   1.751   4.930   4.355 -0.2146 -0.7172  0.5923
  814TIP3    H223858   1.706   4.801   4.289  1.1621 -1.2037  0.5830
  815TIP3   OH223859   0.256   0.655   0.410 -0.3222  0.0438 -0.4182
  815TIP3    H123860   0.165   0.648   0.382  0.2013 -0.2312 -2.1751
  815TIP3    H223861   0.295   0.717   0.349  0.6655  0.1825  0.3320
  816TIP3   OH223862   0.551   4.977  12.748 -0.5900 -0.1452 -0.1891
  816TIP3    H123863   0.591   4.903  12.795  0.4621 -1.7883 -3.3476
  816TIP3    H223864   0.625   5.033  12.726 -0.4329 -1.2281 -2.7669
  817TIP3   OH223865   4.135   0.699   4.424 -0.8338  0.5226 -0.0494
  817TIP3    H123866   4.107   0.652   4.503 -1.6616  0.3007 -0.4585
  817TIP3    H223867   4.061   0.690   4.363  0.1249 -0.0677 -1.1773
  818TIP3   OH223868   6.460   0.233  11.156 -0.1815 -0.3048 -0.0605
  818TIP3    H123869   6.447   0.192  11.070 -0.9341 -0.2645  0.0303
  818TIP3    H223870   6.438   0.325  11.143 -0.9989 -0.4366  0.3395
  819TIP3   OH223871   5.501   1.418  16.955  0.0035 -0.2620  0.1030
  819TIP3    H123872   5.446   1.370  17.018  1.0145 -1.3010  0.2326
  819TIP3    H223873   5.440   1.447  16.887 -0.8919 -0.3313  0.8530
  820TIP3   OH223874   1.433   5.978   5.199 -0.0735 -0.5164  0.2702
  820TIP3    H123875   1.405   5.964   5.108 -1.2495  1.5208  0.2437
  820TIP3    H223876   1.361   5.944   5.251 -0.0219 -0.4185  0.4043
  821TIP3   OH223877   0.367   2.219   0.717  0.7495  0.6067  0.4135
  821TIP3    H123878   0.356   2.278   0.791 -1.9200 -0.1005  0.6875
  821TIP3    H223879   0.296   2.242   0.657 -0.0944 -1.9198  0.3103
  822TIP3   OH223880   4.393   3.408  14.139  0.0906  0.5727  0.7815
  822TIP3    H123881   4.397   3.501  14.118 -0.5091  0.5044  0.3651
  822TIP3    H223882   4.440   3.401  14.222  1.1971  1.0617  0.2291
  823TIP3   OH223883   1.505   4.861   1.738 -0.1484 -0.4193 -0.1820
  823TIP3    H123884   1.589   4.848   1.782 -0.1489 -0.5582 -0.2219
  823TIP3    H223885   1.480   4.773   1.708 -0.9395 -0.5979  0.9634
  824TIP3   OH223886   3.823   6.116  15.445 -0.4076  0.7065 -0.2702
  824TIP3    H123887   3.740   6.128  15.490 -0.6363 -2.8769  0.5663
  824TIP3    H223888   3.800   6.067  15.366  0.6918  1.7667 -1.2949
  825TIP3   OH223889   5.143   0.070   0.511  0.0135  0.4123 -0.0331
  825TIP3    H123890   5.229   0.111   0.517 -0.3518  1.1685  0.2440
  825TIP3    H223891   5.083   0.136   0.546 -0.6591 -0.1652 -0.0746
  826TIP3   OH223892   5.476   3.898  14.636  0.3458  0.1108  0.0138
  826TIP3    H123893   5.529   3.949  14.698 -0.7822  1.6376 -0.2139
  826TIP3    H223894   5.463   3.957  14.562 -0.7408 -0.6266 -0.4075
  827TIP3   OH223895   6.583   2.316  14.320 -0.3078  0.3339  0.0614
  827TIP3    H123896   6.583   2.341  14.227 -1.4698 -1.5920 -0.5027
  827TIP3    H223897   6.647   2.245  14.325 -0.6791  0.0376  0.6183
  828TIP3   OH223898   3.073   5.563  13.066 -0.3425  0.4481  0.0221
  828TIP3    H123899   3.053   5.515  13.146 -0.9924 -1.5724 -1.2882
  828TIP3    H223900   2.992   5.610  13.045  0.3634  2.4649  1.4280
  829TIP3   OH223901   0.796   4.022   5.283 -0.1446  0.5471 -0.3954
  829TIP3    H123902   0.850   4.101   5.272 -0.8904  1.5962  2.4019
  829TIP3    H223903   0.706   4.055   5.285 -0.5331 -0.4968 -0.0129
  830TIP3   OH223904   4.634   0.169   5.172  0.2599  0.0974  0.0353
  830TIP3    H123905   4.605   0.212   5.092 -1.3025  0.0377  0.5214
  830TIP3    H223906   4.727   0.153   5.159  0.2368  0.9437 -1.3661
  831TIP3   OH223907   5.416   4.127   4.506 -0.2503 -0.3859  0.0734
  831TIP3    H123908   5.378   4.205   4.464 -0.6669 -1.1003 -0.9155
  831TIP3    H223909   5.479   4.094   4.442 -1.8811 -2.2733 -0.6442
  832TIP3   OH223910   5.946   4.924  11.710 -0.5958 -0.3194  0.2304
  832TIP3    H123911   5.870   4.953  11.759 -0.1511 -1.3461  1.5684
  832TIP3    H223912   5.960   4.993  11.645 -0.1699  2.0333  2.6226
  833TIP3   OH223913   1.250   0.676   5.854 -0.4281 -0.3978  0.4761
  833TIP3    H123914   1.189   0.744   5.883  2.1808  2.0624  0.6215
  833TIP3    H223915   1.292   0.713   5.777  2.3165 -1.0286  1.5589
  834TIP3   OH223916   2.354   5.247  13.382 -0.8608  0.4634  0.0211
  834TIP3    H123917   2.292   5.175  13.397  2.1240 -2.0375  1.3377
  834TIP3    H223918   2.355   5.295  13.465 -0.0979 -0.3164  0.4751
  835TIP3   OH223919   1.151   0.036   1.288 -0.1198 -0.0910 -0.5296
  835TIP3    H123920   1.196  -0.048   1.294  1.2444  0.7162  1.4493
  835TIP3    H223921   1.221   0.101   1.280 -1.0579  0.9984 -0.2337
  836TIP3   OH223922   1.686   5.406  11.199 -0.1037 -0.0926  0.0944
  836TIP3    H123923   1.758   5.360  11.244  0.4331  0.9903  0.3620
  836TIP3    H223924   1.726   5.486  11.166 -1.3148  0.7746  0.6914
  837TIP3   OH223925   6.254   2.486  16.549  0.0451  0.3249  0.1128
  837TIP3    H123926   6.215   2.521  16.469  1.1696  2.3172  0.3661
  837TIP3    H223927   6.270   2.394  16.530 -1.6886  0.2458 -1.1576
  838TIP3   OH223928   5.183   4.930  15.004  0.6013  0.3009  0.1609
  838TIP3    H123929   5.276   4.912  14.989  0.5234  1.0940 -1.3783
  838TIP3    H223930   5.182   4.983  15.084  1.3586 -0.6441  0.8261
  839TIP3   OH223931   5.608   3.267   3.366  0.1473 -0.5478  0.0117
  839TIP3    H123932   5.633   3.283   3.457 -0.4135 -0.9652  0.2420
  839TIP3    H223933   5.521   3.228   3.371  0.0100 -0.3586 -0.7159
  840TIP3   OH223934   2.083   6.410   3.799  0.1169 -0.7630  0.2036
  840TIP3    H123935   2.113   6.410   3.708 -0.1142  0.3502  0.1177
  840TIP3    H223936   2.160   6.383   3.850  0.6358 -0.0690 -0.2066
  841TIP3   OH223937   0.968   5.884  11.326  0.3109 -0.3174 -0.4891
  841TIP3    H123938   0.981   5.958  11.385 -2.5988 -0.5977  0.7186
  841TIP3    H223939   0.883   5.901  11.285  0.6108 -1.9066 -1.8634
  842TIP3   OH223940   0.164   2.466   4.184 -0.0574  0.5266 -0.0005
  842TIP3    H123941   0.117   2.531   4.235 -1.1175  0.2421 -0.5972
  842TIP3    H223942   0.172   2.504   4.097 -2.0051 -0.7006 -0.7800
  843TIP3   OH223943   0.230   4.121   1.589 -0.5471 -0.1562  0.5412
  843TIP3    H123944   0.220   4.176   1.510  0.5135 -1.8705 -0.8566
  843TIP3    H223945   0.153   4.142   1.642 -1.4522  0.8463 -1.0784
  844TIP3   OH223946   2.605   2.313  12.278 -0.1101 -0.2157  0.1301
  844TIP3    H123947   2.640   2.401  12.292 -2.7250  0.6673  1.9216
  844TIP3    H223948   2.557   2.319  12.196 -0.6828  0.2082  0.4865
  845TIP3   OH223949   4.648   0.704  13.831 -0.8908  0.1508  0.3186
  845TIP3    H123950   4.681   0.691  13.919  0.5407  2.1054  0.1488
  845TIP3    H223951   4.636   0.799  13.823 -0.8371  0.0479 -1.6242
  846TIP3   OH223952   4.406   4.568   6.392  0.1257 -0.0988 -0.3239
  846TIP3    H123953   4.343   4.562   6.464  0.1751  0.7637 -0.1915
  846TIP3    H223954   4.390   4.654   6.354 -0.8104 -1.0426 -2.2153
  847TIP3   OH223955   2.698   4.156   5.989 -0.3278  0.1733 -0.2898
  847TIP3    H123956   2.675   4.134   6.080 -1.7615  1.1149 -0.3897
  847TIP3    H223957   2.642   4.230   5.968  0.1090  0.0733 -1.9083
  848TIP3   OH223958   3.756   2.394   5.516  0.7931 -0.1313 -0.2080
  848TIP3    H123959   3.746   2.415   5.609 -0.9692 -0.5893 -0.2583
  848TIP3    H223960   3.848   2.413   5.497  1.1770  0.0233  1.6054
  849TIP3   OH223961   0.632   6.486   4.480 -0.7459 -0.0351  0.3295
  849TIP3    H123962   0.612   6.497   4.573 -1.3906  1.7648  0.0171
  849TIP3    H223963   0.677   6.402   4.475 -0.5059 -0.0678  2.2919
  850TIP3   OH223964   0.075   6.609  11.719  0.1329  0.6009 -0.2590
  850TIP3    H123965   0.097   6.639  11.631  0.0945  1.1857 -0.0684
  850TIP3    H223966   0.015   6.535  11.705  1.0279 -0.0527 -0.7460
  851TIP3   OH223967   1.724   0.743  16.801 -0.3196  0.1881  0.1140
  851TIP3    H123968   1.756   0.652  16.810 -0.3493  0.0044 -1.4105
  851TIP3    H223969   1.785   0.783  16.738 -1.0904  0.8373 -0.2265
  852TIP3   OH223970   1.323   2.115   0.151 -0.2650 -0.4423 -0.6205
  852TIP3    H123971   1.259   2.186   0.141 -1.4411 -0.8837  2.6346
  852TIP3    H223972   1.383   2.146   0.218  1.5092 -1.0731 -1.8530
  853TIP3   OH223973   2.296   4.607   1.001 -0.3032 -0.1787  0.4499
  853TIP3    H123974   2.282   4.686   1.051 -0.5863 -0.0533  0.1757
  853TIP3    H223975   2.356   4.633   0.931 -1.3046  0.0850 -0.3360
  854TIP3   OH223976   1.135   4.318   0.848 -0.8672  0.0647  0.0656
  854TIP3    H123977   1.201   4.259   0.885  0.2015  1.8993  1.1941
  854TIP3    H223978   1.166   4.335   0.759 -1.6152 -1.6359 -0.5732
  855TIP3   OH223979   0.347   5.616  10.841  0.5372  0.1875  0.0747
  855TIP3    H123980   0.286   5.677  10.801 -0.4331  0.3485  1.6875
  855TIP3    H223981   0.347   5.539  10.783 -1.3850  0.0961  0.1411
  856TIP3   OH223982   2.781   1.342   3.088  0.8764  0.6974  0.1123
  856TIP3    H123983   2.702   1.374   3.045  0.6198  0.4521  0.3931
  856TIP3    H223984   2.795   1.402   3.161  0.9681  0.7579  0.0459
  857TIP3   OH223985   1.472   3.202   3.430  0.4708 -0.2752 -0.5699
  857TIP3    H123986   1.393   3.206   3.485  0.9419  1.0474  0.0588
  857TIP3    H223987   1.542   3.179   3.491  0.4621 -2.3558 -1.2898
  858TIP3   OH223988   4.462   0.948  16.176  0.2410 -0.3289  0.4340
  858TIP3    H123989   4.516   0.944  16.097 -1.7665 -0.3317 -1.0136
  858TIP3    H223990   4.388   1.003  16.151  0.7919  1.8791  3.1656
  859TIP3   OH223991   3.827   0.687   6.699  0.1888 -0.1186 -0.7371
  859TIP3    H123992   3.913   0.681   6.740  0.8493  0.5754 -1.9466
  859TIP3    H223993   3.766   0.654   6.765  1.2547  0.4120  0.5590
  860TIP3   OH223994   1.491   6.588   2.828  0.1958 -0.2676  0.0251
  860TIP3    H123995   1.416   6.560   2.881 -0.1253 -2.0182 -1.2453
  860TIP3    H223996   1.451   6.620   2.747  0.7387  1.0106  0.2490
  861TIP3   OH223997   2.021   2.863   0.272 -0.1223  0.4535 -0.0071
  861TIP3    H123998   1.967   2.833   0.346 -1.4435 -0.4606 -1.2891
  861TIP3    H223999   2.095   2.802   0.270 -0.6239 -0.1668 -0.0535
  862TIP3   OH224000   1.510   1.231   2.352  0.0923  0.3658  0.2158
  862TIP3    H124001   1.494   1.137   2.351  1.7291  0.0575 -0.3084
  862TIP3    H224002   1.462   1.265   2.277 -0.5020 -0.0388  0.4068
  863TIP3   OH224003   4.579   5.599   3.165 -0.2698  0.6835  0.0652
  863TIP3    H124004   4.598   5.536   3.096  0.1933  2.2077 -1.2786
  863TIP3    H224005   4.560   5.546   3.242  1.7362 -1.0602 -0.5580
  864TIP3   OH224006   0.624   4.225   3.819  0.4583  0.1091  0.0536
  864TIP3    H124007   0.713   4.235   3.854 -0.6764  0.0802  3.2829
  864TIP3    H224008   0.615   4.131   3.803  0.9116  0.0729  0.0019
  865TIP3   OH224009   3.331   6.350   5.962  0.2198 -0.6531  0.0548
  865TIP3    H124010   3.298   6.440   5.951  1.6009 -0.0257  0.7492
  865TIP3    H224011   3.375   6.330   5.879 -1.1022 -1.1634 -0.5472
  866TIP3   OH224012   0.157   0.277   0.271 -0.3013 -0.1479  0.2625
  866TIP3    H124013   0.125   0.239   0.189  0.4874  1.6524 -0.9606
  866TIP3    H224014   0.194   0.361   0.245  0.5604  0.1985  2.4000
  867TIP3   OH224015   3.764   5.188  11.354 -0.6707 -0.5536  0.5638
  867TIP3    H124016   3.857   5.183  11.332  0.1208  1.8343  2.7904
  867TIP3    H224017   3.747   5.108  11.405  0.6322 -0.2821  1.4851
  868TIP3   OH224018   2.076   6.132  15.198  0.1386  0.0271 -0.7393
  868TIP3    H124019   2.167   6.102  15.193  0.0753 -0.1890 -0.6047
  868TIP3    H224020   2.028   6.058  15.234 -0.1635 -0.0048 -1.2022
  869TIP3   OH224021   4.718   2.345  13.940  0.1253  0.0775 -0.0444
  869TIP3    H124022   4.683   2.284  13.874 -0.5967 -0.8614  1.1764
  869TIP3    H224023   4.641   2.392  13.972  0.5628  1.0017 -0.3000
  870TIP3   OH224024   4.375   0.025   4.805 -0.0015 -0.0043  0.2148
  870TIP3    H124025   4.452   0.071   4.839  0.6238 -2.1805  1.9585
  870TIP3    H224026   4.306   0.044   4.868 -0.0671 -0.4280  0.2757
  871TIP3   OH224027   2.864   1.754   2.702 -0.2160 -0.0771 -0.6229
  871TIP3    H124028   2.890   1.676   2.750  0.3454  0.0661 -0.6841
  871TIP3    H224029   2.768   1.753   2.703 -0.2079 -0.5902 -0.3459
  872TIP3   OH224030   1.301   6.685  14.561 -0.5273  0.2758  0.2310
  872TIP3    H124031   1.362   6.620  14.597  2.0651  2.6314  0.4377
  872TIP3    H224032   1.330   6.698  14.471 -2.6102 -0.5579 -0.6242
  873TIP3   OH224033   6.283   0.999  14.663  0.7334  0.2311  0.0153
  873TIP3    H124034   6.307   0.968  14.750 -0.7555 -0.5424  0.1883
  873TIP3    H224035   6.263   1.092  14.676 -0.9603 -0.2139  0.8505
  874TIP3   OH224036   6.250   1.871  11.142  0.3578 -0.6288  0.0657
  874TIP3    H124037   6.228   1.920  11.221  0.2888  0.6980 -0.7478
  874TIP3    H224038   6.194   1.908  11.074  2.4014  0.2493 -1.2327
  875TIP3   OH224039   6.668   3.733  10.823 -0.4109 -0.2481  0.6319
  875TIP3    H124040   6.634   3.675  10.754 -0.6450  0.8815 -0.2465
  875TIP3    H224041   6.760   3.744  10.802 -1.1816  3.1094 -1.9015
  876TIP3   OH224042   3.171   2.599   4.117 -0.0655 -0.2612 -0.5299
  876TIP3    H124043   3.193   2.634   4.203 -0.1998 -0.8640 -0.2473
  876TIP3    H224044   3.200   2.508   4.119  1.4559  0.1554 -1.7091
  877TIP3   OH224045   5.139   4.477   4.950 -0.3351  0.0483  0.0011
  877TIP3    H124046   5.194   4.411   4.992  0.4276  0.8635  0.3334
  877TIP3    H224047   5.116   4.538   5.021 -2.3696 -0.6943  0.0573
  878TIP3   OH224048   6.200   6.528   0.783 -0.8186  0.5448  0.1837
  878TIP3    H124049   6.239   6.508   0.698 -1.1528  1.4840 -0.2010
  878TIP3    H224050   6.118   6.477   0.784  0.3610 -1.4837  1.0243
  879TIP3   OH224051   0.575   4.286  17.159 -0.7968 -0.1885 -0.1109
  879TIP3    H124052   0.582   4.303  17.065 -2.0062  1.8074  0.0933
  879TIP3    H224053   0.532   4.200  17.164  0.0701 -0.7303 -1.3444
  880TIP3   OH224054   2.861   1.616   2.954 -0.0661 -0.0364 -0.1574
  880TIP3    H124055   2.776   1.638   2.915  0.8571 -0.0172 -2.2727
  880TIP3    H224056   2.889   1.697   2.996 -0.9500  0.0392  0.3173
  881TIP3   OH224057   0.858   2.494   2.581  0.7463  0.1403 -0.0864
  881TIP3    H124058   0.928   2.559   2.583  1.1278 -0.2289 -0.8935
  881TIP3    H224059   0.779   2.542   2.606  1.0466  0.8745 -0.5217
  882TIP3   OH224060   2.594   1.516  11.257 -0.7206 -0.5065 -0.0861
  882TIP3    H124061   2.672   1.487  11.305 -0.2562  2.6435  1.3626
  882TIP3    H224062   2.627   1.581  11.195 -2.0529  0.1739 -0.1157
  883TIP3   OH224063   5.358   0.221   4.015  0.3482 -0.1820  0.2407
  883TIP3    H124064   5.414   0.285   4.059  1.4686 -0.6494 -0.4445
  883TIP3    H224065   5.275   0.266   4.001  0.9788  0.9718  0.1309
  884TIP3   OH224066   1.552   6.536  12.846 -0.4204 -0.1189 -0.0872
  884TIP3    H124067   1.637   6.529  12.804 -0.3818  2.7707 -0.7384
  884TIP3    H224068   1.499   6.468  12.805  1.2341 -1.2363 -0.4767
  885TIP3   OH224069   3.637   3.018  14.263  0.1810 -0.6793 -0.3591
  885TIP3    H124070   3.664   2.974  14.343 -0.9360  0.0387  0.4367
  885TIP3    H224071   3.688   3.099  14.260 -0.0201 -0.5462 -0.1959
  886TIP3   OH224072   2.651   4.031  17.144 -0.0231 -0.2207 -0.6595
  886TIP3    H124073   2.666   4.002  17.054 -0.2345 -0.3673 -0.6499
  886TIP3    H224074   2.644   4.126  17.139  0.4113 -0.1932 -0.7314
  887TIP3   OH224075   0.559   6.374  15.000 -0.3120 -0.4160  0.2668
  887TIP3    H124076   0.477   6.344  15.038  0.2388 -0.8074  1.1645
  887TIP3    H224077   0.544   6.466  14.979 -2.1072 -1.2561 -2.7261
  888TIP3   OH224078   2.361   5.449   0.474 -0.1959  0.3765 -0.5114
  888TIP3    H124079   2.290   5.445   0.538 -1.2305  1.4428 -1.5470
  888TIP3    H224080   2.318   5.471   0.392  1.0808 -1.0998 -1.6268
  889TIP3   OH224081   5.397   1.388  11.909  0.1791  0.3329  0.1978
  889TIP3    H124082   5.355   1.418  11.828  4.6296 -0.1382 -2.6732
  889TIP3    H224083   5.399   1.465  11.965  0.2386  1.8030 -1.7319
  890TIP3   OH224084   3.589   3.870  15.673  0.0737  0.1271 -0.3912
  890TIP3    H124085   3.655   3.855  15.605  1.5257  1.1264  0.7413
  890TIP3    H224086   3.548   3.953  15.649  0.1534  0.1632 -0.4053
  891TIP3   OH224087   1.930   4.674  11.513  0.4825 -0.4666 -0.3192
  891TIP3    H124088   1.888   4.759  11.527  0.4871 -0.1716 -1.8854
  891TIP3    H224089   1.956   4.675  11.421 -1.6036 -3.0395 -1.0785
  892TIP3   OH224090   4.991   5.906   4.964  0.0615  0.8696  0.6073
  892TIP3    H124091   4.907   5.934   5.000 -0.1402 -0.4992  1.2767
  892TIP3    H224092   4.968   5.841   4.897  0.5120  2.1777 -0.9012
  893TIP3   OH224093   4.691   2.136   5.262  0.1289 -0.0436 -0.4977
  893TIP3    H124094   4.771   2.095   5.295 -1.4708 -2.1613  1.0183
  893TIP3    H224095   4.673   2.207   5.323  0.1925 -0.3909 -0.0645
  894TIP3   OH224096   1.408   0.274   5.262  0.1791 -0.8214 -0.5031
  894TIP3    H124097   1.441   0.296   5.348 -0.2117  0.5157 -0.6759
  894TIP3    H224098   1.479   0.297   5.202 -0.5258  0.8096 -0.7558
  895TIP3   OH224099   1.765   2.968  13.716  0.2100 -0.0744 -0.1256
  895TIP3    H124100   1.752   3.030  13.645 -3.2029  0.8214  1.0502
  895TIP3    H224101   1.829   3.009  13.773  0.3222  0.8863 -0.9215
  896TIP3   OH224102   5.854   1.606   1.657 -0.0826  0.1953 -0.2416
  896TIP3    H124103   5.915   1.586   1.728 -1.7633  0.7550  1.4378
  896TIP3    H224104   5.790   1.535   1.659 -0.7912  0.8108 -0.4269
  897TIP3   OH224105   4.472   0.517   3.636  0.1527  0.1055  0.0513
  897TIP3    H124106   4.522   0.559   3.706  1.2952  0.2219 -0.8127
  897TIP3    H224107   4.512   0.431   3.626 -2.1215 -1.2695  1.7546
  898TIP3   OH224108   0.819   0.478   4.391 -0.3955  0.2643 -0.0004
  898TIP3    H124109   0.828   0.389   4.358  1.2979  0.5557 -0.4112
  898TIP3    H224110   0.802   0.531   4.312 -3.1665  0.1499  0.4102
  899TIP3   OH224111   3.042   5.160   5.669  0.1254 -0.0223  0.1747
  899TIP3    H124112   3.092   5.118   5.739  0.1799 -0.7055 -0.2631
  899TIP3    H224113   2.954   5.123   5.676  1.0652 -3.3770 -2.6399
  900TIP3   OH224114   4.795   4.177   1.120 -0.0852 -0.4086 -0.0004
  900TIP3    H124115   4.732   4.238   1.081 -1.5774 -1.8023  0.0889
  900TIP3    H224116   4.815   4.214   1.205  1.4892  1.5253 -1.1233
  901TIP3   OH224117   5.562   0.991   4.777 -0.1540  0.0758  0.0507
  901TIP3    H124118   5.636   0.951   4.823 -1.2953 -1.5693  0.4995
  901TIP3    H224119   5.604   1.053   4.716  1.5436 -0.2076  0.8505
  902TIP3   OH224120   3.181   2.762   5.435 -0.1745  0.3785  0.2397
  902TIP3    H124121   3.098   2.716   5.450 -0.4258  0.8178  0.2248
  902TIP3    H224122   3.196   2.811   5.516  0.6791 -0.6128  0.7047
  903TIP3   OH224123   5.154   2.886   0.609 -0.3234  0.3145  0.3488
  903TIP3    H124124   5.233   2.925   0.573  0.4340 -1.5291 -0.0938
  903TIP3    H224125   5.097   2.872   0.533 -1.2186  1.8889  0.7012
  904TIP3   OH224126   5.326   1.343   5.655 -0.1550  0.0058 -0.1093
  904TIP3    H124127   5.308   1.253   5.683  0.1505 -0.2629 -0.7541
  904TIP3    H224128   5.421   1.346   5.646 -0.2418  0.0719 -1.1170
  905TIP3   OH224129   4.322   0.734   1.333  0.1914 -0.3122 -0.1107
  905TIP3    H124130   4.348   0.742   1.241  0.0814 -3.2901 -0.5255
  905TIP3    H224131   4.227   0.731   1.330  0.1437  0.6054  0.2479
  906TIP3   OH224132   0.283   4.918   1.000  0.5046 -0.0913  0.3168
  906TIP3    H124133   0.275   4.825   1.021  3.7592 -0.3390  1.0344
  906TIP3    H224134   0.293   4.961   1.085  2.3645  0.4276 -0.1214
  907TIP3   OH224135   1.606   2.851  13.902  0.4861  0.5082  0.2788
  907TIP3    H124136   1.555   2.789  13.850 -2.6307  1.6711  1.6933
  907TIP3    H224137   1.647   2.908  13.838 -0.0381 -0.4696 -0.9703
  908TIP3   OH224138   1.324   1.397   0.197  0.2915 -0.0619  0.0359
  908TIP3    H124139   1.396   1.454   0.168 -0.3567 -0.2577 -2.0904
  908TIP3    H224140   1.339   1.387   0.291  0.8473  3.0239  0.4030
  909TIP3   OH224141   6.691   1.893  15.584  0.0291 -0.1828  0.0469
  909TIP3    H124142   6.658   1.835  15.652 -0.3165  0.4401  0.4257
  909TIP3    H224143   6.639   1.973  15.594  1.0280  0.4832  0.0524
  910TIP3   OH224144   6.173   1.490  16.872  0.1073 -0.2910  0.4885
  910TIP3    H124145   6.093   1.469  16.824 -0.5824  0.3963  1.3021
  910TIP3    H224146   6.159   1.454  16.959  0.5692  0.0775  0.7213
  911TIP3   OH224147   3.656   6.587   4.047  0.1909 -0.1276 -0.3992
  911TIP3    H124148   3.632   6.672   4.012  0.1452  0.4273  0.9228
  911TIP3    H224149   3.716   6.550   3.982 -0.0543  0.7583 -1.1437
  912TIP3   OH224150   3.348   4.549  16.603 -0.9338  0.5441 -0.4177
  912TIP3    H124151   3.257   4.563  16.629 -1.2805  2.3035 -2.3110
  912TIP3    H224152   3.346   4.470  16.550 -1.0981 -0.1590  0.6047
  913TIP3   OH224153   1.432   0.306   6.314 -0.0506 -0.0959 -0.3716
  913TIP3    H124154   1.373   0.379   6.296 -2.1211 -0.9212  2.3882
  913TIP3    H224155   1.467   0.324   6.401  2.1187 -0.7758 -1.0328
  914TIP3   OH224156   5.600   3.787   4.810  0.0072  0.0830  0.5022
  914TIP3    H124157   5.616   3.718   4.873 -1.6878 -0.9062 -0.0817
  914TIP3    H224158   5.506   3.782   4.792  0.3444  0.6367 -1.7235
  915TIP3   OH224159   2.508   5.929   0.344  0.0635 -0.3640 -0.7331
  915TIP3    H124160   2.452   5.852   0.350 -0.6119  0.1371 -0.5241
  915TIP3    H224161   2.470   5.982   0.274  0.3177 -0.0523 -0.6398
  916TIP3   OH224162   0.537   2.884  13.392  0.3191 -0.3093  0.2706
  916TIP3    H124163   0.594   2.879  13.469  0.5504  2.5139  0.3673
  916TIP3    H224164   0.448   2.875  13.428  0.3916  1.5433  1.0004
  917TIP3   OH224165   1.639   5.477  13.543  0.0788  0.0276 -0.4437
  917TIP3    H124166   1.580   5.431  13.602  1.5673 -3.1390 -1.1784
  917TIP3    H224167   1.715   5.498  13.598 -0.3113  1.0508 -0.2761
  918TIP3   OH224168   1.853   0.997  16.425 -0.3858 -0.2170  0.3004
  918TIP3    H124169   1.866   0.935  16.353  1.1080  2.9459 -2.4504
  918TIP3    H224170   1.762   1.024  16.418  0.0357  0.9686 -1.3850
  919TIP3   OH224171   4.413   1.377  11.371  0.2876  0.0149 -0.0857
  919TIP3    H124172   4.443   1.298  11.326 -0.8833 -0.0977 -0.6917
  919TIP3    H224173   4.493   1.427  11.386  0.7602 -0.0730 -2.0526
  920TIP3   OH224174   4.607   3.845  13.393  0.4092 -0.6126  0.1825
  920TIP3    H124175   4.616   3.888  13.308 -0.9653 -0.3413  0.1536
  920TIP3    H224176   4.580   3.755  13.372 -0.1945 -0.4688  0.3398
  921TIP3   OH224177   5.669   5.586   2.748  0.9930 -0.0116 -0.1134
  921TIP3    H124178   5.744   5.527   2.749 -0.0332 -1.4029 -1.2128
  921TIP3    H224179   5.601   5.540   2.797  1.0850  1.6362  1.6858
  922TIP3   OH224180   2.139   3.063  11.250 -0.2961  0.3810 -0.5906
  922TIP3    H124181   2.144   3.152  11.283 -0.5059  0.1430  0.0991
  922TIP3    H224182   2.229   3.040  11.228 -0.2024  0.6642 -0.5007
  923TIP3   OH224183   3.243   4.379  13.974 -0.1198  0.7346  0.1419
  923TIP3    H124184   3.270   4.322  13.902 -0.0535 -1.3517  1.7286
  923TIP3    H224185   3.207   4.456  13.931  2.8913  1.0675 -2.1193
  924TIP3   OH224186   0.761   4.758  14.609  0.4934 -0.0264  0.6660
  924TIP3    H124187   0.856   4.773  14.606  0.7712 -1.2936 -3.2816
  924TIP3    H224188   0.725   4.818  14.544 -1.1559 -0.9601  0.6627
  925TIP3   OH224189   4.606   2.667  13.658 -0.4239 -0.1463  0.0892
  925TIP3    H124190   4.661   2.745  13.671  0.0356  0.0805 -2.5604
  925TIP3    H224191   4.522   2.702  13.627 -0.4784 -0.6704 -0.3636
  926TIP3   OH224192   3.838   3.933  16.871  0.4023 -0.0462 -0.0081
  926TIP3    H124193   3.815   4.016  16.912  0.0168  1.4240 -2.9128
  926TIP3    H224194   3.823   3.867  16.939  0.5759  2.2050  2.3609
  927TIP3   OH224195   3.518   6.520   3.403  0.2711 -0.7307 -0.0999
  927TIP3    H124196   3.570   6.476   3.470 -0.2519 -0.2049  0.6717
  927TIP3    H224197   3.526   6.464   3.326  2.1079 -0.5835 -0.0639
  928TIP3   OH224198   5.684   4.975  16.630  0.0779  0.1019  0.7666
  928TIP3    H124199   5.629   4.937  16.561  0.7419 -1.3521  1.0084
  928TIP3    H224200   5.678   5.070  16.616  1.2861 -0.1718 -2.1439
  929TIP3   OH224201   3.499   6.520   5.273 -0.0943  0.2732 -0.1545
  929TIP3    H124202   3.574   6.463   5.289 -0.7618 -0.9212 -1.1167
  929TIP3    H224203   3.459   6.533   5.359  1.1596  0.8932  0.3666
  930TIP3   OH224204   4.263   3.129  14.936 -0.6435  0.2865  0.4709
  930TIP3    H124205   4.251   3.049  14.986  0.0783 -0.5153 -0.6040
  930TIP3    H224206   4.325   3.106  14.867 -1.8971  1.2404 -1.0479
  931TIP3   OH224207   3.465   0.661  13.369 -0.4539  0.4100 -0.3415
  931TIP3    H124208   3.435   0.647  13.279 -1.4388 -1.7728  0.2701
  931TIP3    H224209   3.444   0.753  13.387 -1.7372  0.4445 -1.7938
  932TIP3   OH224210   5.456   5.119   2.065  0.7953  0.0763 -0.4747
  932TIP3    H124211   5.445   5.133   2.159  0.9229  0.4554 -0.5133
  932TIP3    H224212   5.447   5.025   2.054 -2.0350  0.2453 -0.4366
  933TIP3   OH224213   2.793   3.844   3.774  0.0475 -0.0720  0.0854
  933TIP3    H124214   2.703   3.854   3.744 -0.5161 -0.7386  1.4776
  933TIP3    H224215   2.832   3.930   3.762 -1.6407  1.0824  2.1904
  934TIP3   OH224216   4.309   6.007   1.258  0.1910 -0.3218  0.0555
  934TIP3    H124217   4.275   6.073   1.197  0.4456 -0.9461 -0.7821
  934TIP3    H224218   4.231   5.968   1.297 -0.0104 -0.6286 -0.6472
  935TIP3   OH224219   3.590   0.057   3.905  0.1307 -0.4359 -0.0125
  935TIP3    H124220   3.664   0.115   3.888  2.0845 -2.7125  0.2974
  935TIP3    H224221   3.524   0.114   3.944  1.8982  1.5819  0.2330
  936TIP3   OH224222   6.188   3.488   5.506  0.2576 -0.2420 -0.5050
  936TIP3    H124223   6.102   3.516   5.538  0.7362  1.4153 -0.5909
  936TIP3    H224224   6.168   3.428   5.434 -0.8217 -0.5511  0.0284
  937TIP3   OH224225   3.202   6.093   0.199  0.2590 -0.2898  0.5037
  937TIP3    H124226   3.167   6.155   0.262 -2.3186 -1.3316  0.2053
  937TIP3    H224227   3.287   6.067   0.235 -0.5448  0.1258  2.8587
  938TIP3   OH224228   3.059   2.037  15.231 -0.3955 -0.4710 -0.2200
  938TIP3    H124229   3.056   1.950  15.271  2.1482 -0.7723 -0.5204
  938TIP3    H224230   3.149   2.046  15.200 -1.1495  1.4511 -2.0892
  939TIP3   OH224231   4.178   0.347   2.628 -0.4418  0.1636 -0.1639
  939TIP3    H124232   4.095   0.394   2.628  0.0621  1.0764 -0.2642
  939TIP3    H224233   4.242   0.411   2.597  0.2345 -0.6465 -0.4850
  940TIP3   OH224234   6.009   5.064  12.012 -0.4207  0.1716  1.2401
  940TIP3    H124235   6.040   5.150  11.984  2.0594 -0.0148  3.1038
  940TIP3    H224236   5.981   5.021  11.931  0.5849  1.8428 -0.0566
  941TIP3   OH224237   4.003   2.367   0.216 -0.2114 -0.0250  0.3386
  941TIP3    H124238   3.974   2.336   0.131 -0.4220 -1.7653  0.9967
  941TIP3    H224239   3.950   2.318   0.279  1.5875 -0.5787  1.5071
  942TIP3   OH224240   4.437   0.099   1.912 -0.2494  0.0447  0.4100
  942TIP3    H124241   4.371   0.049   1.958 -0.1089 -2.0605 -1.4611
  942TIP3    H224242   4.407   0.101   1.821  2.5326 -1.7835 -0.7167
  943TIP3   OH224243   5.893   2.241  13.279  0.7943 -0.4939  0.3456
  943TIP3    H124244   5.977   2.271  13.314  1.2526 -1.4473  0.0906
  943TIP3    H224245   5.890   2.274  13.190  0.6868 -0.0650  0.5068
  944TIP3   OH224246   5.569   4.604   0.320  0.0896  0.0476  0.2148
  944TIP3    H124247   5.501   4.654   0.366 -2.2479 -1.6466 -1.1897
  944TIP3    H224248   5.630   4.670   0.288  0.2483  1.4955  3.1812
  945TIP3   OH224249   4.773   5.150   2.999  0.0766 -0.6373 -0.7069
  945TIP3    H124250   4.842   5.092   3.030 -0.3457 -0.8370 -0.1278
  945TIP3    H224251   4.801   5.174   2.911 -0.1460 -2.3919 -1.3057
  946TIP3   OH224252   4.012   0.220  16.069  0.4743 -0.3257  0.3400
  946TIP3    H124253   3.925   0.237  16.034  0.9072  1.9674  0.2244
  946TIP3    H224254   4.072   0.254  16.002  1.4150 -0.3095  1.1625
  947TIP3   OH224255   0.576   0.112  14.070  0.5225 -0.1817 -0.3418
  947TIP3    H124256   0.489   0.087  14.039 -0.0466  0.1743  0.9228
  947TIP3    H224257   0.614   0.163  13.997 -1.3273  1.8712  0.0326
  948TIP3   OH224258   1.984   5.716   0.840 -0.3615  0.3201  0.1304
  948TIP3    H124259   1.931   5.773   0.896  0.2601 -0.6416  1.7379
  948TIP3    H224260   2.073   5.727   0.872 -0.4433 -3.0434  1.8993
  949TIP3   OH224261   5.482   3.666   5.552 -0.3409 -0.1025  0.0200
  949TIP3    H124262   5.504   3.739   5.611  0.8023 -0.0121 -0.5059
  949TIP3    H224263   5.389   3.681   5.531 -0.2129  1.0219  0.1619
  950TIP3   OH224264   1.092   3.246   0.310  0.2395  0.3688 -0.2835
  950TIP3    H124265   1.163   3.295   0.269  1.0811 -0.4026  0.2344
  950TIP3    H224266   1.014   3.273   0.261  0.9997  0.5616 -1.4301
  951TIP3   OH224267   0.505   2.887   0.902  0.6598  0.0757 -0.0223
  951TIP3    H124268   0.518   2.932   0.986  2.0449 -0.1355 -0.1090
  951TIP3    H224269   0.483   2.797   0.927 -1.6321  0.6114  0.1393
  952TIP3   OH224270   3.132   6.228  16.234  0.0237  0.6047 -0.0359
  952TIP3    H124271   3.205   6.185  16.279 -0.0182 -0.0220 -0.5381
  952TIP3    H224272   3.085   6.275  16.303  0.1024 -0.1299  0.5356
  953TIP3   OH224273   4.194   3.466  16.475 -1.1644 -0.4373 -0.0125
  953TIP3    H124274   4.102   3.441  16.471 -1.4735  0.7557 -0.5917
  953TIP3    H224275   4.197   3.535  16.541 -0.2614 -2.1024  1.8221
  954TIP3   OH224276   3.002   4.492   0.556  0.2174  0.3318  0.4488
  954TIP3    H124277   3.042   4.542   0.485  0.2123 -0.2961 -0.0055
  954TIP3    H224278   2.931   4.547   0.587 -0.4143  0.1949 -0.7047
  955TIP3   OH224279   0.166   4.638  13.118  0.2300  0.1426  0.2065
  955TIP3    H124280   0.151   4.593  13.201  1.2971  0.2191  0.4487
  955TIP3    H224281   0.113   4.589  13.055 -0.0070 -0.3659  0.7927
  956TIP3   OH224282   4.235   6.007   0.797  0.1717 -0.2044 -0.3899
  956TIP3    H124283   4.145   6.037   0.808  0.5040  0.4526  0.7816
  956TIP3    H224284   4.244   5.933   0.857  0.6461  0.3141  0.2031
  957TIP3   OH224285   2.891   3.608   4.357  0.0576  0.8682 -0.8024
  957TIP3    H124286   2.835   3.668   4.407 -0.1758  0.5193 -0.6412
  957TIP3    H224287   2.924   3.546   4.422 -0.3584  0.3298 -1.0986
  958TIP3   OH224288   5.080   3.641   6.472 -0.1708 -0.1876  0.3356
  958TIP3    H124289   5.164   3.626   6.429 -0.6078  0.3297 -0.7373
  958TIP3    H224290   5.102   3.690   6.551  0.5001  0.3083 -0.1442
  959TIP3   OH224291   3.305   6.560  16.905 -0.1394 -0.3674 -0.1908
  959TIP3    H124292   3.355   6.535  16.983  0.1117  1.4489  0.2746
  959TIP3    H224293   3.341   6.645  16.879  0.3835 -1.2820 -2.8265
  960TIP3   OH224294   3.806   3.142  15.963  0.0757  0.3330 -0.1983
  960TIP3    H124295   3.799   3.057  15.921 -2.6537 -0.1557  1.0085
  960TIP3    H224296   3.726   3.189  15.937  2.0750  3.1336 -1.8931
  961TIP3   OH224297   1.057   4.546   5.384  0.2637  0.1178  0.1508
  961TIP3    H124298   1.072   4.479   5.450  0.3613  0.2713  0.2874
  961TIP3    H224299   1.033   4.624   5.435  0.7061  0.3394  0.0283
  962TIP3   OH224300   5.109   1.519   5.642 -0.4476  0.3136  0.3091
  962TIP3    H124301   5.090   1.553   5.730  1.3048 -3.0289  2.1895
  962TIP3    H224302   5.179   1.456   5.656 -0.9174 -1.2557 -3.3724
  963TIP3   OH224303   2.452   0.994  14.077  0.0356 -0.2490  0.1713
  963TIP3    H124304   2.445   0.927  14.145  1.7592 -1.5218 -0.8186
  963TIP3    H224305   2.456   1.077  14.125 -2.0289 -0.8002  1.4330
  964TIP3   OH224306   4.768   2.911  17.330 -0.5768 -0.1125 -0.0991
  964TIP3    H124307   4.765   2.875  17.241 -0.4164  1.6332 -0.8536
  964TIP3    H224308   4.725   2.996  17.323  1.0749  0.8863  1.0743
  965TIP3   OH224309   1.733   0.999   4.816  0.7492  0.1217  0.4763
  965TIP3    H124310   1.693   1.028   4.734 -0.7313  0.6588  1.3522
  965TIP3    H224311   1.663   0.954   4.863  1.5484 -0.0974  1.5020
  966TIP3   OH224312   3.025   0.892  11.423 -0.4782 -0.4895 -0.2233
  966TIP3    H124313   2.953   0.953  11.439 -0.3651  0.3607 -2.5779
  966TIP3    H224314   3.100   0.931  11.468 -0.8578  0.0675 -0.0658
  967TIP3   OH224315   2.024   1.474   5.910 -0.2797  0.2178  0.2651
  967TIP3    H124316   2.108   1.489   5.955 -0.0663  2.4759 -0.7073
  967TIP3    H224317   2.049   1.443   5.823 -0.5703 -1.1642  0.6544
  968TIP3   OH224318   5.497   5.353   1.183 -0.9234 -0.2318  0.2020
  968TIP3    H124319   5.556   5.383   1.114 -1.7140  1.0111  0.0436
  968TIP3    H224320   5.545   5.368   1.264 -0.6701 -0.0583  0.0201
  969TIP3   OH224321   3.480   4.992   5.638 -0.1883  0.3026  0.1511
  969TIP3    H124322   3.443   4.949   5.561 -0.4887  1.6556 -0.4872
  969TIP3    H224323   3.441   5.079   5.638  2.9125  1.8152 -0.5406
  970TIP3   OH224324   6.141   5.606  13.892 -0.7855  0.8898  0.1426
  970TIP3    H124325   6.188   5.575  13.969  1.4684  2.2026 -0.6238
  970TIP3    H224326   6.066   5.654  13.928 -0.3418  0.6285  1.4740
  971TIP3   OH224327   1.615   0.484   0.577 -0.0786 -0.5009  0.2317
  971TIP3    H124328   1.596   0.472   0.670  0.5540  1.8248  0.7259
  971TIP3    H224329   1.634   0.578   0.568  1.5302 -0.9494 -1.9263
  972TIP3   OH224330   2.827   2.746   0.316 -0.3993 -0.5990  0.8173
  972TIP3    H124331   2.890   2.814   0.339 -0.7961  0.4239 -0.9653
  972TIP3    H224332   2.764   2.789   0.259 -1.5806 -2.0916  0.9209
  973TIP3   OH224333   6.382   3.302   1.911  0.0965  0.2226  0.1862
  973TIP3    H124334   6.287   3.285   1.910  0.2064 -0.4965 -1.1594
  973TIP3    H224335   6.415   3.254   1.987 -0.8589  2.1311  1.9037
  974TIP3   OH224336   4.529   5.610  12.363  0.8033  0.0861  0.5504
  974TIP3    H124337   4.481   5.595  12.445  0.2296  2.0687  0.6271
  974TIP3    H224338   4.534   5.524  12.322 -2.4856 -0.3206  0.7404
  975TIP3   OH224339   0.934   2.020   2.240 -0.0691  0.4489  0.2689
  975TIP3    H124340   0.841   2.042   2.228 -0.8721 -2.5005  0.1134
  975TIP3    H224341   0.941   1.998   2.333  0.2337 -0.2150  0.0922
  976TIP3   OH224342   0.294   5.307  15.026  0.2231  0.0318  0.6476
  976TIP3    H124343   0.360   5.303  15.095  1.6042  0.0572 -0.6346
  976TIP3    H224344   0.313   5.388  14.979  1.1289 -1.3318 -1.4825
  977TIP3   OH224345   6.602   1.252  11.848 -0.0361 -0.0473  0.1262
  977TIP3    H124346   6.692   1.282  11.839 -0.1522 -0.1198 -1.7600
  977TIP3    H224347   6.609   1.157  11.861  0.1655  0.0100  0.4425
  978TIP3   OH224348   2.377   5.377   0.963  0.4085 -0.0795  0.3662
  978TIP3    H124349   2.293   5.345   0.930  1.8819 -1.2494 -2.5987
  978TIP3    H224350   2.387   5.464   0.923  1.4012 -0.7457 -0.9064
  979TIP3   OH224351   2.906   4.381   0.931  0.2862 -0.7323 -0.4540
  979TIP3    H124352   2.827   4.394   0.983  1.0809  0.7156  0.4587
  979TIP3    H224353   2.875   4.378   0.841 -0.5947  3.0234 -0.4092
  980TIP3   OH224354   4.356   1.250  11.842  0.2563 -0.1949  0.0759
  980TIP3    H124355   4.342   1.155  11.850 -0.4607 -0.3320 -2.1413
  980TIP3    H224356   4.272   1.288  11.865  0.3153 -0.1412  0.2034
  981TIP3   OH224357   4.793   0.646   1.139 -0.1894 -0.3602  0.0987
  981TIP3    H124358   4.771   0.583   1.207  1.3563 -1.1814 -0.1146
  981TIP3    H224359   4.740   0.620   1.064  0.4029 -1.4201  0.0229
  982TIP3   OH224360   1.214   3.755   0.881 -0.0682  0.5012  0.4438
  982TIP3    H124361   1.277   3.826   0.893  0.2723  0.0029  1.7106
  982TIP3    H224362   1.266   3.684   0.843 -0.0928  0.4374  0.5300
  983TIP3   OH224363   5.599   4.359   0.229 -1.0106  0.4628 -0.2836
  983TIP3    H124364   5.551   4.436   0.262 -0.7443  0.4599  0.1148
  983TIP3    H224365   5.543   4.324   0.160 -0.2611  2.1503 -1.8447
  984TIP3   OH224366   0.059   4.700  14.132  1.0263 -0.2751  0.2968
  984TIP3    H124367   0.057   4.708  14.228  0.6243 -0.9123  0.3415
  984TIP3    H224368   0.106   4.779  14.103  1.3339 -0.1797  1.0281
  985TIP3   OH224369   4.513   3.046   4.410 -0.0406  0.3902  0.1927
  985TIP3    H124370   4.455   3.105   4.361 -1.0912 -1.3144 -0.6952
  985TIP3    H224371   4.599   3.058   4.369 -0.7937 -0.6140 -1.8304
  986TIP3   OH224372   2.458   6.219   1.436  1.0175  0.1386 -0.4991
  986TIP3    H124373   2.471   6.166   1.515 -0.4811  0.3863 -0.0658
  986TIP3    H224374   2.375   6.189   1.399  1.3899  0.4661 -1.6443
  987TIP3   OH224375   6.309   4.755  13.769 -0.0363 -0.3784  1.0460
  987TIP3    H124376   6.399   4.726  13.758  0.2606  0.4552  1.2422
  987TIP3    H224377   6.258   4.674  13.772  0.6873 -0.8502  0.8167
  988TIP3   OH224378   6.514   2.087   5.362 -0.3254  0.4378 -0.3113
  988TIP3    H124379   6.561   2.144   5.422 -1.7785  1.0238  0.3230
  988TIP3    H224380   6.478   2.018   5.419 -3.7082  2.2608  0.0259
  989TIP3   OH224381   6.094   0.271   5.578  0.0650  0.4715  0.2059
  989TIP3    H124382   6.007   0.259   5.616 -0.1369  1.6571  0.1688
  989TIP3    H224383   6.078   0.279   5.484  0.2918  0.0567  0.1287
  990TIP3   OH224384   5.713   0.295   2.713 -0.2194  0.7635 -0.1217
  990TIP3    H124385   5.697   0.251   2.797  0.4684  0.7338 -0.0012
  990TIP3    H224386   5.688   0.230   2.647 -0.1349  0.5465  0.0583
  991TIP3   OH224387   3.458   6.091   0.456  0.2132  0.3686  0.4057
  991TIP3    H124388   3.518   6.070   0.384  0.5773 -0.5905  0.9843
  991TIP3    H224389   3.407   6.011   0.470  0.8715  0.1868  1.9164
  992TIP3   OH224390   1.962   3.683   5.029  0.0644  0.0877  0.7732
  992TIP3    H124391   1.931   3.597   5.060 -2.6644  1.0068  0.8784
  992TIP3    H224392   1.926   3.691   4.941  1.4258  0.6254  0.2396
  993TIP3   OH224393   6.144   2.469  14.763 -0.2061 -0.0357 -0.0166
  993TIP3    H124394   6.230   2.502  14.787 -0.5904  1.0161 -0.0381
  993TIP3    H224395   6.084   2.540  14.787 -1.0909 -0.8547  0.2352
  994TIP3   OH224396   3.187   6.657  15.999  0.5441  0.2112 -0.8724
  994TIP3    H124397   3.243   6.617  16.065  0.1867 -1.1837 -1.3800
  994TIP3    H224398   3.107   6.681  16.046  0.1965 -0.9832 -0.8053
  995TIP3   OH224399   4.497   4.393  12.284  0.1132 -0.2577  0.6716
  995TIP3    H124400   4.562   4.373  12.352  0.1904 -1.0195  0.3845
  995TIP3    H224401   4.527   4.475  12.246 -0.7072  0.9527  2.5014
  996TIP3   OH224402   4.882   0.070   5.097 -0.1393  0.1147  0.7767
  996TIP3    H124403   4.969   0.095   5.067  0.2052 -1.4307  0.3963
  996TIP3    H224404   4.891  -0.021   5.124 -1.7819 -0.2925  0.0726
  997TIP3   OH224405   3.796   3.645   3.732  0.4603 -0.2774  0.2139
  997TIP3    H124406   3.739   3.679   3.663  1.6272 -1.9992 -1.7202
  997TIP3    H224407   3.858   3.716   3.750  0.9233 -0.2062 -1.4781
  998TIP3   OH224408   1.925   2.290   1.544  0.3292  0.0473  0.4079
  998TIP3    H124409   1.869   2.237   1.601 -0.0691 -0.9296 -0.8323
  998TIP3    H224410   1.868   2.313   1.470  0.9855  0.8214  0.1213
  999TIP3   OH224411   4.663   0.503   6.194  0.3192  0.5549 -0.4495
  999TIP3    H124412   4.585   0.549   6.226  0.5251  0.7398 -0.2072
  999TIP3    H224413   4.693   0.452   6.269  0.5663  0.6685 -0.4693
 1000TIP3   OH224414   3.372   2.206  14.504  0.2177  0.5094  0.0031
 1000TIP3    H124415   3.453   2.243  14.469  2.4635 -2.7725  1.2380
 1000TIP3    H224416   3.340   2.149  14.434  0.9076 -0.7414  0.6566
 1001TIP3   OH224417   1.001   0.841  14.622 -0.1037 -0.3009  0.2813
 1001TIP3    H124418   1.000   0.899  14.699  0.2531 -0.6125  0.5300
 1001TIP3    H224419   1.015   0.899  14.548  1.4896 -0.1638  0.6494
 1002TIP3   OH224420   1.816   6.000  11.670 -0.0770 -0.1329  0.2600
 1002TIP3    H124421   1.784   5.965  11.753  1.7159  0.4251  1.2456
 1002TIP3    H224422   1.884   5.938  11.643 -1.0407 -0.6172 -1.1066
 1003TIP3   OH224423   0.164   2.277  11.172 -0.8000  0.2083 -0.1804
 1003TIP3    H124424   0.108   2.246  11.244 -0.5938  0.1783 -0.0315
 1003TIP3    H224425   0.142   2.221  11.098 -1.5210  0.6918 -0.3463
 1004TIP3   OH224426   3.464   3.469   2.771  0.6072  0.3029 -0.0251
 1004TIP3    H124427   3.493   3.552   2.810  0.7055 -0.6821  2.1584
 1004TIP3    H224428   3.370   3.465   2.790  0.8006 -0.5348  0.7991
 1005TIP3   OH224429   6.113   3.436  13.107 -0.7145  0.4127 -0.4618
 1005TIP3    H124430   6.035   3.491  13.116 -2.8898 -2.4678 -0.4179
 1005TIP3    H224431   6.146   3.425  13.196  0.6455  2.6802 -0.6003
 1006TIP3   OH224432   4.082   4.649   6.993  0.2165 -0.0231  0.1352
 1006TIP3    H124433   4.011   4.680   6.938 -1.4422 -2.4918  0.7425
 1006TIP3    H224434   4.151   4.623   6.932  0.3175  1.6207 -0.4936
 1007TIP3   OH224435   1.226   0.399   5.979 -0.2282 -0.1129  0.3237
 1007TIP3    H124436   1.243   0.482   5.934 -0.8683 -0.8108 -1.3089
 1007TIP3    H224437   1.307   0.349   5.970  0.9881  1.1049  3.3007
 1008TIP3   OH224438   3.583   1.220  14.569 -0.0271  0.3530 -0.0885
 1008TIP3    H124439   3.627   1.135  14.559 -1.2935 -0.5188  1.3363
 1008TIP3    H224440   3.649   1.284  14.541  1.6099 -0.9876  0.4831
 1009TIP3   OH224441   0.616   0.255   1.225  0.1310  0.2607 -0.1002
 1009TIP3    H124442   0.647   0.165   1.232 -0.5133 -0.0485 -1.0752
 1009TIP3    H224443   0.522   0.250   1.244 -0.4277  0.3095 -2.5060
 1010TIP3   OH224444   2.771   2.078  12.284 -0.7880 -0.0278  0.1871
 1010TIP3    H124445   2.706   2.142  12.253 -1.7603 -0.9400  0.2828
 1010TIP3    H224446   2.739   2.052  12.371  0.3165  0.3242  0.7110
 1011TIP3   OH224447   0.050   5.752   0.797  0.5842 -0.0205 -0.1247
 1011TIP3    H124448   0.106   5.772   0.721  1.8825 -1.3621  0.4269
 1011TIP3    H224449   0.111   5.744   0.870 -0.6002  0.7582  0.9996
 1012TIP3   OH224450   6.163   4.514  13.761  0.4334  0.9177  0.0874
 1012TIP3    H124451   6.110   4.538  13.684  4.1773 -0.6863 -3.3693
 1012TIP3    H224452   6.168   4.419  13.757  2.6299  0.9604  0.8952
 1013TIP3   OH224453   5.594   3.061  10.903 -0.1297  0.4836 -0.7897
 1013TIP3    H124454   5.634   2.974  10.906  1.3830  1.1713  1.5196
 1013TIP3    H224455   5.660   3.116  10.862  1.7184  1.6825  3.2742
 1014TIP3   OH224456   1.017   1.032   1.677 -0.5349  0.4956  0.6889
 1014TIP3    H124457   0.930   0.993   1.681  0.0846 -0.9771  0.4143
 1014TIP3    H224458   1.068   0.982   1.741  0.4681  0.3781 -0.1882
 1015TIP3   OH224459   1.747   5.937  15.575  0.7781 -0.4046  0.1116
 1015TIP3    H124460   1.663   5.893  15.587 -0.0343  0.7872 -0.9452
 1015TIP3    H224461   1.729   6.030  15.592  2.2808 -0.3253  1.5482
 1016TIP3   OH224462   4.291   3.483  13.733  0.0705  0.0714 -0.1742
 1016TIP3    H124463   4.313   3.575  13.717 -0.9893  0.2762 -0.5766
 1016TIP3    H224464   4.261   3.450  13.648  0.9272 -0.8037 -0.1538
 1017TIP3   OH224465   4.782   2.044   5.698 -0.2383 -0.2915  0.9475
 1017TIP3    H124466   4.749   2.123   5.741  0.6668 -0.3234  1.7120
 1017TIP3    H224467   4.837   2.076   5.627 -1.7404 -0.2387 -0.2507
 1018TIP3   OH224468   3.044   5.928  13.167 -0.5601 -0.3661  0.4216
 1018TIP3    H124469   3.066   6.017  13.195  1.0272 -0.7198  0.3971
 1018TIP3    H224470   3.002   5.889  13.243  1.2704 -0.4569  1.4374
 1019TIP3   OH224471   4.281   2.360  16.385 -0.1760 -0.6270  0.6141
 1019TIP3    H124472   4.254   2.281  16.434  0.2948 -0.5851  0.9505
 1019TIP3    H224473   4.373   2.372  16.410 -0.6069  0.8017  1.6155
 1020TIP3   OH224474   4.927   3.718  15.296 -0.1459  0.0531  0.2510
 1020TIP3    H124475   4.906   3.685  15.209  0.2859  0.2732  0.0575
 1020TIP3    H224476   4.843   3.737  15.336 -0.3512 -0.1457 -0.0792
 1021TIP3   OH224477   5.063   4.517   2.029 -0.2263  0.1267 -0.1898
 1021TIP3    H124478   5.031   4.592   1.978  0.7911 -0.2524 -1.4232
 1021TIP3    H224479   5.016   4.442   1.992 -0.2272 -0.0268  0.1237
 1022TIP3   OH224480   4.298   5.143   2.611 -0.2099  0.3158  0.0467
 1022TIP3    H124481   4.346   5.128   2.530 -2.1661 -2.1358 -0.8032
 1022TIP3    H224482   4.291   5.056   2.651 -1.7978  0.9828  1.3260
 1023TIP3   OH224483   4.869   4.528   0.170 -0.2543  0.0536 -0.3111
 1023TIP3    H124484   4.847   4.584   0.244  1.6648  0.2223  0.1987
 1023TIP3    H224485   4.909   4.587   0.106 -1.4250 -0.1754 -1.2856
 1024TIP3   OH224486   0.973   3.980   4.088 -0.7954  0.2607 -0.3282
 1024TIP3    H124487   0.913   4.037   4.040  0.0937  0.8627 -0.7507
 1024TIP3    H224488   1.054   3.983   4.037  0.4873  1.6442  1.6595
 1025TIP3   OH224489   4.346   6.642  11.238  0.3065 -0.3023  0.1829
 1025TIP3    H124490   4.366   6.549  11.234  0.8315 -0.1534 -2.0005
 1025TIP3    H224491   4.253   6.647  11.212  0.6367 -0.1611 -1.0585
 1026TIP3   OH224492   1.513   5.200   6.557 -0.4675 -0.3761 -0.1164
 1026TIP3    H124493   1.605   5.182   6.578 -0.3543  1.1449  0.8670
 1026TIP3    H224494   1.469   5.203   6.642 -1.0590  0.6831 -0.4402
 1027TIP3   OH224495   3.608   1.834   2.614 -0.0830  0.0978  0.4179
 1027TIP3    H124496   3.660   1.870   2.686 -1.2591 -0.3847  1.5610
 1027TIP3    H224497   3.672   1.797   2.554  0.9131 -0.1207  1.5680
 1028TIP3   OH224498   4.987   0.074  13.486  0.2365  0.3644  0.0589
 1028TIP3    H124499   5.039   0.141  13.531  0.3131  0.7795 -0.6353
 1028TIP3    H224500   5.048   0.001  13.473 -0.0452 -0.1694  1.4841
 1029TIP3   OH224501   2.051   2.007  15.059 -0.0028  0.3183  0.1271
 1029TIP3    H124502   1.967   2.026  15.101 -0.3420  0.2849 -0.5284
 1029TIP3    H224503   2.066   1.914  15.077 -0.4329  0.1589 -0.3185
 1030TIP3   OH224504   0.662   1.785   4.683  0.4851 -0.4359  0.2034
 1030TIP3    H124505   0.566   1.782   4.689  0.3721  0.0399 -1.0645
 1030TIP3    H224506   0.683   1.878   4.681  0.9130 -0.5425 -0.3702
 1031TIP3   OH224507   0.240   4.555  16.455  0.2023  0.1596  0.3928
 1031TIP3    H124508   0.166   4.527  16.402 -0.3011 -0.3997  1.3591
 1031TIP3    H224509   0.317   4.526  16.407 -0.1530  1.5088 -1.0538
 1032TIP3   OH224510   1.687   4.807   0.152 -0.1101  0.3078  0.4207
 1032TIP3    H124511   1.700   4.816   0.246 -0.8779 -0.7710  0.6520
 1032TIP3    H224512   1.730   4.725   0.129 -1.7080 -0.5323  0.2466
 1033TIP3   OH224513   3.490   6.136  12.150 -0.4705  0.5775 -0.0813
 1033TIP3    H124514   3.581   6.131  12.180 -0.6339 -0.2724  0.2888
 1033TIP3    H224515   3.441   6.162  12.228 -1.0542 -2.7132  0.7919
 1034TIP3   OH224516   3.052   3.341   4.786 -0.1810 -0.8658 -1.1817
 1034TIP3    H124517   2.993   3.380   4.851  1.8095 -1.4033  1.0960
 1034TIP3    H224518   3.129   3.399   4.786  1.9515 -3.4464  0.7371
 1035TIP3   OH224519   4.739   6.552  13.445  0.1577  0.3824 -0.4462
 1035TIP3    H124520   4.832   6.575  13.436  0.7865 -2.0781 -1.0242
 1035TIP3    H224521   4.709   6.538  13.356 -0.8114  1.1291 -0.2607
 1036TIP3   OH224522   2.315   2.078  16.552 -0.3262 -0.0222 -0.6672
 1036TIP3    H124523   2.225   2.054  16.575 -0.0254 -0.5837 -0.0683
 1036TIP3    H224524   2.368   2.041  16.622  0.3332  0.6945 -0.7844
 1037TIP3   OH224525   5.588   1.033  14.506 -0.1374 -0.0994 -0.3504
 1037TIP3    H124526   5.575   0.948  14.547 -1.4955  0.2026 -0.1026
 1037TIP3    H224527   5.657   1.018  14.441 -1.1992 -1.6911 -1.1729
 1038TIP3   OH224528   2.587   2.650  14.435  0.3408 -0.0410  0.4208
 1038TIP3    H124529   2.588   2.715  14.505  0.4631  0.4843 -0.0685
 1038TIP3    H224530   2.519   2.588  14.461 -1.3295  1.4781 -0.1923
 1039TIP3   OH224531   3.168   3.700   1.794 -0.1735 -0.2560  0.2368
 1039TIP3    H124532   3.162   3.748   1.711  0.0051 -2.0652 -0.8643
 1039TIP3    H224533   3.246   3.645   1.784 -0.3012 -0.6899  1.5118
 1040TIP3   OH224534   2.474   4.826  15.380 -0.1162 -0.2085 -0.3410
 1040TIP3    H124535   2.501   4.911  15.345  0.3374 -0.5517 -0.8411
 1040TIP3    H224536   2.417   4.789  15.313  2.1819 -1.6520 -1.6184
 1041TIP3   OH224537   5.368   1.937   2.916 -0.1894  0.5273  0.5306
 1041TIP3    H124538   5.447   1.964   2.870 -0.3033  0.3934  0.2565
 1041TIP3    H224539   5.306   2.008   2.903 -0.9955 -0.4579 -1.4268
 1042TIP3   OH224540   0.710   4.535  13.740 -0.0871  0.3568 -0.3626
 1042TIP3    H124541   0.703   4.586  13.659  0.8043  0.3459 -0.4549
 1042TIP3    H224542   0.681   4.595  13.809 -3.2412 -0.3897 -0.9037
 1043TIP3   OH224543   0.183   5.278   3.522 -0.1303  0.1137 -0.6309
 1043TIP3    H124544   0.113   5.220   3.551  0.7904 -0.9044 -0.3678
 1043TIP3    H224545   0.192   5.260   3.429  0.4994 -0.5704 -0.4487
 1044TIP3   OH224546   0.359   3.169  15.446 -0.2573 -0.4829 -0.0022
 1044TIP3    H124547   0.386   3.159  15.537 -0.0012  0.8303  0.0742
 1044TIP3    H224548   0.302   3.094  15.430 -0.4705 -0.6171  1.2936
 1045TIP3   OH224549   3.378   4.614   3.117  0.3664  0.2914  0.0235
 1045TIP3    H124550   3.474   4.611   3.115  0.3650 -2.6245  0.4722
 1045TIP3    H224551   3.355   4.581   3.204 -1.0763  1.7269  0.2293
 1046TIP3   OH224552   2.543   6.646  11.512  0.4677  0.0888 -0.2203
 1046TIP3    H124553   2.628   6.673  11.545  0.4247  2.1849 -1.6344
 1046TIP3    H224554   2.501   6.727  11.482 -0.7212 -1.2313 -2.4560
 1047TIP3   OH224555   5.095   3.491   3.850 -0.2168  0.9075 -0.5403
 1047TIP3    H124556   5.002   3.474   3.863 -0.1616 -0.7614 -1.9133
 1047TIP3    H224557   5.098   3.574   3.801 -1.1438 -0.0328 -2.2887
 1048TIP3   OH224558   6.631   3.590  14.555  0.1347 -0.4355 -0.8054
 1048TIP3    H124559   6.712   3.538  14.547  0.7283  0.4323 -0.5470
 1048TIP3    H224560   6.561   3.528  14.532  0.9049 -1.0752 -1.5202
 1049TIP3   OH224561   5.202   6.113   4.859  0.2847  0.3244 -0.4681
 1049TIP3    H124562   5.118   6.068   4.850  0.9142 -0.6515 -1.8983
 1049TIP3    H224563   5.208   6.134   4.952 -1.6864  0.7506 -0.3852
 1050TIP3   OH224564   1.177   2.283  17.327 -0.0547 -0.5350 -0.6730
 1050TIP3    H124565   1.266   2.318  17.320 -0.3190 -0.1684 -2.9563
 1050TIP3    H224566   1.127   2.354  17.367  0.4099 -0.1948 -0.6819
 1051TIP3   OH224567   4.515   4.734  12.416 -0.2508 -0.7254  0.1219
 1051TIP3    H124568   4.546   4.724  12.327  0.6274 -0.8361  0.4318
 1051TIP3    H224569   4.584   4.695  12.470 -0.8121 -0.7419  0.8392
 1052TIP3   OH224570   6.334   6.156  12.443 -0.2485 -0.0746 -0.3379
 1052TIP3    H124571   6.297   6.145  12.356 -1.5107  0.0849  0.1488
 1052TIP3    H224572   6.302   6.081  12.493  0.4868 -0.1842 -0.0165
 1053TIP3   OH224573   5.892   3.738  17.388  0.2678 -0.4437  0.0722
 1053TIP3    H124574   5.877   3.651  17.424 -0.7021  0.1906  1.2612
 1053TIP3    H224575   5.883   3.797  17.462 -1.7542  0.9215 -1.1433
 1054TIP3   OH224576   3.159   2.081  12.021  0.1574 -0.1563 -0.5441
 1054TIP3    H124577   3.167   2.124  11.935  1.6730 -0.3349 -0.5188
 1054TIP3    H224578   3.239   2.106  12.067  0.9489 -2.7302 -0.3964
 1055TIP3   OH224579   5.711   3.582   5.399  0.7258  0.2130  0.1052
 1055TIP3    H124580   5.671   3.664   5.429  1.9394 -0.1503  3.1619
 1055TIP3    H224581   5.638   3.527   5.373 -0.4142  1.1159  1.2494
 1056TIP3   OH224582   0.368   4.004  16.538  0.2238  0.3175 -0.0164
 1056TIP3    H124583   0.321   3.994  16.621  0.6276 -1.2230  0.0679
 1056TIP3    H224584   0.344   4.091  16.506 -1.9024 -0.0320  0.4977
 1057TIP3   OH224585   4.626   5.314  15.296  0.3330 -0.3783  0.1356
 1057TIP3    H124586   4.576   5.383  15.253  0.7112  1.7028  2.7214
 1057TIP3    H224587   4.561   5.268  15.350  0.5702  0.0208  0.7796
 1058TIP3   OH224588   0.328   1.685  16.123 -0.7298  0.7819 -0.0531
 1058TIP3    H124589   0.394   1.621  16.149  0.3277  2.2264  0.9275
 1058TIP3    H224590   0.368   1.734  16.051 -0.8964  1.3835  0.2584
 1059TIP3   OH224591   1.666   1.641   4.363 -0.0603  0.3743 -0.4570
 1059TIP3    H124592   1.668   1.567   4.424 -1.5285  1.9061  1.6322
 1059TIP3    H224593   1.753   1.643   4.324  0.4432 -1.6234  0.4175
 1060TIP3   OH224594   0.402   3.051  11.233 -0.3773  0.1304 -0.4358
 1060TIP3    H124595   0.327   3.000  11.202  0.3794 -0.7035 -0.9436
 1060TIP3    H224596   0.447   2.992  11.295  0.8908 -0.1113 -1.5490
 1061TIP3   OH224597   5.578   5.772  16.358 -0.0132  0.1516 -0.5996
 1061TIP3    H124598   5.627   5.818  16.427 -3.4394  0.7837  1.6728
 1061TIP3    H224599   5.502   5.827  16.341 -1.3681 -1.9605 -1.9351
 1062TIP3   OH224600   0.625   6.298   3.526  0.3713 -0.3069  0.4278
 1062TIP3    H124601   0.701   6.355   3.537  0.1785  0.0391 -0.0412
 1062TIP3    H224602   0.583   6.328   3.446  0.9803 -1.9353 -0.5564
 1063TIP3   OH224603   3.602   6.026   4.612  0.8475 -0.3604  0.3367
 1063TIP3    H124604   3.594   6.069   4.698 -0.2640 -0.3547  0.2505
 1063TIP3    H224605   3.542   5.952   4.618 -1.1161  0.9978 -1.2333
 1064TIP3   OH224606   3.292   4.774  14.003 -0.3257 -0.3139 -0.2958
 1064TIP3    H124607   3.261   4.749  13.916  2.2034  2.1030 -2.0514
 1064TIP3    H224608   3.387   4.786  13.992 -0.3645  3.3619  1.8490
 1065TIP3   OH224609   1.551   0.417   4.808  0.1229 -0.1557  0.4823
 1065TIP3    H124610   1.539   0.467   4.889 -0.7977  1.0007 -0.3258
 1065TIP3    H224611   1.645   0.425   4.789  0.3118 -0.2744  1.3190
 1066TIP3   OH224612   4.858   0.530   3.219 -0.3035  0.3238 -0.2865
 1066TIP3    H124613   4.938   0.477   3.224 -0.3958  0.3017  1.6379
 1066TIP3    H224614   4.790   0.474   3.258 -1.1656  0.5455 -1.4198
 1067TIP3   OH224615   0.983   2.984   5.184  0.4812  0.8706  0.2355
 1067TIP3    H124616   1.034   2.998   5.264 -0.0634  2.2804  0.3617
 1067TIP3    H224617   0.964   3.072   5.152 -2.3912  0.4147  0.5003
 1068TIP3   OH224618   3.531   2.865   2.963 -0.6944 -0.3317  0.0566
 1068TIP3    H124619   3.620   2.831   2.968 -0.7476 -0.5149 -0.2426
 1068TIP3    H224620   3.540   2.958   2.985 -0.8877 -1.0125  3.4863
 1069TIP3   OH224621   0.483   3.821   2.493 -0.4070 -0.8457  0.0411
 1069TIP3    H124622   0.559   3.805   2.436 -2.0719  0.9306 -2.9273
 1069TIP3    H224623   0.442   3.735   2.502  0.1738 -1.2739 -1.0950
 1070TIP3   OH224624   4.797   5.929  12.764 -0.0597  0.7019 -0.3134
 1070TIP3    H124625   4.788   6.003  12.823  0.6626 -0.5457  1.4646
 1070TIP3    H224626   4.709   5.918  12.726 -0.5068  1.6277  0.4092
 1071TIP3   OH224627   4.233   2.187  13.215  0.6753  0.1330 -0.1857
 1071TIP3    H124628   4.298   2.178  13.285  0.3710 -0.6158  0.0072
 1071TIP3    H224629   4.277   2.154  13.137  1.3054  1.7341 -0.5436
 1072TIP3   OH224630   1.152   5.832   0.445  0.2086 -0.1238  0.1228
 1072TIP3    H124631   1.077   5.829   0.505 -1.9092  3.7137 -1.8796
 1072TIP3    H224632   1.130   5.771   0.375 -0.0102 -0.5667  0.5762
 1073TIP3   OH224633   1.464   6.099  13.570  0.0065 -0.5576  0.0492
 1073TIP3    H124634   1.524   6.165  13.534  0.6667 -1.7516 -1.1280
 1073TIP3    H224635   1.429   6.053  13.494  1.4103 -3.1510  0.8333
 1074TIP3   OH224636   5.617   6.602   3.963 -0.1755  0.6186  0.3440
 1074TIP3    H124637   5.555   6.549   4.014  0.9441  0.3865  1.5222
 1074TIP3    H224638   5.633   6.679   4.019  0.9820  0.4238  0.2963
 1075TIP3   OH224639   0.928   4.074   4.350  0.7154  0.4639  0.4733
 1075TIP3    H124640   0.957   4.048   4.263 -0.2156 -1.4023  0.6777
 1075TIP3    H224641   0.998   4.130   4.383  0.7947  1.7829 -1.7014
 1076TIP3   OH224642   1.593   4.133  13.793 -0.3151 -0.0559 -0.0256
 1076TIP3    H124643   1.629   4.052  13.756  0.1046  0.0102  0.2352
 1076TIP3    H224644   1.502   4.135  13.761 -0.0835 -0.2044 -0.7159
 1077TIP3   OH224645   2.361   6.312  17.350  0.0564 -0.3810 -0.4043
 1077TIP3    H124646   2.277   6.349  17.324  0.6152 -0.3829 -2.3515
 1077TIP3    H224647   2.378   6.242  17.287  0.8236 -1.4080  0.8869
 1078TIP3   OH224648   2.773   0.174  13.216 -0.4808 -0.1647  0.2063
 1078TIP3    H124649   2.820   0.201  13.294 -1.6214  1.1731  0.4564
 1078TIP3    H224650   2.840   0.171  13.147 -0.0592  2.2473  0.4236
 1079TIP3   OH224651   5.406   0.508   3.660  0.2120 -0.1733 -0.0358
 1079TIP3    H124652   5.466   0.462   3.601  0.2422  0.8498 -0.8460
 1079TIP3    H224653   5.456   0.585   3.689 -0.4129  0.2481 -0.0598
 1080TIP3   OH224654   6.710   5.735   6.893 -0.0742 -0.1733  0.2425
 1080TIP3    H124655   6.677   5.802   6.833 -0.5669  0.0016  0.7059
 1080TIP3    H224656   6.701   5.774   6.980 -1.7198 -1.3813  0.6480
 1081TIP3   OH224657   5.660   1.712   3.510 -0.0538 -0.1270  0.6873
 1081TIP3    H124658   5.583   1.668   3.546  0.1862  1.1215  2.9171
 1081TIP3    H224659   5.731   1.649   3.523 -0.6319 -1.4046 -1.6447
 1082TIP3   OH224660   4.616   1.435  15.381 -0.6215  0.2256  0.8433
 1082TIP3    H124661   4.589   1.521  15.414  0.1210  1.0443 -0.5885
 1082TIP3    H224662   4.548   1.412  15.318 -1.1052 -0.5195  1.6085
 1083TIP3   OH224663   6.321   0.663  17.074 -0.2443  0.4320 -0.0682
 1083TIP3    H124664   6.353   0.752  17.061  2.0790 -0.3603 -0.3717
 1083TIP3    H224665   6.342   0.618  16.991 -2.8405 -0.0518 -0.5526
 1084TIP3   OH224666   3.573   3.997   0.079 -0.3398  0.0607  0.0905
 1084TIP3    H124667   3.645   4.060   0.074 -0.0684 -0.0606  2.0604
 1084TIP3    H224668   3.494   4.052   0.081 -0.1311  0.3296  1.2510
 1085TIP3   OH224669   4.752   5.624   1.360  0.0282 -0.7442 -0.1321
 1085TIP3    H124670   4.777   5.654   1.273  1.9875 -1.5940  0.0730
 1085TIP3    H224671   4.759   5.528   1.355 -0.6606 -0.8500  0.7335
 1086TIP3   OH224672   5.007   1.235  12.443  0.3243 -0.7700 -0.5248
 1086TIP3    H124673   5.042   1.153  12.478 -1.3342 -0.7237  1.4507
 1086TIP3    H224674   4.931   1.208  12.391 -0.3930 -0.5252  0.3565
 1087TIP3   OH224675   6.065   0.568  15.448  0.3668  0.2837  0.3914
 1087TIP3    H124676   5.970   0.582  15.457 -0.1214 -0.1077 -2.7875
 1087TIP3    H224677   6.084   0.595  15.358  3.8939  3.1384  1.7332
 1088TIP3   OH224678   6.387   5.273   4.292  0.7555 -0.0585 -0.1755
 1088TIP3    H124679   6.454   5.235   4.349  0.9311 -1.8495 -1.4797
 1088TIP3    H224680   6.403   5.367   4.294  2.4683 -0.3370  0.5815
 1089TIP3   OH224681   0.743   5.010   5.340 -0.1811 -0.3735  0.6710
 1089TIP3    H124682   0.826   4.985   5.300  0.2240  1.4914  0.2167
 1089TIP3    H224683   0.697   4.928   5.355  2.0259 -1.5198  1.5975
 1090TIP3   OH224684   2.837   4.984  14.716  0.0355  0.3946  0.3205
 1090TIP3    H124685   2.845   5.077  14.692  3.2546  0.6203  1.7468
 1090TIP3    H224686   2.832   4.938  14.632 -0.5902  1.7805 -0.4366
 1091TIP3   OH224687   5.407   2.907   4.927 -0.1926 -0.2571 -0.4825
 1091TIP3    H124688   5.496   2.901   4.893  0.3267 -2.4701  1.0084
 1091TIP3    H224689   5.405   2.991   4.974  1.5904 -0.7657  0.6154
 1092TIP3   OH224690   4.254   5.783   4.135 -0.1434  0.0400 -0.1045
 1092TIP3    H124691   4.259   5.878   4.143 -0.8859  0.0095  0.9594
 1092TIP3    H224692   4.240   5.767   4.042 -1.8795  1.0692 -0.0532
 1093TIP3   OH224693   5.479   4.476  13.095 -0.4389  0.6816 -0.1863
 1093TIP3    H124694   5.519   4.547  13.044 -0.6480  1.7925  1.1664
 1093TIP3    H224695   5.534   4.469  13.173 -2.2085  1.5348  1.2170
 1094TIP3   OH224696   4.261   2.700   3.203  0.2519  0.1679  0.6487
 1094TIP3    H124697   4.332   2.642   3.175 -0.1380 -0.8486  1.6938
 1094TIP3    H224698   4.305   2.782   3.228  0.7957  0.3960 -0.9440
 1095TIP3   OH224699   1.628   5.425  14.742 -0.3670 -0.6577 -0.1339
 1095TIP3    H124700   1.542   5.434  14.783  1.1372 -0.6895  3.3635
 1095TIP3    H224701   1.625   5.484  14.667 -2.3770  1.9690  1.8309
 1096TIP3   OH224702   3.658   5.895  15.354 -0.3621 -0.0026 -0.7839
 1096TIP3    H124703   3.718   5.858  15.290  0.8523  1.3502 -0.4952
 1096TIP3    H224704   3.571   5.868  15.325  0.3127 -1.1573 -1.7968
 1097TIP3   OH224705   1.496   3.877   1.276  0.2106 -0.4949  0.0031
 1097TIP3    H124706   1.431   3.852   1.209  0.8864 -0.6787 -0.5963
 1097TIP3    H224707   1.497   3.802   1.336  1.5771 -1.5742 -1.2987
 1098TIP3   OH224708   5.572   4.392   5.648  0.5013  0.2242 -0.7016
 1098TIP3    H124709   5.542   4.439   5.570  0.7541 -0.0784 -0.9887
 1098TIP3    H224710   5.556   4.452   5.720 -0.1122  0.3498 -0.9352
 1099TIP3   OH224711   0.004   4.105  14.441 -0.4730 -0.5036 -0.4076
 1099TIP3    H124712   0.038   4.028  14.488 -3.0877 -1.8593 -0.5350
 1099TIP3    H224713   0.010   4.176  14.505 -0.0841 -1.3366  0.5083
 1100TIP3   OH224714   0.588   1.863  16.260 -0.0768 -0.1432  0.5751
 1100TIP3    H124715   0.599   1.854  16.165 -1.3115 -1.5918  0.5509
 1100TIP3    H224716   0.654   1.805  16.298  0.0902  0.0676  0.6151
 1101TIP3   OH224717   2.323   5.743  13.613 -0.9083 -0.2316  0.5349
 1101TIP3    H124718   2.418   5.745  13.601 -1.0687  0.8994 -0.8396
 1101TIP3    H224719   2.301   5.650  13.618 -0.1297 -0.7564 -3.1668
 1102TIP3   OH224720   3.326   0.115  17.216 -0.2410  0.2235  0.2407
 1102TIP3    H124721   3.263   0.143  17.150  0.7493  0.8300 -0.4827
 1102TIP3    H224722   3.313   0.175  17.290 -2.5108 -1.5022  1.3571
 1103TIP3   OH224723   0.901   6.483   5.470  0.2441  0.0826 -0.0647
 1103TIP3    H124724   0.952   6.543   5.415  2.9043 -0.0871  2.0346
 1103TIP3    H224725   0.878   6.535   5.546  0.0238 -0.7492  0.4450
 1104TIP3   OH224726   4.721   3.973  13.157  0.2737 -0.1493  0.6033
 1104TIP3    H124727   4.711   3.909  13.086 -1.3524 -2.0505  2.3900
 1104TIP3    H224728   4.701   4.057  13.116 -1.2432 -1.2440 -1.0772
 1105TIP3   OH224729   0.014   6.275   1.306  0.0625  0.5854 -0.7995
 1105TIP3    H124730  -0.053   6.243   1.246 -0.9090  1.6287 -0.2918
 1105TIP3    H224731   0.055   6.349   1.261  0.2624  0.5174 -0.7328
 1106TIP3   OH224732   1.225   0.231  15.219  0.0425 -0.2301  0.0861
 1106TIP3    H124733   1.256   0.287  15.148 -2.7035  0.3590 -0.7695
 1106TIP3    H224734   1.215   0.144  15.179 -2.5307  0.3345 -0.6498
 1107TIP3   OH224735   0.058   2.979  14.588  0.2768 -0.0625 -0.0256
 1107TIP3    H124736  -0.030   2.979  14.627  1.0442  0.7625  1.7734
 1107TIP3    H224737   0.103   3.053  14.629  1.9096 -0.6081 -0.7589
 1108TIP3   OH224738   5.767   5.087  11.856 -0.1900  0.7535 -0.4432
 1108TIP3    H124739   5.676   5.096  11.828 -0.2079  1.7840 -0.0901
 1108TIP3    H224740   5.812   5.161  11.814  0.1993  1.0798  0.5315
 1109TIP3   OH224741   0.389   1.367  14.326 -0.0431 -0.1366 -0.8202
 1109TIP3    H124742   0.385   1.277  14.359  1.3045 -0.3311 -1.1352
 1109TIP3    H224743   0.328   1.416  14.382 -1.5325 -1.4205 -1.2727
 1110TIP3   OH224744   5.668   1.085   6.170  0.6970 -0.1713 -0.3774
 1110TIP3    H124745   5.708   1.003   6.143  1.6283  0.9921 -2.7516
 1110TIP3    H224746   5.577   1.078   6.139  0.7607 -0.3238 -0.5340
 1111TIP3   OH224747   3.577   5.190   3.305  0.5077 -0.0537 -0.3735
 1111TIP3    H124748   3.505   5.253   3.303  0.9865  0.5483  0.7363
 1111TIP3    H224749   3.608   5.185   3.214  0.9115  1.8333 -0.3664
 1112TIP3   OH224750   5.872   3.751  16.570 -0.1526  0.3270 -0.2105
 1112TIP3    H124751   5.958   3.762  16.530 -0.2675  2.4449  0.0413
 1112TIP3    H224752   5.883   3.783  16.660 -1.1286  0.3682 -0.0958
 1113TIP3   OH224753   3.876   6.506  11.335  0.5393  0.0847 -0.2694
 1113TIP3    H124754   3.946   6.568  11.315  1.8205 -1.4741 -0.8203
 1113TIP3    H224755   3.799   6.561  11.350  1.7018  1.8120 -0.3446
 1114TIP3   OH224756   3.795   5.403   1.875  0.2752 -0.3553 -0.4600
 1114TIP3    H124757   3.771   5.458   1.949  1.0738 -1.5065  0.6979
 1114TIP3    H224758   3.863   5.453   1.829 -1.4215  1.1382 -1.4785
 1115TIP3   OH224759   3.896   5.793  13.967  0.4270  0.1513  0.4307
 1115TIP3    H124760   3.857   5.756  14.046  2.1264 -0.7620  0.8715
 1115TIP3    H224761   3.896   5.721  13.904  0.7116  0.3667  0.1821
 1116TIP3   OH224762   1.416   6.534   7.005 -0.2248 -0.0332 -0.5471
 1116TIP3    H124763   1.417   6.630   7.007  1.4506 -0.0321  0.3622
 1116TIP3    H224764   1.482   6.508   7.069 -1.6812 -1.8383  0.3160
 1117TIP3   OH224765   4.421   2.093  14.865  0.2261  0.4510  0.5470
 1117TIP3    H124766   4.490   2.040  14.904 -1.9266 -1.2886  2.2621
 1117TIP3    H224767   4.406   2.054  14.779  3.0702  2.5478 -1.0925
 1118TIP3   OH224768   5.247   5.675  15.291  0.1628  0.3895  0.2392
 1118TIP3    H124769   5.235   5.651  15.199 -0.3303  4.0583 -0.8239
 1118TIP3    H224770   5.219   5.598  15.340 -0.0914 -1.5084 -2.6350
 1119TIP3   OH224771   0.641   4.471   5.497  0.5897 -0.2453 -0.2058
 1119TIP3    H124772   0.636   4.551   5.446 -1.3631  0.1312  0.4964
 1119TIP3    H224773   0.583   4.486   5.572  3.1612 -0.8170  2.0862
 1120TIP3   OH224774   0.148   4.713  14.987  0.4913  0.1123 -0.1482
 1120TIP3    H124775   0.117   4.722  15.077 -0.1855 -2.7157 -0.0292
 1120TIP3    H224776   0.242   4.697  14.995  0.2311 -1.3334  0.1596
 1121TIP3   OH224777   0.367   2.244   1.481 -0.4102 -0.1464  0.1684
 1121TIP3    H124778   0.306   2.293   1.536 -0.1970 -0.9978  1.1940
 1121TIP3    H224779   0.451   2.249   1.527  0.2832  0.8627 -1.1394
 1122TIP3   OH224780   5.468   4.967  16.019 -0.1162  0.3076 -0.1784
 1122TIP3    H124781   5.452   5.054  16.055 -0.0822  0.2384  0.0075
 1122TIP3    H224782   5.451   4.975  15.926 -0.3294  0.4611 -0.1260
 1123TIP3   OH224783   4.289   0.977  11.923 -0.4002  0.6230  0.3685
 1123TIP3    H124784   4.333   0.972  12.008  1.5719 -0.8181 -0.6607
 1123TIP3    H224785   4.290   0.887  11.890 -4.4419  0.4030  0.3202
 1124TIP3   OH224786   5.686   2.498  12.947  0.2671  0.3229 -0.2823
 1124TIP3    H124787   5.663   2.589  12.933 -0.7863  0.2408  0.7741
 1124TIP3    H224788   5.607   2.458  12.984  1.5679 -0.3435  1.9905
 1125TIP3   OH224789   3.033   1.200   5.469 -0.1966 -0.1391  0.0053
 1125TIP3    H124790   2.963   1.138   5.488 -1.1009  0.4740 -1.1655
 1125TIP3    H224791   3.070   1.222   5.554  0.3713 -2.4984  0.4155
 1126TIP3   OH224792   4.411   2.650  11.596 -0.2897  0.2790  0.6728
 1126TIP3    H124793   4.334   2.701  11.573 -0.5259 -0.2069  0.3568
 1126TIP3    H224794   4.378   2.582  11.655 -0.4131 -0.8855 -0.6663
 1127TIP3   OH224795   4.171   5.502   4.798 -0.1162 -0.6009 -0.7004
 1127TIP3    H124796   4.078   5.524   4.800  0.4874  2.6044  2.1350
 1127TIP3    H224797   4.200   5.526   4.710 -1.2990  2.3938 -0.3945
 1128TIP3   OH224798   6.763   2.246  12.552  0.3951 -0.1689 -0.2320
 1128TIP3    H124799   6.852   2.265  12.523  0.1507 -0.7329 -1.4416
 1128TIP3    H224800   6.735   2.324  12.599  0.8718  0.7672 -1.4554
 1129TIP3   OH224801   2.788   1.847  15.373  0.1866  0.8619 -0.0057
 1129TIP3    H124802   2.745   1.843  15.458  0.6237  0.0524  0.1885
 1129TIP3    H224803   2.858   1.782  15.378  1.2991  1.9926 -0.3996
 1130TIP3   OH224804   1.211   0.051  16.470  0.1857 -0.0175  0.3716
 1130TIP3    H124805   1.224   0.065  16.376  3.0453 -2.3280  0.2745
 1130TIP3    H224806   1.179  -0.039  16.477  1.5974 -0.4629  1.6280
 1131TIP3   OH224807   2.684   0.642   1.022 -0.3008 -0.2721 -0.3660
 1131TIP3    H124808   2.682   0.549   1.046  0.4253  0.4457  3.1825
 1131TIP3    H224809   2.592   0.668   1.018 -0.5219 -0.6291  1.4374
 1132TIP3   OH224810   2.336   1.815   2.674 -0.8076 -0.1027 -0.0184
 1132TIP3    H124811   2.339   1.847   2.584 -1.1623 -0.2979 -0.1014
 1132TIP3    H224812   2.244   1.794   2.688 -0.8143  0.2648  0.5101
 1133TIP3   OH224813   0.002   1.569  14.334 -0.5834  0.5836  0.0503
 1133TIP3    H124814   0.019   1.653  14.291  0.8571  1.0442  1.4252
 1133TIP3    H224815   0.021   1.503  14.267  0.1952  1.3142 -0.4722
 1134TIP3   OH224816   3.591   0.648  10.833  0.3857 -0.1552  0.4102
 1134TIP3    H124817   3.556   0.733  10.860 -1.5151 -1.1535  1.2951
 1134TIP3    H224818   3.629   0.665  10.747 -1.0546  1.3621 -0.0047
 1135TIP3   OH224819   5.357   6.696   1.730  0.3219 -0.3422 -0.3591
 1135TIP3    H124820   5.432   6.741   1.690  0.7381  0.0847  0.8403
 1135TIP3    H224821   5.394   6.655   1.809 -0.8188  0.4029  0.5976
 1136TIP3   OH224822   2.849   1.468   4.733  0.0561  0.2368  0.0505
 1136TIP3    H124823   2.923   1.475   4.673 -0.7438  0.7008 -0.9137
 1136TIP3    H224824   2.873   1.399   4.794  0.6518 -0.6424 -1.1566
 1137TIP3   OH224825   2.865   5.954  17.294 -0.3902  0.3542 -0.3727
 1137TIP3    H124826   2.907   5.988  17.373 -1.5870  1.3940 -0.1341
 1137TIP3    H224827   2.913   5.874  17.273  2.0021  1.7052 -0.4254
 1138TIP3   OH224828   6.447   5.422  15.715 -0.0536  0.1551  0.0955
 1138TIP3    H124829   6.523   5.367  15.696 -0.7580 -0.7648 -0.0826
 1138TIP3    H224830   6.466   5.460  15.801 -0.7363 -2.4872  1.5008
 1139TIP3   OH224831   0.277   5.431  16.510 -0.1349  0.2318 -0.0696
 1139TIP3    H124832   0.333   5.449  16.435  1.5492 -1.5733  0.6632
 1139TIP3    H224833   0.327   5.463  16.585  0.1900 -1.7909  0.6425
 1140TIP3   OH224834   2.713   3.077  13.330 -0.2581 -0.4887 -0.0188
 1140TIP3    H124835   2.654   3.064  13.255  1.3869 -0.5330 -1.3777
 1140TIP3    H224836   2.800   3.080  13.291  0.6252 -0.0563  1.8828
 1141TIP3   OH224837   1.859   1.830  13.640 -0.3708 -0.2792 -0.3536
 1141TIP3    H124838   1.809   1.799  13.565 -3.3706 -0.0390  1.4217
 1141TIP3    H224839   1.832   1.921  13.651  0.8136  0.0035  0.4255
 1142TIP3   OH224840   4.657   5.651   0.953 -0.1368 -0.6917  0.1903
 1142TIP3    H124841   4.591   5.714   0.982 -0.5562 -0.9047 -0.2800
 1142TIP3    H224842   4.663   5.664   0.858  0.4594 -0.7153  0.2192
 1143TIP3   OH224843   6.438   4.665  13.517  0.2821  0.2687  0.1623
 1143TIP3    H124844   6.478   4.748  13.544  0.5694  0.7236 -1.5341
 1143TIP3    H224845   6.484   4.598  13.568  1.8339  0.9481 -0.2968
 1144TIP3   OH224846   4.464   2.964  14.532 -0.2026 -0.2490  0.8029
 1144TIP3    H124847   4.374   2.955  14.501  0.1522  0.5620 -0.5145
 1144TIP3    H224848   4.513   2.897  14.484  0.2413  0.6275 -0.0035
 1145TIP3   OH224849   1.833   0.327  10.535 -0.9600  0.2726 -0.0622
 1145TIP3    H124850   1.910   0.309  10.480 -1.6218  1.7643 -1.5601
 1145TIP3    H224851   1.810   0.418  10.515 -1.9755  0.4910  1.8236
 1146TIP3   OH224852   0.747   2.781   1.596 -0.5189 -0.2830  0.0548
 1146TIP3    H124853   0.841   2.788   1.578 -0.5973  2.5906  0.3694
 1146TIP3    H224854   0.705   2.794   1.511 -0.6475  1.6034  0.3697
 1147TIP3   OH224855   1.376   6.007   0.499  0.4245 -0.0616  0.0161
 1147TIP3    H124856   1.425   5.926   0.507 -1.0054 -0.8147  1.8977
 1147TIP3    H224857   1.288   5.980   0.471  0.3903  1.0215 -1.0104
 1148TIP3   OH224858   4.687   2.234  11.649  0.4170  0.1068 -0.4768
 1148TIP3    H124859   4.737   2.282  11.715  0.7708 -0.8062 -0.0513
 1148TIP3    H224860   4.681   2.293  11.574  0.6339  0.8857  0.1143
 1149TIP3   OH224861   4.396   6.412   3.768  0.1964 -0.0532 -0.0235
 1149TIP3    H124862   4.376   6.463   3.689 -0.3495  0.7152  0.5962
 1149TIP3    H224863   4.314   6.411   3.817  0.6741 -0.0635  0.7841
 1150TIP3   OH224864   5.639   0.980   1.319 -0.4464 -0.2674 -0.4238
 1150TIP3    H124865   5.658   1.046   1.385  0.8662 -0.2329 -0.8147
 1150TIP3    H224866   5.550   1.000   1.290  0.2997  2.0514 -1.3447
 1151TIP3   OH224867   0.643   3.064  12.969 -0.4757  0.2417 -0.1738
 1151TIP3    H124868   0.600   3.007  13.032 -0.5714  0.5957  0.0836
 1151TIP3    H224869   0.705   3.007  12.923  1.6277  0.4810  2.1212
 1152TIP3   OH224870   0.897   5.016  14.895 -0.4193  0.0389  0.0073
 1152TIP3    H124871   0.807   5.041  14.919 -0.1450  0.0865  1.0412
 1152TIP3    H224872   0.914   4.937  14.946 -0.0118 -0.2201 -0.5168
 1153TIP3   OH224873   3.981   2.640   3.242 -0.2439  0.0174  0.1566
 1153TIP3    H124874   4.062   2.676   3.206 -1.8542  2.0614 -1.6895
 1153TIP3    H224875   3.950   2.706   3.304 -2.1998  1.0270 -1.7546
 1154TIP3   OH224876   4.894   4.319   5.476 -0.3516 -0.5649 -0.4444
 1154TIP3    H124877   4.981   4.359   5.476 -0.9241  0.9422  2.6101
 1154TIP3    H224878   4.834   4.393   5.463 -1.2829 -1.0072  1.0992
 1155TIP3   OH224879   5.738   1.832  13.260 -0.8095  0.6341 -0.0936
 1155TIP3    H124880   5.800   1.782  13.207 -0.8894  1.5524 -1.0863
 1155TIP3    H224881   5.656   1.828  13.211 -0.7379  1.9856 -0.3483
 1156TIP3   OH224882   0.985   1.659  15.377 -0.0275  0.7467 -0.0511
 1156TIP3    H124883   0.972   1.630  15.467  1.4435 -1.5252 -0.4878
 1156TIP3    H224884   0.975   1.754  15.381  1.7771  0.9423  2.8920
 1157TIP3   OH224885   2.152   2.179  16.111 -0.3193 -0.1999  0.3425
 1157TIP3    H124886   2.114   2.095  16.136 -1.6390 -0.0681 -1.0489
 1157TIP3    H224887   2.085   2.243  16.133 -0.0869  0.2783 -0.2884
 1158TIP3   OH224888   0.418   3.530  11.532 -0.4974  0.3515 -0.3671
 1158TIP3    H124889   0.342   3.533  11.590  0.4766 -0.1903  0.9917
 1158TIP3    H224890   0.411   3.445  11.487 -0.6377  0.2548 -0.1636
 1159TIP3   OH224891   2.491   0.176   2.030  0.0242  0.1239  0.1055
 1159TIP3    H124892   2.427   0.109   2.056 -0.2444  0.5193  0.4987
 1159TIP3    H224893   2.523   0.211   2.113  0.8256 -0.1261 -0.0880
 1160TIP3   OH224894   1.083   2.061   0.773 -0.1605 -0.2376 -0.4346
 1160TIP3    H124895   1.037   2.144   0.775 -1.4736 -0.8875 -1.7052
 1160TIP3    H224896   1.017   1.997   0.747  1.3031 -1.2983 -1.8043
 1161TIP3   OH224897   3.068   3.487  15.466 -0.1768 -0.5085  0.0155
 1161TIP3    H124898   3.023   3.569  15.447 -0.7833 -0.7373  0.4423
 1161TIP3    H224899   3.100   3.496  15.556 -1.6666 -1.3506  0.6680
 1162TIP3   OH224900   4.253   4.164  15.704  0.5786  0.6414  0.4346
 1162TIP3    H124901   4.335   4.205  15.679  1.6811 -1.2682  0.7035
 1162TIP3    H224902   4.238   4.194  15.794  0.5736  1.5890  0.1254
 1163TIP3   OH224903   5.497   6.099  11.539  0.1369  0.3893  0.3310
 1163TIP3    H124904   5.453   6.109  11.623 -0.2448  0.0615  0.1752
 1163TIP3    H224905   5.426   6.098  11.475  0.4308  0.6861  0.0010
 1164TIP3   OH224906   1.309   5.427  10.938  0.0694 -0.0070 -0.0410
 1164TIP3    H124907   1.345   5.474  10.863  1.6250 -1.2710 -0.1427
 1164TIP3    H224908   1.245   5.366  10.900  1.5117 -1.2935 -0.5077
 1165TIP3   OH224909   3.093   2.372  13.270  0.2575 -0.0262 -0.1823
 1165TIP3    H124910   3.079   2.380  13.364  0.5385 -1.3337 -0.0097
 1165TIP3    H224911   3.069   2.458  13.234  0.8248  0.7112  1.1515
 1166TIP3   OH224912   5.681   2.348   2.404  0.2619  0.3424 -0.0453
 1166TIP3    H124913   5.744   2.418   2.420  0.8817 -0.2579  0.2240
 1166TIP3    H224914   5.642   2.330   2.490  2.0016 -1.3900  0.4569
 1167TIP3   OH224915   4.625   4.678  14.622 -0.0468 -0.7861 -0.1408
 1167TIP3    H124916   4.660   4.766  14.642  0.8426 -0.7230 -1.8427
 1167TIP3    H224917   4.676   4.620  14.679 -0.5191 -0.2397  0.8772
 1168TIP3   OH224918   4.630   3.280  11.809 -0.3724 -0.5571  0.2347
 1168TIP3    H124919   4.538   3.298  11.827 -0.2369 -1.6961  2.3459
 1168TIP3    H224920   4.678   3.332  11.874  0.5939  0.9072 -1.5301
 1169TIP3   OH224921   0.306   1.391   4.701 -0.0879 -0.2979 -0.2632
 1169TIP3    H124922   0.299   1.395   4.796 -1.2486 -1.1452 -0.2788
 1169TIP3    H224923   0.287   1.480   4.671 -2.1951 -0.5161  0.2242
 1170TIP3   OH224924   2.018   3.799  16.964  0.4303 -0.4557  0.1139
 1170TIP3    H124925   2.009   3.893  16.954 -0.2314 -0.5476 -0.1484
 1170TIP3    H224926   2.063   3.788  17.049  0.0828  0.0722  0.3701
 1171TIP3   OH224927   4.393   4.345   3.799 -0.0280  0.0434 -0.2976
 1171TIP3    H124928   4.380   4.440   3.805 -0.4641  0.0338 -1.0682
 1171TIP3    H224929   4.487   4.335   3.783 -0.0711  0.3705 -0.7770
 1172TIP3   OH224930   1.673   4.051  12.002  0.3141  0.6496 -0.1334
 1172TIP3    H124931   1.663   4.146  12.006  0.5871  0.6472  0.7632
 1172TIP3    H224932   1.590   4.016  12.036 -0.1316  0.5486 -1.2821
 1173TIP3   OH224933   2.911   1.838  17.019 -0.5312 -0.1216 -0.0062
 1173TIP3    H124934   2.924   1.764  17.078 -3.2718 -0.7795 -0.0613
 1173TIP3    H224935   2.871   1.905  17.074  1.3674  1.1506 -0.0978
 1174TIP3   OH224936   3.937   1.652  15.504 -0.4803 -0.0801 -0.0768
 1174TIP3    H124937   3.901   1.734  15.470 -0.2906 -0.4915 -1.3175
 1174TIP3    H224938   4.029   1.653  15.477 -0.3272 -0.4237  0.4243
 1175TIP3   OH224939   3.042   5.753   4.785  0.7782 -0.5535  0.2401
 1175TIP3    H124940   2.969   5.796   4.832  0.5603  1.1823 -1.5598
 1175TIP3    H224941   3.000   5.707   4.713  1.3426 -0.9508  0.1602
 1176TIP3   OH224942   2.357   4.554   2.464  0.1842  0.3740  0.3385
 1176TIP3    H124943   2.266   4.581   2.476 -0.6840 -0.1606 -3.5557
 1176TIP3    H224944   2.351   4.464   2.433  1.8891  0.7489 -1.2241
 1177TIP3   OH224945   0.920   6.023  12.666 -0.0652  0.1809 -0.1696
 1177TIP3    H124946   0.906   5.986  12.753 -0.4365  1.8529  0.5187
 1177TIP3    H224947   0.881   5.959  12.607  2.4675 -2.2930  0.6007
 1178TIP3   OH224948   6.686   5.505  14.838 -0.8319  0.0743 -0.5809
 1178TIP3    H124949   6.726   5.469  14.918 -1.6524 -1.0812 -0.6526
 1178TIP3    H224950   6.758   5.512  14.776 -0.3195  0.2475  0.0263
 1179TIP3   OH224951   3.337   5.722   2.869 -0.0033  0.6954  0.1600
 1179TIP3    H124952   3.432   5.725   2.862 -0.0866  1.5384 -0.8483
 1179TIP3    H224953   3.315   5.791   2.932 -0.0845  2.4845 -1.7034
 1180TIP3   OH224954   4.894   3.219  15.549  0.5076  0.0450  0.1942
 1180TIP3    H124955   4.930   3.130  15.547  0.1125 -0.1439  0.9057
 1180TIP3    H224956   4.812   3.210  15.599  1.0190  0.9979  1.2375
 1181TIP3   OH224957   5.604   2.310  17.209 -0.5829  0.0374 -0.1618
 1181TIP3    H124958   5.549   2.307  17.287 -1.9523  1.2318 -1.0250
 1181TIP3    H224959   5.687   2.347  17.240 -0.8228 -0.2586  0.8686
 1182TIP3   OH224960   1.570   5.096  14.501 -0.0157  0.0765 -0.5569
 1182TIP3    H124961   1.633   5.063  14.437 -1.4168 -0.2743 -1.8160
 1182TIP3    H224962   1.542   5.019  14.550 -0.4889 -0.0146 -0.9568
 1183TIP3   OH224963   0.698   2.976   1.364  0.1981 -0.3927  0.2796
 1183TIP3    H124964   0.705   2.901   1.306 -0.2586  0.1088 -0.4352
 1183TIP3    H224965   0.604   2.989   1.377  0.2537  0.4077 -0.0745
 1184TIP3   OH224966   5.734   2.110   5.755 -0.7567  0.0645 -0.4745
 1184TIP3    H124967   5.819   2.137   5.788 -1.1700  0.7862  0.0394
 1184TIP3    H224968   5.744   2.018   5.732  0.5230  0.4604 -1.6315
 1185TIP3   OH224969   1.404   0.886  16.862 -0.1210  0.3211 -0.2324
 1185TIP3    H124970   1.356   0.823  16.808  0.2921 -0.0891 -0.1337
 1185TIP3    H224971   1.460   0.831  16.918  0.4055  0.7851 -0.2916
 1186TIP3   OH224972   5.060   2.618  16.131  0.2105 -0.3508 -0.1152
 1186TIP3    H124973   4.981   2.571  16.155  0.1582 -0.1940  0.0177
 1186TIP3    H224974   5.034   2.671  16.056  0.1232 -0.1032  0.0900
 1187TIP3   OH224975   1.663   0.367  13.509  0.0286 -0.5552 -0.0962
 1187TIP3    H124976   1.707   0.374  13.594 -1.5172 -0.9293  0.7666
 1187TIP3    H224977   1.734   0.367  13.445  1.2751 -1.1422  1.2406
 1188TIP3   OH224978   0.035   4.142  15.384 -0.3261  0.0647  0.1776
 1188TIP3    H124979   0.042   4.208  15.315  0.7900  0.4228  0.6088
 1188TIP3    H224980   0.018   4.061  15.337  1.4179  0.1165 -0.6344
 1189TIP3   OH224981   6.129   4.333   6.421  0.2195 -0.1043  0.3836
 1189TIP3    H124982   6.193   4.298   6.483  0.3321 -0.3606  0.1252
 1189TIP3    H224983   6.047   4.336   6.471 -0.2609 -2.5621 -0.1027
 1190TIP3   OH224984   6.667   4.640   1.164 -0.1909  0.0852  0.0617
 1190TIP3    H124985   6.588   4.608   1.120  0.3107 -0.9276 -0.1393
 1190TIP3    H224986   6.643   4.644   1.257 -0.5060 -0.1261 -0.0086
 1191TIP3   OH224987   5.642   1.972   3.613  0.8247  0.0621  0.2965
 1191TIP3    H124988   5.607   2.032   3.547  2.8385  0.8805 -0.1080
 1191TIP3    H224989   5.671   1.896   3.563  2.5185  0.7585  0.1429
 1192TIP3   OH224990   6.167   5.444  16.275  0.4049  0.1357  0.5668
 1192TIP3    H124991   6.194   5.480  16.359 -2.6721  3.4387  0.3553
 1192TIP3    H224992   6.227   5.484  16.212 -0.7509  2.2617  0.7243
 1193TIP3   OH224993   6.753   4.608   2.086  0.4402 -0.1452  0.0797
 1193TIP3    H124994   6.819   4.551   2.126  1.0237 -0.3577 -1.1585
 1193TIP3    H224995   6.673   4.555   2.086  1.2337 -1.4646 -2.0968
 1194TIP3   OH224996   6.338   3.228  15.952 -0.1346 -0.0778 -0.2257
 1194TIP3    H124997   6.276   3.232  16.025 -0.7344  0.1763 -0.7383
 1194TIP3    H224998   6.309   3.297  15.892  0.4915 -0.1285 -0.5952
 1195TIP3   OH224999   3.881   0.210  12.597  0.7494  0.0217 -0.2684
 1195TIP3    H125000   3.908   0.229  12.687  0.0310  0.3044 -0.1103
 1195TIP3    H225001   3.786   0.202  12.602  0.7231 -0.1138 -0.9773
 1196TIP3   OH225002   4.065   5.432  12.862  0.0194 -0.3486 -0.5210
 1196TIP3    H125003   4.123   5.400  12.794 -0.1464 -1.1210 -0.3044
 1196TIP3    H225004   3.997   5.481  12.815  0.6204  0.2227 -0.8030
 1197TIP3   OH225005   3.143   5.050   5.918 -0.1786 -0.5484  0.0075
 1197TIP3    H125006   3.208   4.981   5.931  0.7755  0.5791  1.6113
 1197TIP3    H225007   3.195   5.131   5.913 -1.3594  0.2182 -0.3458
 1198TIP3   OH225008   3.062   3.597   2.019 -0.0713  0.9359 -0.2361
 1198TIP3    H125009   3.078   3.632   1.931  1.0649  0.5770 -0.1861
 1198TIP3    H225010   3.041   3.674   2.072  2.8818  1.7111 -0.0065
 1199TIP3   OH225011   4.871   6.483  15.975  0.0643 -0.0315 -0.1009
 1199TIP3    H125012   4.816   6.521  16.044 -0.9969  0.1538 -1.0180
 1199TIP3    H225013   4.942   6.546  15.963  0.6564 -0.3933  1.2775
 1200TIP3   OH225014   1.189   5.132  13.816 -0.0564  0.5580  0.1051
 1200TIP3    H125015   1.165   5.125  13.724  0.7243  1.5163 -0.1876
 1200TIP3    H225016   1.133   5.202  13.850 -2.5541 -1.7772  1.1735
 1201TIP3   OH225017   3.345   1.561   2.512 -0.1637 -0.1248 -0.2034
 1201TIP3    H125018   3.421   1.543   2.457 -0.3638 -0.2261 -0.4438
 1201TIP3    H225019   3.345   1.656   2.523  0.3246 -0.1738  0.2640
 1202TIP3   OH225020   2.699   5.094  12.301 -0.0577  0.0428 -0.0893
 1202TIP3    H125021   2.706   5.078  12.395  1.5933 -0.8918 -0.3344
 1202TIP3    H225022   2.751   5.174  12.287  0.2399 -0.1837 -0.2866
 1203TIP3   OH225023   3.158   3.260  13.484  0.2106  0.8727  0.0671
 1203TIP3    H125024   3.086   3.236  13.542 -0.2191  0.5365 -0.5829
 1203TIP3    H225025   3.118   3.263  13.397  1.1386 -0.0888 -0.4131
 1204TIP3   OH225026   1.633   6.139   6.346  0.2432 -0.2121 -0.2175
 1204TIP3    H125027   1.582   6.125   6.426 -1.4648 -3.1255 -1.6461
 1204TIP3    H225028   1.572   6.119   6.275  2.2071  0.4361 -2.1895
 1205TIP3   OH225029   3.428   4.511  12.319 -0.3236  0.2153 -0.2293
 1205TIP3    H125030   3.465   4.502  12.406 -1.9275  1.1727  0.5914
 1205TIP3    H225031   3.465   4.593  12.285  0.7939 -0.4686 -0.7545
 1206TIP3   OH225032   4.388   1.092  14.436 -0.1321 -0.5297 -0.4368
 1206TIP3    H125033   4.373   1.169  14.491  1.0202  0.1293 -1.0076
 1206TIP3    H225034   4.481   1.072  14.448 -0.1492 -1.1065 -1.2262
 1207TIP3   OH225035   0.445   6.564   3.618 -0.3332  0.0862 -0.0619
 1207TIP3    H125036   0.459   6.507   3.693  1.5324  0.0431 -0.3815
 1207TIP3    H225037   0.444   6.505   3.542 -1.1052  0.2319 -0.1721
 1208TIP3   OH225038   0.677   1.849  13.256 -0.0716  0.6014  0.3721
 1208TIP3    H125039   0.606   1.799  13.216  1.0366  0.9718 -2.2717
 1208TIP3    H225040   0.743   1.783  13.277 -0.4787  0.4567  1.2352
 1209TIP3   OH225041   5.940   5.602   6.032  0.1155  0.7039 -0.2167
 1209TIP3    H125042   5.906   5.606   6.122 -0.4919 -2.3472 -0.1718
 1209TIP3    H225043   5.863   5.582   5.979  0.7669  0.6283 -1.1426
 1210TIP3   OH225044   0.078   4.105  16.591 -0.0399  0.7101 -0.5809
 1210TIP3    H125045   0.120   4.078  16.510 -1.8031  0.9973 -1.6270
 1210TIP3    H225046   0.150   4.135  16.647  1.5357 -2.1614 -0.9048
 1211TIP3   OH225047   2.073   5.941   1.716 -0.1536  0.1892  0.0204
 1211TIP3    H125048   2.004   5.904   1.772  0.0136  1.4255  1.0823
 1211TIP3    H225049   2.107   5.865   1.669 -0.5494 -0.8528  1.3272
 1212TIP3   OH225050   2.867   3.267   0.858 -0.8768 -0.4491  0.7202
 1212TIP3    H125051   2.881   3.208   0.932 -1.3174  0.7355  1.7923
 1212TIP3    H225052   2.789   3.317   0.883 -1.2360 -0.2591 -0.7173
 1213TIP3   OH225053   5.382   3.486  13.012  0.3752  0.1045 -0.2136
 1213TIP3    H125054   5.315   3.516  12.951 -1.9467  1.4369  2.7497
 1213TIP3    H225055   5.404   3.398  12.982 -1.6816  0.1462 -2.0999
 1214TIP3   OH225056   5.220   2.664   5.883  0.0519 -0.2336 -0.0935
 1214TIP3    H125057   5.263   2.579   5.890 -1.0640 -0.7846  0.3408
 1214TIP3    H225058   5.170   2.658   5.802  0.3784  0.2136 -0.3334
 1215TIP3   OH225059   4.755   3.558   1.718  0.6141 -0.5036 -0.1705
 1215TIP3    H125060   4.838   3.599   1.692 -0.3496  2.6297  1.2542
 1215TIP3    H225061   4.694   3.584   1.649  0.3966 -1.4142 -0.3397
 1216TIP3   OH225062   2.097   3.225   1.636 -0.2557 -0.1277 -0.1988
 1216TIP3    H125063   2.163   3.224   1.567 -1.3176 -1.8230 -1.2634
 1216TIP3    H225064   2.146   3.233   1.717  1.2674 -1.4263 -0.9429
 1217TIP3   OH225065   4.152   4.481  17.258  0.7674 -0.7145  0.0267
 1217TIP3    H125066   4.204   4.412  17.216 -1.0316 -1.8959 -0.3364
 1217TIP3    H225067   4.094   4.514  17.189 -0.3952 -0.8535  0.9150
 1218TIP3   OH225068   5.143   6.459  11.629  0.5329  0.1451  0.0733
 1218TIP3    H125069   5.106   6.413  11.704 -1.8842 -0.9902 -1.6637
 1218TIP3    H225070   5.123   6.551  11.645 -2.9339 -0.3569 -0.5247
 1219TIP3   OH225071   0.697   2.786  15.667 -0.1500  0.3342  0.8196
 1219TIP3    H125072   0.739   2.786  15.753 -2.1254 -1.1559  1.8653
 1219TIP3    H225073   0.639   2.862  15.669 -0.0448  0.4161  0.7354
 1220TIP3   OH225074   5.291   5.836   4.457 -0.1979 -0.0060  0.0981
 1220TIP3    H125075   5.275   5.779   4.532 -1.1300  2.3318  1.7729
 1220TIP3    H225076   5.362   5.894   4.484 -0.0207  0.4001 -1.1432
 1221TIP3   OH225077   6.481   4.293   1.828  0.3347  0.1943 -0.4799
 1221TIP3    H125078   6.492   4.380   1.788 -1.7834  0.3909 -0.7441
 1221TIP3    H225079   6.431   4.243   1.763  2.7655 -1.7807 -0.9856
 1222TIP3   OH225080   0.608   1.758   0.974 -0.7684  0.7275 -0.0441
 1222TIP3    H125081   0.627   1.768   1.068 -0.9239  0.8087 -0.0215
 1222TIP3    H225082   0.610   1.848   0.940  1.2283  0.5631 -0.4918
 1223TIP3   OH225083   5.366   0.187  12.144  0.2810 -0.2157  0.0715
 1223TIP3    H125084   5.388   0.191  12.051  0.1124 -1.3489 -0.0361
 1223TIP3    H225085   5.367   0.278  12.173  0.4986  0.1393 -1.0003
 1224TIP3   OH225086   3.016   4.491  11.423  0.1838  0.0083  0.8355
 1224TIP3    H125087   2.946   4.511  11.361 -0.3038 -2.5612  0.4397
 1224TIP3    H225088   3.095   4.525  11.382 -0.2914 -0.5998 -0.6477
 1225TIP3   OH225089   5.838   4.384   1.482  0.4895  0.5349  0.1126
 1225TIP3    H125090   5.765   4.403   1.541  0.4138  0.2807  0.1059
 1225TIP3    H225091   5.880   4.468   1.467  0.1050  0.7072 -0.0011
 1226TIP3   OH225092   0.806   2.910  12.814 -0.0370  0.1948 -0.0374
 1226TIP3    H125093   0.795   2.869  12.728  1.2652 -0.3900  0.0495
 1226TIP3    H225094   0.901   2.918  12.824 -0.0343 -1.6781  2.2254
 1227TIP3   OH225095   4.711   4.210  11.685 -0.0954  0.1228 -0.5017
 1227TIP3    H125096   4.760   4.150  11.628  3.1983  1.1996  0.9425
 1227TIP3    H225097   4.713   4.294  11.639  2.5070  0.9761  0.9264
 1228TIP3   OH225098   6.314   5.270   4.912 -0.4398 -0.0557 -0.3356
 1228TIP3    H125099   6.400   5.312   4.913 -0.9339  0.9914 -0.5092
 1228TIP3    H225100   6.310   5.227   4.826  0.1072 -0.5521 -0.1207
 1229TIP3   OH225101   1.702   1.222  17.167  0.0360 -0.0255  0.0243
 1229TIP3    H125102   1.644   1.276  17.112  1.3312  1.9270  0.4856
 1229TIP3    H225103   1.642   1.164  17.215 -1.3195  0.1290 -1.3992
 1230TIP3   OH225104   0.505   0.254   5.673 -0.0769 -0.2974  0.0281
 1230TIP3    H125105   0.499   0.268   5.579 -1.2799  0.5047  0.2149
 1230TIP3    H225106   0.577   0.311   5.701 -0.5777  0.4561 -0.2097
 1231TIP3   OH225107   3.061   1.952  11.620 -0.2651 -0.5062  0.1208
 1231TIP3    H125108   3.142   1.903  11.633 -0.7410 -1.2493  0.4089
 1231TIP3    H225109   3.088   2.037  11.587  0.5850 -1.0093 -0.5025
 1232TIP3   OH225110   3.504   4.939   6.134  0.4968 -0.6183  0.2285
 1232TIP3    H125111   3.459   4.918   6.216 -0.3156 -1.2787 -0.3812
 1232TIP3    H225112   3.482   5.031   6.118  1.3007 -0.2437  1.1419
 1233TIP3   OH225113   3.238   2.609  12.810 -0.6545  0.4506  0.0955
 1233TIP3    H125114   3.256   2.517  12.828  0.0242  0.5809  0.1120
 1233TIP3    H225115   3.162   2.608  12.751 -0.3741 -0.1285 -0.2597
 1234TIP3   OH225116   1.824   3.350  12.824 -0.3525  0.3239 -0.5725
 1234TIP3    H125117   1.884   3.387  12.889 -0.9914 -0.2728  0.3766
 1234TIP3    H225118   1.851   3.390  12.741  1.2440  0.2075 -0.1454
 1235TIP3   OH225119   4.179   1.799  15.859  0.0497 -0.6892  0.1556
 1235TIP3    H125120   4.145   1.813  15.947 -1.0654 -1.5941 -0.1158
 1235TIP3    H225121   4.272   1.821  15.866 -0.4511  1.4955  1.0035
 1236TIP3   OH225122   5.923   0.102  14.525 -0.7312 -0.7567 -0.1712
 1236TIP3    H125123   5.830   0.125  14.524 -0.3662  0.8294 -0.9275
 1236TIP3    H225124   5.939   0.073  14.615 -1.4097  1.5611  0.7874
 1237TIP3   OH225125   4.432   5.480  12.959 -0.6881 -0.4246  0.2165
 1237TIP3    H125126   4.528   5.475  12.954 -0.6195  1.5531 -2.6991
 1237TIP3    H225127   4.402   5.394  12.932  0.2431 -0.7783  0.2702
 1238TIP3   OH225128   2.835   0.820   3.672 -0.3169 -0.1948 -0.8170
 1238TIP3    H125129   2.920   0.854   3.700 -0.9924  1.1166 -0.2759
 1238TIP3    H225130   2.787   0.804   3.753 -0.6805 -0.7014 -1.1206
 1239TIP3   OH225131   1.767   6.264  11.705 -0.1911 -0.4105 -0.2116
 1239TIP3    H125132   1.784   6.174  11.675 -1.4091 -0.3538 -1.1629
 1239TIP3    H225133   1.696   6.255  11.768 -2.1755  0.0832 -2.2564
 1240TIP3   OH225134   5.987   6.312  16.753 -0.0780  0.2260  0.2534
 1240TIP3    H125135   6.078   6.286  16.738 -1.0020 -3.1007 -0.3956
 1240TIP3    H225136   5.970   6.378  16.685  1.9727  1.4603  0.8379
 1241TIP3   OH225137   0.215   5.259  15.430 -0.3192 -0.2418  0.7837
 1241TIP3    H125138   0.301   5.288  15.462 -0.5495 -0.9764  2.1177
 1241TIP3    H225139   0.153   5.321  15.468 -0.3374  1.0798 -1.2047
 1242TIP3   OH225140   5.981   5.663  11.784  0.5083  0.1599 -0.5962
 1242TIP3    H125141   5.899   5.654  11.832 -0.6113  0.2877 -2.3850
 1242TIP3    H225142   5.988   5.757  11.765  2.1040  0.4532  1.2068
 1243TIP3   OH225143   4.448   6.566  15.365  0.4688 -0.2645  0.1605
 1243TIP3    H125144   4.430   6.474  15.344  0.0961  0.2851 -2.1169
 1243TIP3    H225145   4.458   6.567  15.461  0.1905 -2.6084  0.2643
 1244TIP3   OH225146   1.318   3.713  11.482  0.1562  0.4901  0.6277
 1244TIP3    H125147   1.265   3.792  11.497 -0.9672 -0.3263  1.1601
 1244TIP3    H225148   1.276   3.671  11.407  1.0028  0.5981  0.0882
 1245TIP3   OH225149   1.471   6.177  12.114  0.1330  0.5510  0.7041
 1245TIP3    H125150   1.416   6.255  12.107  0.0653  0.5719  1.3710
 1245TIP3    H225151   1.414   6.110  12.151  0.3661  0.3695  0.7398
 1246TIP3   OH225152   0.202   3.414   3.858 -0.2328  0.5409  0.1178
 1246TIP3    H125153   0.283   3.365   3.868 -0.1542  0.3967 -1.0091
 1246TIP3    H225154   0.132   3.352   3.879 -0.0739  0.3975  0.2146
 1247TIP3   OH225155   4.983   3.496   6.671 -0.4741  0.3387 -0.2448
 1247TIP3    H125156   5.067   3.459   6.699 -0.9448 -0.5204  0.0904
 1247TIP3    H225157   5.001   3.533   6.585  0.2326  0.0928 -0.2179
 1248TIP3   OH225158   1.195   6.132  11.290  0.0088  0.0099 -0.4026
 1248TIP3    H125159   1.274   6.172  11.253  0.1787 -0.0382 -0.0891
 1248TIP3    H225160   1.125   6.194  11.267 -0.1424 -0.7333 -2.1020
 1249TIP3   OH225161   5.382   0.123  11.631  0.3035  0.5586  0.1410
 1249TIP3    H125162   5.463   0.132  11.581 -0.5623  0.2862 -1.3837
 1249TIP3    H225163   5.314   0.116  11.564 -0.7632 -1.2828  1.3377
 1250TIP3   OH225164   4.447   0.049   0.880 -0.7673  0.4588  0.0857
 1250TIP3    H125165   4.406  -0.029   0.844  0.1877  0.9722 -2.2973
 1250TIP3    H225166   4.423   0.119   0.819  1.7904  1.1922 -0.2030
 1251TIP3   OH225167   1.756   5.060   5.070  0.4966  0.5847 -0.0213
 1251TIP3    H125168   1.699   5.109   5.010  0.6128  1.6242  0.6949
 1251TIP3    H225169   1.706   4.981   5.090  0.5896  0.0389 -1.7384
 1252TIP3   OH225170   6.341   6.483  10.753 -0.4171 -0.2428 -0.1135
 1252TIP3    H125171   6.323   6.393  10.780 -1.1245 -0.1943 -0.3852
 1252TIP3    H225172   6.367   6.528  10.834  1.0116 -0.9403 -0.1729
 1253TIP3   OH225173   2.719   1.425  12.251 -0.2499  0.1686  0.3430
 1253TIP3    H125174   2.793   1.407  12.192  0.2053  2.5365  0.0979
 1253TIP3    H225175   2.644   1.384  12.208  0.5578 -0.5883 -0.4077
 1254TIP3   OH225176   2.091   0.441  15.669 -0.3115 -0.1688 -0.3250
 1254TIP3    H125177   2.068   0.390  15.591  0.0445 -2.7346  1.1402
 1254TIP3    H225178   2.179   0.473  15.651 -1.4999  2.3365 -2.3584
 1255TIP3   OH225179   1.736   5.308   3.747  0.0877 -0.0021 -0.2442
 1255TIP3    H125180   1.813   5.341   3.794 -0.2457 -1.7890  1.6820
 1255TIP3    H225181   1.677   5.383   3.744  0.2235  0.2691  2.0570
 1256TIP3   OH225182   3.648   3.349  13.693 -0.2931 -0.5469  0.0974
 1256TIP3    H125183   3.714   3.280  13.698  0.8119  0.4269 -0.5622
 1256TIP3    H225184   3.671   3.410  13.764 -1.8769 -1.3351  1.3511
 1257TIP3   OH225185   2.570   6.218   3.497 -0.5322 -0.8497  0.6726
 1257TIP3    H125186   2.501   6.250   3.440 -0.6550  0.0254  1.2848
 1257TIP3    H225187   2.619   6.155   3.444 -1.4421 -1.0436  0.0527
 1258TIP3   OH225188   0.525   6.609   2.855  0.4697  0.3675  0.4575
 1258TIP3    H125189   0.579   6.677   2.895 -0.0074  0.5477  0.8046
 1258TIP3    H225190   0.565   6.594   2.769  1.8382 -0.4341  1.2080
 1259TIP3   OH225191   4.383   1.811  14.129  0.1706  0.0503  0.2749
 1259TIP3    H125192   4.345   1.765  14.204 -1.5153  2.5641  1.0635
 1259TIP3    H225193   4.476   1.819  14.151 -0.1239 -0.0932  1.6574
 1260TIP3   OH225194   1.155   3.896   3.890  0.2105  0.3552  0.3359
 1260TIP3    H125195   1.102   3.944   3.827 -1.9503 -1.0888  0.9246
 1260TIP3    H225196   1.246   3.914   3.864 -0.4955  3.4217 -0.3471
 1261TIP3   OH225197   4.303   4.866  15.575  0.3055  0.0904 -0.1429
 1261TIP3    H125198   4.377   4.811  15.601  0.8842  1.5549  1.4744
 1261TIP3    H225199   4.340   4.931  15.517  0.8753  2.2247  2.4116
 1262TIP3   OH225200   2.392   2.848  16.731  0.4827 -0.0648  0.5955
 1262TIP3    H125201   2.306   2.857  16.690  0.8876 -0.0330 -0.2614
 1262TIP3    H225202   2.395   2.757  16.761 -0.0313  0.0675  1.0624
 1263TIP3   OH225203   2.360   1.629  13.088 -0.3395  0.1686  0.5053
 1263TIP3    H125204   2.275   1.669  13.069  0.3874  1.4566 -0.2194
 1263TIP3    H225205   2.385   1.585  13.006 -1.0728 -1.7410  1.2568
 1264TIP3   OH225206   4.113   2.040   2.635  0.3286 -0.0125 -0.3286
 1264TIP3    H125207   4.022   2.065   2.619 -0.5593 -1.0898  2.4075
 1264TIP3    H225208   4.161   2.123   2.636 -0.6993  0.6239 -1.2362
 1265TIP3   OH225209   4.926   1.217  14.811  0.1984 -0.9388  0.1809
 1265TIP3    H125210   4.986   1.292  14.805  0.1426 -0.9832 -1.3951
 1265TIP3    H225211   4.839   1.255  14.799 -0.1247 -0.9087  2.2154
 1266TIP3   OH225212   1.585   4.966   3.135  0.5060  0.3876  0.8120
 1266TIP3    H125213   1.566   5.044   3.186 -0.7881  1.7291 -1.5330
 1266TIP3    H225214   1.618   5.000   3.051  0.1127 -1.5705 -0.2005
 1267TIP3   OH225215   0.568   3.768   4.018 -0.2803 -0.0189 -0.5817
 1267TIP3    H125216   0.631   3.801   4.083  1.8389  0.0166 -2.5330
 1267TIP3    H225217   0.496   3.830   4.022  1.0795  1.6227 -0.1978
 1268TIP3   OH225218   6.200   0.242  16.875  0.1281  0.0508 -0.5103
 1268TIP3    H125219   6.266   0.301  16.910  0.7718 -0.8446 -0.1802
 1268TIP3    H225220   6.142   0.299  16.823 -0.1938  1.2230  1.0574
 1269TIP3   OH225221   2.040   2.171  14.839  0.0046 -0.2472 -0.1363
 1269TIP3    H125222   2.063   2.106  14.905 -0.2745  0.5016  0.7218
 1269TIP3    H225223   1.948   2.192  14.857  0.1458  0.5204 -0.2753
 1270TIP3   OH225224   4.799   3.083  13.150 -0.4575 -0.2356 -0.2582
 1270TIP3    H125225   4.802   3.167  13.105  1.1841 -0.0632  0.1366
 1270TIP3    H225226   4.857   3.026  13.100  0.0563 -0.5308  0.6534
 1271TIP3   OH225227   2.135   5.958  13.664 -0.2177  0.4055 -0.2407
 1271TIP3    H125228   2.209   5.898  13.671 -1.1973 -0.8809 -0.6184
 1271TIP3    H225229   2.176   6.044  13.656  1.2210 -0.1187  0.8270
 1272TIP3   OH225230   1.352   3.196  12.800  0.6738  0.1776  0.2197
 1272TIP3    H125231   1.272   3.149  12.823  1.0041 -0.0026  1.0259
 1272TIP3    H225232   1.422   3.144  12.840  1.3880 -0.7470 -2.0562
 1273TIP3   OH225233   1.524   6.690  13.498 -0.0899  0.0127  0.6387
 1273TIP3    H125234   1.583   6.738  13.556  0.1228  1.2447 -0.5603
 1273TIP3    H225235   1.574   6.612  13.473  0.4621  0.3136  0.7878
 1274TIP3   OH225236   5.015   1.335  13.220 -0.2408  0.0697  0.1289
 1274TIP3    H125237   4.970   1.297  13.296  0.1012 -1.5203 -0.4169
 1274TIP3    H225238   5.014   1.429  13.235 -2.4253 -0.0223  0.8739
 1275TIP3   OH225239   0.352   4.237  10.483  0.2360  0.1041  0.3223
 1275TIP3    H125240   0.370   4.201  10.570 -1.0774  2.6187  1.7308
 1275TIP3    H225241   0.257   4.237  10.476  0.3196  0.0458 -1.1130
 1276TIP3   OH225242   3.864   0.741   2.828  0.2566  0.0480 -0.7398
 1276TIP3    H125243   3.949   0.758   2.868 -0.3830  0.6286  0.4347
 1276TIP3    H225244   3.801   0.785   2.886 -0.8454 -0.4227 -1.5437
 1277TIP3   OH225245   4.193   1.619   5.978  0.1312 -0.2014 -0.3727
 1277TIP3    H125246   4.129   1.681   5.942 -0.6054  0.6071  2.1140
 1277TIP3    H225247   4.262   1.616   5.912 -1.2541  0.8897 -1.9833
 1278TIP3   OH225248   5.664   4.174   3.847 -0.3825 -0.1072  0.3503
 1278TIP3    H125249   5.615   4.149   3.768 -0.1081 -1.1795  0.4950
 1278TIP3    H225250   5.616   4.132   3.919 -1.2036  1.6716  0.9055
 1279TIP3   OH225251   3.140   3.476   3.079 -0.6317  0.4771  0.5346
 1279TIP3    H125252   3.153   3.533   3.155 -0.7483  1.6001 -0.2571
 1279TIP3    H225253   3.047   3.487   3.056 -0.0236  2.2398 -1.3391
 1280TIP3   OH225254   1.387   1.594  11.503  0.6879  0.9612 -0.0703
 1280TIP3    H125255   1.376   1.506  11.539 -1.6761  1.1138 -0.2697
 1280TIP3    H225256   1.418   1.646  11.577 -0.3926  0.4617  0.7724
 1281TIP3   OH225257   5.665   0.533   4.917 -0.0225  0.4231  0.5065
 1281TIP3    H125258   5.698   0.535   5.006 -1.3434  2.5139  1.0160
 1281TIP3    H225259   5.574   0.563   4.924 -0.7984 -1.2571 -1.3155
 1282TIP3   OH225260   0.330   5.840  15.223 -0.0568  0.0498  0.2736
 1282TIP3    H125261   0.238   5.850  15.198 -0.0307  1.4825  0.6326
 1282TIP3    H225262   0.363   5.770  15.167 -0.5461  1.6428 -2.1574
 1283TIP3   OH225263   3.699   1.114   4.744  0.4354 -0.3569  0.0917
 1283TIP3    H125264   3.752   1.044   4.784  0.1098 -0.6080  0.0861
 1283TIP3    H225265   3.709   1.100   4.650  1.6965  0.6026  0.0513
 1284TIP3   OH225266   4.549   3.216   0.985  0.1218  0.7280 -0.6165
 1284TIP3    H125267   4.563   3.200   0.892  0.7872 -1.3079 -0.2238
 1284TIP3    H225268   4.516   3.132   1.019  0.5844  1.2048  1.1003
 1285TIP3   OH225269   5.504   3.130   4.649 -0.7932  0.3345 -0.1000
 1285TIP3    H125270   5.478   3.222   4.643  0.6195  0.6609 -2.7499
 1285TIP3    H225271   5.544   3.121   4.735 -1.4203  2.0616  0.4084
 1286TIP3   OH225272   2.067   2.623  11.618 -0.4710 -0.4589 -0.2450
 1286TIP3    H125273   2.113   2.699  11.583  1.0759 -1.6403 -0.8504
 1286TIP3    H225274   2.005   2.598  11.549 -2.1256  1.1240  0.5684
 1287TIP3   OH225275   0.810   4.381  17.233 -0.2097  0.1215 -0.6357
 1287TIP3    H125276   0.750   4.315  17.199 -1.2509  0.5413  0.3445
 1287TIP3    H225277   0.806   4.452  17.169 -0.2589 -0.1156 -0.8996
 1288TIP3   OH225278   0.838   1.024   3.556  0.0781  0.4582  0.0534
 1288TIP3    H125279   0.748   1.026   3.590  0.2953 -2.3072  1.0180
 1288TIP3    H225280   0.834   0.970   3.477  0.8396  0.6078 -0.1023
 1289TIP3   OH225281   6.620   5.250   1.869  0.0079  0.4083  0.1870
 1289TIP3    H125282   6.665   5.167   1.883  1.2600  1.0921  0.3445
 1289TIP3    H225283   6.675   5.315   1.913 -0.9331  1.3278  0.0388
 1290TIP3   OH225284   1.864   1.393   3.513 -0.4727  0.4086  0.4133
 1290TIP3    H125285   1.880   1.350   3.597 -0.1955  1.1852  0.7716
 1290TIP3    H225286   1.952   1.414   3.480 -0.6179  1.2930  0.5689
 1291TIP3   OH225287   1.649   1.404   5.511 -0.2343 -0.1922 -0.1379
 1291TIP3    H125288   1.720   1.429   5.451 -1.3611  0.5493 -1.2183
 1291TIP3    H225289   1.663   1.456   5.589  0.9111 -0.7161  0.0290
 1292TIP3   OH225290   3.882   3.074   1.219  0.5168  0.1639  0.4580
 1292TIP3    H125291   3.863   3.029   1.302  0.3891  0.8360  0.7961
 1292TIP3    H225292   3.975   3.059   1.205  0.4921 -0.1458  0.6079
 1293TIP3   OH225293   6.225   1.156  12.433  0.3312 -0.7611 -0.1376
 1293TIP3    H125294   6.238   1.230  12.374  0.4476 -0.3445  0.4082
 1293TIP3    H225295   6.307   1.107  12.428  0.5697 -0.3938  0.1409
 1294TIP3   OH225296   6.305   3.177   4.544  0.4874 -0.4131  0.3366
 1294TIP3    H125297   6.342   3.182   4.456 -0.1587 -1.6806 -0.0344
 1294TIP3    H225298   6.222   3.130   4.532 -0.4296  0.8674  1.3840
 1295TIP3   OH225299   0.266   2.403  10.926 -0.1737  0.3443  0.6164
 1295TIP3    H125300   0.172   2.383  10.918 -0.1110  0.7051 -2.2478
 1295TIP3    H225301   0.303   2.326  10.968 -1.5198 -0.6171  0.1359
 1296TIP3   OH225302   4.425   1.840   5.225 -0.2036 -0.2145  0.6033
 1296TIP3    H125303   4.519   1.846   5.204 -0.0986 -3.1365 -0.3094
 1296TIP3    H225304   4.423   1.829   5.320  0.5277 -1.3815  0.5098
 1297TIP3   OH225305   1.340   2.570   3.540 -0.7316 -0.5121  0.1203
 1297TIP3    H125306   1.411   2.517   3.574  0.0893  0.0941 -0.6199
 1297TIP3    H225307   1.280   2.508   3.500 -0.4042 -0.9841  0.3537
 1298TIP3   OH225308   3.205   0.113  10.945  0.4266  0.0852 -0.3182
 1298TIP3    H125309   3.203   0.018  10.949 -2.8099  0.0150 -1.0955
 1298TIP3    H225310   3.171   0.142  11.030 -0.7741  0.4472 -0.9023
 1299TIP3   OH225311   2.057   3.921  14.580 -0.2326  0.0891 -0.2691
 1299TIP3    H125312   1.972   3.963  14.588  0.0943  0.7438 -0.2059
 1299TIP3    H225313   2.083   3.902  14.670 -1.2310 -2.0242 -0.3516
 1300TIP3   OH225314   6.668   6.269   4.740  0.0706  0.3269  0.2535
 1300TIP3    H125315   6.623   6.352   4.725  2.7404  1.8356 -0.0093
 1300TIP3    H225316   6.696   6.272   4.832  0.0274 -0.3760  0.2994
 1301TIP3   OH225317   0.918   4.231   6.638  0.6330  0.7687 -0.1578
 1301TIP3    H125318   0.885   4.314   6.604 -0.9720 -0.8614 -2.9092
 1301TIP3    H225319   0.994   4.211   6.583  2.1114  1.1439  1.6320
 1302TIP3   OH225320   2.321   0.405  14.772  0.6559 -0.0782 -0.7010
 1302TIP3    H125321   2.385   0.338  14.796 -0.0055  0.3531  2.6942
 1302TIP3    H225322   2.239   0.357  14.762  0.0432  0.1092  2.3539
 1303TIP3   OH225323   2.758   5.327  15.544 -0.4951 -0.0337 -0.4456
 1303TIP3    H125324   2.849   5.298  15.556 -0.8663 -1.7429 -1.3688
 1303TIP3    H225325   2.764   5.421  15.530  0.9479  0.1853  1.3105
 1304TIP3   OH225326   0.713   4.164   1.756 -0.3309  0.8190 -0.5297
 1304TIP3    H125327   0.666   4.247   1.763 -2.4341 -0.2304 -1.5997
 1304TIP3    H225328   0.771   4.176   1.681 -2.9660  0.3377 -2.7921
 1305TIP3   OH225329   4.180   0.949   0.423  0.9296  0.3982  0.2700
 1305TIP3    H125330   4.166   1.028   0.476 -0.0848  0.6866 -0.3862
 1305TIP3    H225331   4.094   0.932   0.384  1.6904  0.3403 -1.4545
 1306TIP3   OH225332   5.327   3.820  14.911 -0.1754 -0.7878 -0.2902
 1306TIP3    H125333   5.291   3.796  14.826 -1.8820 -0.7117  0.3644
 1306TIP3    H225334   5.256   3.868  14.954  1.2558  0.6903  0.5217
 1307TIP3   OH225335   0.941   0.556   5.539 -0.1539 -0.0982  0.1909
 1307TIP3    H125336   0.948   0.461   5.534  0.8843  0.0129 -1.0008
 1307TIP3    H225337   0.996   0.588   5.467  0.7279  1.4395  1.4678
 1308TIP3   OH225338   0.182   6.080   6.144  0.6087  0.2028  0.5393
 1308TIP3    H125339   0.215   6.092   6.233  0.3702  0.8006  0.5538
 1308TIP3    H225340   0.248   6.026   6.100  0.3487 -0.7635  1.2970
 1309TIP3   OH225341   3.397   5.575   0.598  0.1105  0.0435  0.1582
 1309TIP3    H125342   3.325   5.563   0.660 -0.3566  1.1676 -0.1404
 1309TIP3    H225343   3.424   5.486   0.575 -1.2567 -0.4035  0.2039
 1310TIP3   OH225344   5.077   4.050   3.071  0.1145 -0.6234  0.0696
 1310TIP3    H125345   5.149   4.100   3.109 -0.0381 -1.1094  1.0534
 1310TIP3    H225346   5.048   3.993   3.143 -2.0920  0.4675  0.1255
 1311TIP3   OH225347   0.574   5.063   5.102  0.2402 -0.3270 -0.3699
 1311TIP3    H125348   0.637   5.070   5.030 -0.1827  1.2652 -0.6297
 1311TIP3    H225349   0.621   5.017   5.171  1.3557 -0.0577 -0.9255
 1312TIP3   OH225350   3.720   3.158   5.102  0.1576  0.5200  0.4175
 1312TIP3    H125351   3.796   3.180   5.048 -1.0011  4.1980 -0.0195
 1312TIP3    H225352   3.655   3.126   5.039 -0.0279  1.5079  0.0762
 1313TIP3   OH225353   0.749   4.881  16.627  0.6323  0.9060  0.2320
 1313TIP3    H125354   0.724   4.973  16.629  2.3886  1.4119  1.8205
 1313TIP3    H225355   0.841   4.882  16.601  0.4612 -0.4846 -0.5423
 1314TIP3   OH225356   5.472   1.820   5.123  0.3812  0.2581  0.2397
 1314TIP3    H125357   5.556   1.866   5.119  0.7793 -0.4643  0.0948
 1314TIP3    H225358   5.496   1.728   5.139 -0.1614 -0.6137 -3.2408
 1315TIP3   OH225359   3.006   4.777   3.651  0.1840 -0.0080  0.5971
 1315TIP3    H125360   2.991   4.763   3.744 -1.6023  0.6012  0.4472
 1315TIP3    H225361   3.005   4.873   3.640 -0.6575 -0.0909 -0.1731
 1316TIP3   OH225362   4.979   2.387  11.207  0.1125  0.6143 -0.1406
 1316TIP3    H125363   5.057   2.354  11.162  0.5756  1.2147  0.2024
 1316TIP3    H225364   4.971   2.330  11.284 -0.7574 -0.4959 -1.0129
 1317TIP3   OH225365   5.977   3.089   2.248 -0.0475 -0.1157  0.0569
 1317TIP3    H125366   5.951   3.036   2.323 -1.1295  0.6504  0.2441
 1317TIP3    H225367   5.896   3.127   2.215 -0.0854 -2.6665 -3.3069
 1318TIP3   OH225368   3.471   6.225  14.650 -0.0969 -0.0746 -0.4836
 1318TIP3    H125369   3.471   6.282  14.573  0.1449  0.3406 -0.1771
 1318TIP3    H225370   3.430   6.144  14.619  0.0829  0.0534 -1.0763
 1319TIP3   OH225371   4.537   6.751  15.898 -0.4951 -0.0762  0.6758
 1319TIP3    H125372   4.560   6.664  15.931 -0.0967 -0.3464 -0.2799
 1319TIP3    H225373   4.605   6.771  15.833 -0.9565  0.6616  0.4012
 1320TIP3   OH225374   6.562   3.240   4.937  0.3964 -0.4770  0.6236
 1320TIP3    H125375   6.544   3.167   4.878 -2.0967  1.7053 -1.5750
 1320TIP3    H225376   6.633   3.288   4.895 -0.2596  0.1679  0.2203
 1321TIP3   OH225377   0.165   4.125  14.999  0.0820  0.0502  0.3320
 1321TIP3    H125378   0.200   4.112  14.911 -0.8548  0.9203 -0.1889
 1321TIP3    H225379   0.126   4.040  15.022 -1.6615  0.4334 -1.0372
 1322TIP3   OH225380   3.654   1.566   2.441  0.0801  0.4519 -0.1812
 1322TIP3    H125381   3.686   1.494   2.496 -0.3846 -0.1037 -0.6158
 1322TIP3    H225382   3.732   1.615   2.417  0.3197  0.5487  0.7533
 1323TIP3   OH225383   1.233   2.912   3.871 -0.3278 -0.0552  0.5437
 1323TIP3    H125384   1.169   2.865   3.923 -2.4358 -1.1367 -2.6994
 1323TIP3    H225385   1.205   3.004   3.876  0.0366 -0.0072  1.9389
 1324TIP3   OH225386   1.035   2.523   5.032  0.0625 -0.0276  0.3605
 1324TIP3    H125387   1.088   2.587   5.079  1.7121 -1.4972  0.6023
 1324TIP3    H225388   0.945   2.540   5.060  0.8055  0.2108  2.8050
 1325TIP3   OH225389   3.083   3.059   2.110  0.2963 -0.3066  0.2867
 1325TIP3    H125390   3.069   3.137   2.057 -0.6784  1.0187  2.3714
 1325TIP3    H225391   3.090   2.988   2.046  0.6742  1.3758 -1.6553
 1326TIP3   OH225392   5.976   0.441  12.790  0.1007 -0.2962 -0.5650
 1326TIP3    H125393   6.030   0.514  12.822  2.2853 -2.5984  1.5271
 1326TIP3    H225394   6.035   0.391  12.734 -0.4032 -1.9181  0.3057
 1327TIP3   OH225395   3.671   1.450  14.283  0.1042  0.2140  0.7072
 1327TIP3    H125396   3.727   1.504  14.226  0.3544 -0.9099 -0.1435
 1327TIP3    H225397   3.728   1.424  14.355  0.4282 -0.1745  0.3165
 1328TIP3   OH225398   4.681   0.276  13.440 -0.2543 -0.2852 -0.2470
 1328TIP3    H125399   4.680   0.188  13.477 -0.5212 -0.6619 -1.1275
 1328TIP3    H225400   4.692   0.334  13.516  0.4298 -1.0929  0.2810
 1329TIP3   OH225401   6.268   6.146  16.719 -0.6511  0.2758  0.2837
 1329TIP3    H125402   6.256   6.051  16.727 -1.0162  0.3250  0.3300
 1329TIP3    H225403   6.270   6.162  16.624  2.5692 -0.1651  0.1616
 1330TIP3   OH225404   5.830   0.262   5.636 -0.2271  0.2188 -0.1974
 1330TIP3    H125405   5.841   0.307   5.720 -2.0106  2.1434 -0.9014
 1330TIP3    H225406   5.782   0.182   5.658  1.8015 -0.7728  0.9100
 1331TIP3   OH225407   2.229   5.984   4.744  0.2151 -0.4433 -0.6285
 1331TIP3    H125408   2.185   6.039   4.679 -0.6453  0.6896  0.8603
 1331TIP3    H225409   2.315   6.024   4.755 -0.7876  1.3286  1.2325
 1332TIP3   OH225410   6.144   2.839   3.195  0.5981 -0.3710 -0.3090
 1332TIP3    H125411   6.141   2.749   3.228  1.6008 -0.4596 -0.4200
 1332TIP3    H225412   6.228   2.845   3.149  0.9800  0.9113  0.5071
 1333TIP3   OH225413   2.660   1.798  13.597 -0.7199 -0.4144 -0.0234
 1333TIP3    H125414   2.587   1.827  13.543 -0.8679  0.1975  0.4903
 1333TIP3    H225415   2.697   1.879  13.633 -0.1917 -0.7637  0.2374
 1334TIP3   OH225416   3.693   4.099  12.764 -0.0069  0.0629 -0.1294
 1334TIP3    H125417   3.742   4.088  12.846  0.3272 -1.8166 -0.5155
 1334TIP3    H225418   3.694   4.011  12.725 -2.8092  0.1873 -0.6566
 1335TIP3   OH225419   1.929   6.023  12.085 -0.0384  0.5184  0.8987
 1335TIP3    H125420   1.893   5.995  12.169  0.3907  1.2022  1.3128
 1335TIP3    H225421   2.024   6.030  12.100  0.1355 -0.0338  0.1654
 1336TIP3   OH225422   2.880   5.964   1.288 -0.0062  0.1515  0.4169
 1336TIP3    H125423   2.902   6.056   1.301  1.8090 -0.4219  2.0585
 1336TIP3    H225424   2.797   5.951   1.334 -0.4896  1.0370 -0.1947
 1337TIP3   OH225425   4.068   0.054  16.273 -0.1812  0.0061  0.3551
 1337TIP3    H125426   4.158   0.083  16.286  0.5825 -1.2062 -1.8074
 1337TIP3    H225427   4.032   0.114  16.208  0.2697 -1.5676 -1.4470
 1338TIP3   OH225428   1.942   4.558  14.680  0.0445 -0.4051 -0.0945
 1338TIP3    H125429   1.974   4.631  14.628  0.5470 -0.6535 -0.1456
 1338TIP3    H225430   1.920   4.490  14.616  0.5638 -0.6722  0.0017
 1339TIP3   OH225431   0.594   1.923  15.175  0.2096  0.1552 -0.7306
 1339TIP3    H125432   0.548   1.911  15.258  0.5342  0.7235 -0.4588
 1339TIP3    H225433   0.686   1.913  15.197  0.2942  0.2739 -1.0288
 1340TIP3   OH225434   5.938   4.695  16.495  0.7249  0.4107 -0.6750
 1340TIP3    H125435   5.921   4.682  16.402  1.1814 -0.1631 -0.6888
 1340TIP3    H225436   6.031   4.674  16.505  1.0249  1.8139 -0.3262
 1341TIP3   OH225437   5.352   2.614   5.632 -0.1677  0.5372  0.2273
 1341TIP3    H125438   5.326   2.529   5.597  0.1510 -0.6336  2.5975
 1341TIP3    H225439   5.401   2.593   5.711  0.8149  2.9283  0.3346
 1342TIP3   OH225440   2.638   2.253  17.367  0.0187 -0.3540  0.5210
 1342TIP3    H125441   2.682   2.181  17.321  1.4445  0.1075  1.1049
 1342TIP3    H225442   2.706   2.290  17.423 -0.7442  1.3231  0.3887
 1343TIP3   OH225443   2.924   6.457  11.597 -0.0034  0.2680  0.0179
 1343TIP3    H125444   2.855   6.395  11.621 -0.0040  0.4992  0.6269
 1343TIP3    H225445   3.001   6.426  11.644  0.4602 -0.2955 -1.0682
 1344TIP3   OH225446   3.245   3.700  17.145 -0.2505 -0.1050  0.3179
 1344TIP3    H125447   3.325   3.718  17.095 -0.2782  0.5886  0.5042
 1344TIP3    H225448   3.263   3.738  17.231 -1.4033  1.5958 -0.1349
 1345TIP3   OH225449   4.331   4.447   5.766 -0.3203 -0.0891 -0.0616
 1345TIP3    H125450   4.262   4.393   5.804 -0.1062  0.7242  1.5456
 1345TIP3    H225451   4.289   4.530   5.747 -0.3067 -0.3283 -1.2135
 1346TIP3   OH225452   4.933   0.786  14.234  0.0856 -0.9358 -0.2319
 1346TIP3    H125453   4.987   0.714  14.267  0.9576 -0.6518 -0.9784
 1346TIP3    H225454   4.993   0.837  14.180 -0.7538 -0.1616 -0.4465
 1347TIP3   OH225455   2.089   4.970   6.241 -0.7402  0.4747 -0.6368
 1347TIP3    H125456   2.043   5.052   6.258 -0.8955  0.0563  1.3086
 1347TIP3    H225457   2.060   4.912   6.312  2.3577  0.0157  0.4198
 1348TIP3   OH225458   5.347   2.737   3.163  0.0553  0.2621 -0.2422
 1348TIP3    H125459   5.360   2.832   3.160  1.3803  0.2414  2.0324
 1348TIP3    H225460   5.385   2.711   3.248 -0.5395 -2.2573 -0.6791
 1349TIP3   OH225461   4.536   3.867   0.993  0.0315  0.0184 -0.5667
 1349TIP3    H125462   4.631   3.876   1.001  0.0236  0.3910 -0.8690
 1349TIP3    H225463   4.512   3.804   1.061  0.4892 -0.0423 -0.4599
 1350TIP3   OH225464   3.460   3.351   5.028 -0.0918 -0.4072 -0.3662
 1350TIP3    H125465   3.448   3.292   5.102  1.8891 -0.0761  0.2863
 1350TIP3    H225466   3.518   3.420   5.061 -0.2299  0.4776 -1.8537
 1351TIP3   OH225467   1.325   2.288  11.311 -0.3578  0.5652 -0.0354
 1351TIP3    H125468   1.319   2.240  11.228  1.6136 -0.5612  0.4020
 1351TIP3    H225469   1.312   2.220  11.378 -0.3012  1.1571  0.5861
 1352TIP3   OH225470   1.864   5.372  16.276 -0.3651 -0.3462  0.5090
 1352TIP3    H125471   1.930   5.374  16.206 -0.3852 -0.5783  0.4804
 1352TIP3    H225472   1.903   5.422  16.347 -0.0142 -0.7568  0.6146
 1353TIP3   OH225473   6.534   0.829  14.494 -0.0475 -0.0024  0.7067
 1353TIP3    H125474   6.521   0.913  14.450  1.3797 -0.1107  0.0322
 1353TIP3    H225475   6.559   0.769  14.424  2.9797 -0.0267  1.6827
 1354TIP3   OH225476   5.986   5.214   1.587 -0.1335 -0.0442  0.8664
 1354TIP3    H125477   5.946   5.268   1.655 -2.1418 -0.4421  0.0768
 1354TIP3    H225478   6.013   5.277   1.519 -1.9324  0.0823  0.2097
 1355TIP3   OH225479   0.882   0.386   2.040 -0.5443 -0.2073  0.2307
 1355TIP3    H125480   0.787   0.386   2.038 -0.5907  1.9379  0.1350
 1355TIP3    H225481   0.904   0.397   2.133 -0.4529  1.4248  0.0319
 1356TIP3   OH225482   1.352   1.351   6.410  0.1515 -0.6181  1.0012
 1356TIP3    H125483   1.303   1.414   6.462  0.7837  0.8138 -0.0565
 1356TIP3    H225484   1.337   1.378   6.319  0.5900 -1.8882  0.5309
 1357TIP3   OH225485   0.922   4.626   5.902  0.6772  0.1737 -0.2017
 1357TIP3    H125486   0.956   4.660   5.984  1.5610 -1.6207  0.2395
 1357TIP3    H225487   0.894   4.537   5.923 -0.4104  0.1609 -1.5368
 1358TIP3   OH225488   5.898   6.647   0.807 -0.1617 -0.2827 -0.7051
 1358TIP3    H125489   5.972   6.704   0.831 -0.6620  0.2526 -0.4150
 1358TIP3    H225490   5.930   6.558   0.824  0.7786 -0.1316 -1.5606
 1359TIP3   OH225491   5.524   0.645  15.488  0.5934 -0.6544 -0.2057
 1359TIP3    H125492   5.534   0.556  15.523  0.6828  0.2587  2.2852
 1359TIP3    H225493   5.452   0.682  15.538  0.1029  0.4921 -1.6986
 1360TIP3   OH225494   3.440   2.065   1.614  0.2616 -0.3104 -0.0358
 1360TIP3    H125495   3.368   2.123   1.639  1.0989  0.1455  1.4052
 1360TIP3    H225496   3.399   1.979   1.605 -0.5046 -0.0148  0.5138
 1361TIP3   OH225497   3.629   0.855  16.119  0.3016  0.4013 -0.0829
 1361TIP3    H125498   3.580   0.773  16.121  2.2746 -0.8375  0.0963
 1361TIP3    H225499   3.646   0.874  16.211  1.1667  0.1483 -0.1794
 1362TIP3   OH225500   3.748   5.923   0.428 -1.1341 -0.0011 -0.4158
 1362TIP3    H125501   3.770   5.890   0.341 -0.4626 -1.7001  0.3683
 1362TIP3    H225502   3.762   6.018   0.421  2.4632 -0.4386 -1.1949
 1363TIP3   OH225503   4.284   6.559   0.883 -0.0968 -1.0673 -0.0551
 1363TIP3    H125504   4.243   6.501   0.947 -0.3219 -1.3414 -0.4431
 1363TIP3    H225505   4.373   6.526   0.875 -0.3630 -1.6526 -0.6233
 1364TIP3   OH225506   5.837   4.779   1.218 -0.4594  0.5376  0.1082
 1364TIP3    H125507   5.860   4.699   1.171  1.8539  1.1507  0.0304
 1364TIP3    H225508   5.912   4.795   1.276 -2.0332  1.2593  2.0539
 1365TIP3   OH225509   6.763   3.206   3.896  0.5053 -0.2819 -0.1443
 1365TIP3    H125510   6.725   3.222   3.982  0.4587 -1.3463  0.0367
 1365TIP3    H225511   6.693   3.226   3.834  0.5473  0.5098  0.0441
 1366TIP3   OH225512   2.921   0.957  12.672  0.0287  0.5385  0.3875
 1366TIP3    H125513   2.830   0.988  12.668 -0.1896 -0.1676 -2.4110
 1366TIP3    H225514   2.914   0.864  12.694  0.2466  0.9186  2.1702
 1367TIP3   OH225515   1.991   5.326  12.763 -0.2803  0.4524  0.2851
 1367TIP3    H125516   2.076   5.283  12.774 -0.2122  0.0742 -1.4089
 1367TIP3    H225517   1.969   5.359  12.850  0.1631 -2.1027  1.4748
 1368TIP3   OH225518   5.094   3.488  13.820  0.3619 -0.1621  0.1193
 1368TIP3    H125519   5.086   3.409  13.873 -0.8337 -0.6643 -0.7676
 1368TIP3    H225520   5.043   3.469  13.741  0.9528  1.0867 -0.5936
 1369TIP3   OH225521   5.625   0.305  17.210  0.4244  0.2884  0.4643
 1369TIP3    H125522   5.562   0.283  17.278  0.7823  0.1656  0.7597
 1369TIP3    H225523   5.633   0.226  17.157 -1.1566  0.9151 -0.7798
 1370TIP3   OH225524   1.913   3.061  14.636  0.1026 -0.3219 -0.4460
 1370TIP3    H125525   1.936   3.071  14.729 -2.4032  1.7857  0.0647
 1370TIP3    H225526   1.902   3.151  14.605 -2.1354 -1.0385 -1.9221
 1371TIP3   OH225527   0.743   2.423   4.279 -0.1651 -0.2416  0.8484
 1371TIP3    H125528   0.775   2.353   4.222  1.0188  0.5123  0.5358
 1371TIP3    H225529   0.681   2.472   4.225 -0.6013 -0.7272  0.8977
 1372TIP3   OH225530   5.347   3.763  14.308 -0.5311 -0.5735  0.4314
 1372TIP3    H125531   5.259   3.781  14.277  0.4530 -0.5744 -2.6745
 1372TIP3    H225532   5.359   3.669  14.294 -0.5312 -0.9028  2.3620
 1373TIP3   OH225533   2.281   0.539   3.541 -0.1157  0.4578  0.7800
 1373TIP3    H125534   2.232   0.459   3.519 -0.8994  1.1915 -0.2280
 1373TIP3    H225535   2.218   0.592   3.590  1.0103 -0.3265  3.2175
 1374TIP3   OH225536   5.604   3.203   1.890 -0.0486  0.9419  0.0207
 1374TIP3    H125537   5.551   3.140   1.841  0.9981  0.7078 -0.8461
 1374TIP3    H225538   5.550   3.282   1.893 -0.4277  0.7318 -0.9033
 1375TIP3   OH225539   1.442   2.058   4.424 -0.1720  0.0809 -0.3675
 1375TIP3    H125540   1.522   2.109   4.437 -0.6002  0.5821  0.3887
 1375TIP3    H225541   1.373   2.112   4.464 -0.3984 -1.8200  2.0337
 1376TIP3   OH225542   3.544   0.224   3.655 -0.5155  0.0988 -0.2524
 1376TIP3    H125543   3.573   0.297   3.710 -0.1899  1.5250 -2.1855
 1376TIP3    H225544   3.464   0.257   3.613 -1.7641 -1.6174  0.6579
 1377TIP3   OH225545   5.545   1.355  14.893 -0.0247 -0.7164  0.1630
 1377TIP3    H125546   5.616   1.416  14.872  0.4592 -0.8204  1.4252
 1377TIP3    H225547   5.531   1.366  14.987 -2.7164  0.3962 -0.2925
 1378TIP3   OH225548   1.207   5.497   2.026 -0.3707  0.0747 -0.4310
 1378TIP3    H125549   1.241   5.431   1.967 -0.4274 -0.2580 -0.0968
 1378TIP3    H225550   1.269   5.500   2.098 -2.4332 -2.7050  1.7267
 1379TIP3   OH225551   1.714   4.123  14.205  0.0480 -0.2874 -0.0254
 1379TIP3    H125552   1.729   4.190  14.138  1.1334 -0.6878 -0.1928
 1379TIP3    H225553   1.688   4.172  14.283 -0.4689  0.2323 -0.5186
 1380TIP3   OH225554   3.963   2.172  16.277  0.5927  0.1550 -0.3058
 1380TIP3    H125555   3.919   2.118  16.343 -1.7220  1.1312 -0.9138
 1380TIP3    H225556   3.961   2.261  16.314  0.7890  0.4324 -0.9458
 1381TIP3   OH225557   3.662   6.586  16.712  0.0875 -0.5400  0.2171
 1381TIP3    H125558   3.706   6.592  16.627 -0.4565 -1.5077 -0.1505
 1381TIP3    H225559   3.733   6.593  16.776  0.6377 -0.8556 -0.3456
 1382TIP3   OH225560   2.023   5.470   0.360  0.7492 -0.4570 -0.0955
 1382TIP3    H125561   2.012   5.457   0.455  0.5330  0.0060 -0.0538
 1382TIP3    H225562   1.956   5.534   0.337  0.6320 -0.7597 -0.6107
 1383TIP3   OH225563   3.490   0.365   2.456  0.3745 -0.0157  0.3198
 1383TIP3    H125564   3.414   0.369   2.398  0.2519 -1.3655  0.3547
 1383TIP3    H225565   3.469   0.297   2.520  1.0084  0.6123  1.2358
 1384TIP3   OH225566   5.714   6.297  17.019 -0.2747  0.5855  0.1292
 1384TIP3    H125567   5.623   6.315  17.044 -0.7043  0.7993 -1.4713
 1384TIP3    H225568   5.707   6.254  16.934  1.1947  2.6422 -1.1324
 1385TIP3   OH225569   3.455   0.220   1.959  0.0875  0.4502 -0.0983
 1385TIP3    H125570   3.404   0.152   1.915 -0.6255  1.2990 -0.6117
 1385TIP3    H225571   3.462   0.190   2.050  0.1012 -0.4777 -0.3972
 1386TIP3   OH225572   2.028   1.057  13.862  0.4278 -0.5518 -0.0526
 1386TIP3    H125573   1.957   1.086  13.919  0.8857 -0.2657  0.3735
 1386TIP3    H225574   2.096   1.124  13.870  0.8150 -0.8974 -0.3396
 1387TIP3   OH225575   1.759   4.711  15.397 -0.1727 -0.3703  0.0795
 1387TIP3    H125576   1.714   4.681  15.318 -0.5266  0.4046 -0.0247
 1387TIP3    H225577   1.688   4.743  15.454  0.3081  4.0292 -1.3960
 1388TIP3   OH225578   3.958   4.381  15.702  0.6704  0.4409 -0.0392
 1388TIP3    H125579   3.934   4.398  15.610 -0.1972  1.1765  0.3033
 1388TIP3    H225580   3.961   4.286  15.708  0.2864  0.3713 -0.7342
 1389TIP3   OH225581   0.081   3.812  14.294  0.5650 -0.0073  0.0949
 1389TIP3    H125582   0.024   3.878  14.254 -0.8648 -1.2126  0.0686
 1389TIP3    H225583   0.087   3.837  14.386 -0.2411 -0.0090  0.1558
 1390TIP3   OH225584   4.993   5.345  14.251  0.5295  0.2718 -0.4714
 1390TIP3    H125585   4.985   5.439  14.238 -1.0845  0.2005 -0.1814
 1390TIP3    H225586   4.932   5.325  14.322  0.4301 -1.0711 -0.9027
 1391TIP3   OH225587   5.437   3.182  14.640  0.0086 -0.0549 -0.3918
 1391TIP3    H125588   5.387   3.260  14.661 -0.6596 -0.4734 -0.3784
 1391TIP3    H225589   5.375   3.110  14.652  0.8459 -0.6616  0.3990
 1392TIP3   OH225590   2.807   0.005   5.393 -0.1849  0.5312 -0.0643
 1392TIP3    H125591   2.849   0.028   5.476 -2.6134  0.8748  1.1354
 1392TIP3    H225592   2.843   0.069   5.331  0.8203  0.9968  0.9456
 1393TIP3   OH225593   2.016   1.044  10.598 -0.2272  0.4289  0.3398
 1393TIP3    H125594   1.967   1.113  10.554  1.6700  0.6903 -1.5396
 1393TIP3    H225595   2.001   1.058  10.691 -2.0482  1.6814 -0.0978
 1394TIP3   OH225596   2.181   1.572   1.609  0.1396  0.9221  0.3597
 1394TIP3    H125597   2.103   1.616   1.641  0.6753  2.0217  0.2144
 1394TIP3    H225598   2.210   1.517   1.682 -0.3314  1.1026  0.6826
 1395TIP3   OH225599   0.231   3.055   3.944 -0.0169 -0.3878 -0.2878
 1395TIP3    H125600   0.276   3.107   4.010 -0.0360  0.0282 -0.5990
 1395TIP3    H225601   0.153   3.106   3.922  0.0038 -0.5112 -0.6475
 1396TIP3   OH225602   5.011   2.327   4.968  0.3639  0.0691 -0.0937
 1396TIP3    H125603   5.074   2.368   5.027 -0.0505 -0.7164  0.9342
 1396TIP3    H225604   4.927   2.366   4.993  0.3410  0.6222 -1.0007
 1397TIP3   OH225605   5.789   5.065   2.206 -0.1971  0.1887 -0.8964
 1397TIP3    H125606   5.821   4.983   2.244 -0.9383  0.9189  1.4438
 1397TIP3    H225607   5.733   5.103   2.274  1.4155  3.4524 -1.2307
 1398TIP3   OH225608   2.619   0.158   0.992 -0.0267 -0.0661 -0.0136
 1398TIP3    H125609   2.543   0.103   0.973 -0.2407  0.3335 -0.3267
 1398TIP3    H225610   2.591   0.247   0.969 -0.0746  0.3649  1.5913
 1399TIP3   OH225611   6.639   2.777  12.521 -0.3511 -0.3023 -0.1606
 1399TIP3    H125612   6.614   2.735  12.438  1.7355  0.1561 -1.0932
 1399TIP3    H225613   6.559   2.817  12.552 -1.5409 -1.7636 -1.1873
 1400TIP3   OH225614   0.780   1.001  16.641 -0.1232  0.3501 -0.0971
 1400TIP3    H125615   0.736   0.918  16.623 -0.1119  0.4808 -0.7672
 1400TIP3    H225616   0.716   1.068  16.618  0.7700  0.5657 -2.2063
 1401TIP3   OH225617   5.060   1.064  12.659  0.0563  0.0905  0.0395
 1401TIP3    H125618   5.063   1.123  12.735 -0.6009 -1.0943  1.0216
 1401TIP3    H225619   5.096   0.982  12.691  0.0068 -0.3591 -1.0157
 1402TIP3   OH225620   0.219   3.373   3.256  0.9079  0.8677 -0.6201
 1402TIP3    H125621   0.123   3.373   3.263  0.9346  1.3177 -0.1793
 1402TIP3    H225622   0.245   3.286   3.284  0.7497  1.3996  1.3550
 1403TIP3   OH225623   1.574   3.745  15.234 -0.3573 -0.8164  0.7183
 1403TIP3    H125624   1.537   3.822  15.278 -0.0611 -1.2515  1.7728
 1403TIP3    H225625   1.516   3.728  15.161 -0.6487  0.1776  0.7078
 1404TIP3   OH225626   5.842   2.082  15.467  0.5440 -1.0374 -0.1380
 1404TIP3    H125627   5.782   2.096  15.540  0.4478  0.3052 -0.4496
 1404TIP3    H225628   5.796   2.019  15.410 -0.6473  0.0587 -0.4365
 1405TIP3   OH225629   4.930   6.623   0.875 -0.1340 -0.3903  0.5005
 1405TIP3    H125630   4.929   6.699   0.933  1.5546 -0.7413  1.0626
 1405TIP3    H225631   5.013   6.630   0.828 -1.0749 -0.5833 -1.2822
 1406TIP3   OH225632   5.028   0.967   0.609 -0.5338 -0.3187  0.3127
 1406TIP3    H125633   5.081   1.044   0.587 -1.5926  0.7960  1.4698
 1406TIP3    H225634   4.994   0.936   0.526 -0.6147  0.8651 -0.1103
 1407TIP3   OH225635   6.166   0.266  15.166  0.1057 -0.0860  0.1459
 1407TIP3    H125636   6.154   0.179  15.129  0.1940 -0.9612  2.0320
 1407TIP3    H225637   6.089   0.315  15.139 -0.1658 -0.8988 -0.5740
 1408TIP3   OH225638   4.228   4.300   2.417  0.1447 -0.0309  0.0180
 1408TIP3    H125639   4.182   4.361   2.359  0.4709  0.1354 -0.0689
 1408TIP3    H225640   4.257   4.229   2.359  2.3114  1.1607 -0.4338
 1409TIP3   OH225641   3.283   2.338  17.059 -0.1240 -0.1998 -0.0807
 1409TIP3    H125642   3.254   2.385  17.137  0.3349 -0.6776  0.3882
 1409TIP3    H225643   3.211   2.278  17.038 -0.6164  0.5339 -0.5507
 1410TIP3   OH225644   5.691   6.483   3.350  0.0352  0.0864  0.1796
 1410TIP3    H125645   5.743   6.523   3.420  0.2397 -1.4685  0.9609
 1410TIP3    H225646   5.750   6.419   3.310 -0.7645 -0.5311 -0.0250
 1411TIP3   OH225647   1.042   3.869   3.222 -0.0078 -0.0002  0.1688
 1411TIP3    H125648   0.985   3.860   3.299  0.1195  0.5658  0.3388
 1411TIP3    H225649   1.079   3.782   3.210 -1.3081 -0.5208 -0.2714
 1412TIP3   OH225650   1.241   5.456   0.550  0.2927 -0.5582  0.1986
 1412TIP3    H125651   1.298   5.507   0.491  0.8569 -2.0043 -0.5442
 1412TIP3    H225652   1.301   5.410   0.607 -0.0651 -2.3444 -0.7910
 1413TIP3   OH225653   3.758   2.647   4.287 -0.3770 -0.4866  0.1399
 1413TIP3    H125654   3.837   2.614   4.242  0.1416  0.6723  0.1669
 1413TIP3    H225655   3.691   2.581   4.269  0.5448 -1.3928 -0.0619
 1414TIP3   OH225656   0.430   1.068  11.430 -0.4379  0.1277  0.7716
 1414TIP3    H125657   0.449   1.039  11.519 -0.2568  1.6446  1.2455
 1414TIP3    H225658   0.492   1.138  11.413  0.6942 -1.2513 -1.2144
 1415TIP3   OH225659   4.581   2.189   2.146  0.4259  0.0973 -0.1859
 1415TIP3    H125660   4.582   2.137   2.226 -1.2341  1.1466  0.5705
 1415TIP3    H225661   4.542   2.273   2.173  1.2911  1.0489 -1.7557
 1416TIP3   OH225662   2.443   4.218   0.586  0.1793 -0.6733  0.7033
 1416TIP3    H125663   2.376   4.150   0.584 -0.0821 -0.4788  1.9425
 1416TIP3    H225664   2.435   4.257   0.673 -1.1267  2.3889 -0.6558
 1417TIP3   OH225665   2.311   4.370   0.403 -0.1767  0.0933  0.4176
 1417TIP3    H125666   2.274   4.306   0.341  2.7575  0.3140 -1.8051
 1417TIP3    H225667   2.373   4.319   0.456 -0.2982  0.4866  0.9368
 1418TIP3   OH225668   5.383   6.058   4.646 -0.4269 -0.2259  0.1532
 1418TIP3    H125669   5.363   6.132   4.588  1.4136 -0.1758 -0.4754
 1418TIP3    H225670   5.323   6.069   4.720  0.5872  2.6136  0.6701
 1419TIP3   OH225671   2.372   5.159  15.985  0.8782 -0.0954  0.5564
 1419TIP3    H125672   2.283   5.128  15.999  1.3035 -2.4686 -1.3083
 1419TIP3    H225673   2.413   5.156  16.071 -0.7416  0.8042  1.3935
 1420TIP3   OH225674   4.874   1.754  14.425 -0.0220  0.3513 -0.0898
 1420TIP3    H125675   4.851   1.837  14.467  0.8445  0.4143  0.2968
 1420TIP3    H225676   4.965   1.738  14.453 -0.1193 -0.6327 -0.3078
 1421TIP3   OH225677   4.432   1.624  16.614  0.0688  0.3275 -0.5007
 1421TIP3    H125678   4.500   1.680  16.576 -0.4816 -0.4501 -2.7532
 1421TIP3    H225679   4.448   1.538  16.576 -2.6039  0.2879 -1.7203
 1422TIP3   OH225680   4.000   2.060   6.706 -0.2603  0.2475  0.1327
 1422TIP3    H125681   3.907   2.046   6.691 -0.7681  1.2543  2.0478
 1422TIP3    H225682   4.039   1.972   6.702 -1.3055 -0.1925 -0.5383
 1423TIP3   OH225683   2.025   3.654   5.413  0.5857  0.2065  0.8823
 1423TIP3    H125684   1.939   3.695   5.404  1.0619  0.9788 -0.5861
 1423TIP3    H225685   2.082   3.705   5.355  1.2060 -2.5843 -1.1579
 1424TIP3   OH225686   2.923   2.434  12.395 -0.1428  0.0347 -0.0862
 1424TIP3    H125687   2.919   2.357  12.451  1.7493 -0.1312 -0.0940
 1424TIP3    H225688   2.967   2.403  12.315  1.0146  1.1880  0.0723
 1425TIP3   OH225689   4.801   6.051   5.453 -0.4706  0.2182  0.0044
 1425TIP3    H125690   4.840   6.117   5.396 -0.6865 -0.8143 -1.3744
 1425TIP3    H225691   4.735   6.099   5.503 -0.9067  0.9907 -1.2578
 1426TIP3   OH225692   0.625   1.833   2.351  0.5764 -0.1293 -0.1087
 1426TIP3    H125693   0.657   1.845   2.440  1.4187 -0.9722 -0.2789
 1426TIP3    H225694   0.583   1.748   2.351 -0.9148  0.5829 -0.1228
 1427TIP3   OH225695   6.505   3.710  13.767  0.2264  0.4030 -0.4177
 1427TIP3    H125696   6.470   3.681  13.852  1.1969 -0.0309 -0.1488
 1427TIP3    H225697   6.429   3.710  13.709 -0.3459  0.1234  0.3052
 1428TIP3   OH225698   5.282   4.585   5.206  0.4215  0.0128  0.1914
 1428TIP3    H125699   5.313   4.657   5.151  2.8608 -1.9083 -1.1448
 1428TIP3    H225700   5.353   4.569   5.268 -0.2700 -0.9528  0.7664
 1429TIP3   OH225701   6.259   1.737   0.885  0.3340  0.0378 -0.2316
 1429TIP3    H125702   6.232   1.729   0.793 -0.2892  0.3459 -0.0845
 1429TIP3    H225703   6.250   1.831   0.904  1.1795  0.0893 -0.0674
 1430TIP3   OH225704   3.189   5.731  15.315 -0.6490 -0.4414 -0.1427
 1430TIP3    H125705   3.135   5.793  15.365  0.1857  1.6353 -1.6391
 1430TIP3    H225706   3.131   5.700  15.246 -1.1823 -1.6823  0.8305
 1431TIP3   OH225707   2.430   5.729   0.561 -0.2444 -0.2675 -0.0703
 1431TIP3    H125708   2.418   5.637   0.537  0.0665  0.0163 -1.4122
 1431TIP3    H225709   2.353   5.773   0.523 -2.1869 -0.3594  3.3454
 1432TIP3   OH225710   6.255   2.217  17.238 -0.1751  0.2110 -0.7464
 1432TIP3    H125711   6.198   2.140  17.240 -1.1251  0.8846 -1.1113
 1432TIP3    H225712   6.198   2.289  17.264  0.6606  0.8241 -0.5805
 1433TIP3   OH225713   2.715   5.755   5.576  0.3034 -0.4115  0.3631
 1433TIP3    H125714   2.643   5.800   5.532  0.9678  0.3718  0.0489
 1433TIP3    H225715   2.745   5.818   5.642  0.0028 -1.1595  1.2315
 1434TIP3   OH225716   2.289   5.550  12.289 -0.8046 -0.2947  0.2043
 1434TIP3    H125717   2.347   5.617  12.254 -2.6553  1.5695  0.4838
 1434TIP3    H225718   2.347   5.483  12.323  1.2232  1.6964  0.9376
 1435TIP3   OH225719   5.301   2.075  16.698  0.1825  0.1585  0.0081
 1435TIP3    H125720   5.380   2.030  16.728  0.5904 -0.2371 -1.5768
 1435TIP3    H225721   5.246   2.004  16.662  0.0418  0.6939 -0.8520
 1436TIP3   OH225722   0.500   4.161   0.629 -0.6042  0.0111 -0.3997
 1436TIP3    H125723   0.432   4.225   0.652 -1.2160 -0.3317 -1.2072
 1436TIP3    H225724   0.520   4.180   0.537  1.7145  1.3002  0.2929
 1437TIP3   OH225725   0.620   3.161   1.552  0.1244 -0.2570  0.3366
 1437TIP3    H125726   0.590   3.085   1.602 -1.0246 -0.0327  0.0332
 1437TIP3    H225727   0.681   3.124   1.488  0.2558 -0.7992  0.7641
 1438TIP3   OH225728   4.207   2.176  14.157 -0.0459 -0.0930  0.0142
 1438TIP3    H125729   4.269   2.189  14.229  0.1513 -0.8981  0.0026
 1438TIP3    H225730   4.136   2.125  14.197  0.4933 -1.3456 -0.5519
 1439TIP3   OH225731   3.108   4.473   1.084 -0.1558 -0.2024 -0.5738
 1439TIP3    H125732   3.049   4.423   1.027 -1.2865 -0.7997  1.0283
 1439TIP3    H225733   3.051   4.508   1.153  0.8257  2.2209 -0.8862
 1440TIP3   OH225734   1.138   4.740  14.745 -0.3628 -0.3427  0.2421
 1440TIP3    H125735   1.187   4.820  14.763 -2.6524  1.2709 -0.1796
 1440TIP3    H225736   1.145   4.689  14.826 -0.7521  1.3884  1.4338
 1441TIP3   OH225737   1.266   1.797   2.848 -0.0809  0.1914  0.1571
 1441TIP3    H125738   1.321   1.873   2.868 -1.8044  1.4339  0.4449
 1441TIP3    H225739   1.298   1.766   2.763  1.4571  0.4659  0.6054
 1442TIP3   OH225740   5.175   5.107  15.503  0.0810 -0.3805  0.3917
 1442TIP3    H125741   5.115   5.041  15.537  0.4252 -0.7633  0.2714
 1442TIP3    H225742   5.252   5.100  15.559  0.1975 -0.2179  0.2533
 1443TIP3   OH225743   3.963   2.945  14.123 -0.4048 -0.7153  0.0403
 1443TIP3    H125744   4.058   2.958  14.132 -0.4571 -0.3674  0.0731
 1443TIP3    H225745   3.924   3.015  14.175 -0.6752 -1.4182  0.8269
 1444TIP3   OH225746   2.640   5.614  14.499 -0.1279 -0.7464 -0.1606
 1444TIP3    H125747   2.655   5.700  14.460 -1.1588 -0.7333 -0.5811
 1444TIP3    H225748   2.546   5.614  14.520  0.2268 -1.0476  1.6100
 1445TIP3   OH225749   5.759   1.652   0.085  0.2251 -0.2178  0.4232
 1445TIP3    H125750   5.745   1.707   0.008 -2.3521 -0.9085  0.2913
 1445TIP3    H225751   5.799   1.710   0.149 -1.6883  1.6702  0.0322
 1446TIP3   OH225752   1.925   0.296   1.300  0.2505 -0.6531 -0.6730
 1446TIP3    H125753   1.882   0.296   1.385  0.7286 -2.5275 -0.3719
 1446TIP3    H225754   1.932   0.203   1.277 -1.4358 -0.1749 -3.5748
 1447TIP3   OH225755   1.331   1.387  12.213 -0.2488  0.3159  0.0059
 1447TIP3    H125756   1.382   1.442  12.153  2.0000  0.6855  2.0984
 1447TIP3    H225757   1.305   1.446  12.283 -1.6447 -0.4066  0.1348
 1448TIP3   OH225758   5.793   1.122  15.444 -0.1564  0.0694  0.0644
 1448TIP3    H125759   5.710   1.109  15.490  0.1793 -0.6829  0.4771
 1448TIP3    H225760   5.847   1.047  15.470  0.6028  0.4752 -0.3114
 1449TIP3   OH225761   4.501   6.067  10.390 -0.1071  0.1497  0.4810
 1449TIP3    H125762   4.580   6.060  10.443  0.5027 -1.1771 -0.5576
 1449TIP3    H225763   4.492   5.981  10.349 -1.4595  0.6425 -0.3110
 1450TIP3   OH225764   1.383   1.499   4.899  0.1077  0.0864 -0.1216
 1450TIP3    H125765   1.392   1.522   4.806 -1.6882 -1.0843 -0.6477
 1450TIP3    H225766   1.292   1.518   4.919  0.9161  2.1021  1.9922
 1451TIP3   OH225767   4.213   3.776  11.710 -0.2659 -0.0866 -0.5645
 1451TIP3    H125768   4.215   3.841  11.641  1.6023 -0.6926 -1.1463
 1451TIP3    H225769   4.267   3.813  11.780  1.1804 -1.1504 -1.0746
 1452TIP3   OH225770   3.717   3.218  13.091  0.2386  0.0557 -0.1062
 1452TIP3    H125771   3.628   3.238  13.060  0.4849  0.8315 -0.3276
 1452TIP3    H225772   3.704   3.154  13.161 -0.3839 -1.1516 -1.2777
 1453TIP3   OH225773   4.894   1.770   2.218  0.3306  0.5654  0.5780
 1453TIP3    H125774   4.973   1.734   2.259  0.2123  1.8015  1.9611
 1453TIP3    H225775   4.834   1.696   2.211  0.7805  0.0935  1.6028
 1454TIP3   OH225776   0.800   0.718  13.610 -0.2669  0.1210 -0.0485
 1454TIP3    H125777   0.832   0.789  13.555 -0.4184  1.8411  1.9920
 1454TIP3    H225778   0.853   0.642  13.585  1.3398  1.4505 -0.8154
 1455TIP3   OH225779   4.013   1.141   3.522 -0.4399 -0.1062 -0.0751
 1455TIP3    H125780   4.097   1.105   3.495 -1.2088 -0.7283 -1.7630
 1455TIP3    H225781   4.035   1.210   3.584  1.3145 -0.1175 -0.6388
 1456TIP3   OH225782   4.656   5.360   3.849 -0.6206  0.2350 -0.3044
 1456TIP3    H125783   4.670   5.276   3.805  0.2772  0.3514 -0.2710
 1456TIP3    H225784   4.564   5.381   3.834 -0.8532 -0.7688 -0.2881
 1457TIP3   OH225785   4.565   3.100   0.724 -0.8136  0.3009 -0.3946
 1457TIP3    H125786   4.633   3.163   0.698 -1.7245  1.4728 -0.0098
 1457TIP3    H225787   4.568   3.033   0.656  1.2023 -0.0623 -0.0070
 1458TIP3   OH225788   6.406   2.287   0.199 -0.1508 -0.2028  0.0620
 1458TIP3    H125789   6.462   2.346   0.149  0.2950 -0.2400  0.5119
 1458TIP3    H225790   6.327   2.338   0.216 -0.0561  0.0193 -0.1514
 1459TIP3   OH225791   6.252   3.549   3.346  0.3196 -0.1889  0.3494
 1459TIP3    H125792   6.276   3.523   3.257  0.7928 -0.3616  0.5277
 1459TIP3    H225793   6.330   3.532   3.399 -0.2595 -1.0183  0.9804
 1460TIP3   OH225794   2.086   2.595   5.537  0.4596  0.4939 -0.4021
 1460TIP3    H125795   2.174   2.616   5.505  0.3835  0.3589 -0.7086
 1460TIP3    H225796   2.095   2.592   5.632  0.4666  1.9374 -0.3410
 1461TIP3   OH225797   4.669   2.257  13.082  0.6881 -0.1726  0.5388
 1461TIP3    H125798   4.645   2.349  13.073  1.1160 -0.1826 -0.9122
 1461TIP3    H225799   4.708   2.251  13.169  1.7130  1.2639  0.2115
 1462TIP3   OH225800   1.237   4.109   4.803 -0.5088 -0.3130  0.5649
 1462TIP3    H125801   1.158   4.152   4.834 -2.2431 -0.4681 -3.1250
 1462TIP3    H225802   1.283   4.177   4.753  0.6616 -0.7567  1.0110
 1463TIP3   OH225803   1.419   3.626   1.177  0.5498 -0.0933 -0.7041
 1463TIP3    H125804   1.331   3.590   1.169  1.2277 -1.6069 -1.9278
 1463TIP3    H225805   1.435   3.630   1.271 -0.5740 -0.4244 -0.4850
 1464TIP3   OH225806   0.558   6.606   5.643 -0.4200 -0.1808  0.1817
 1464TIP3    H125807   0.571   6.667   5.570  1.4376 -0.8919 -0.1190
 1464TIP3    H225808   0.579   6.657   5.721 -1.8413  0.4060  0.2327
 1465TIP3   OH225809   4.356   4.914   5.345 -0.0410  0.2961  0.5949
 1465TIP3    H125810   4.272   4.878   5.318 -0.1591  0.1886  1.0981
 1465TIP3    H225811   4.405   4.925   5.263 -0.4727  0.1830  0.3201
 1466TIP3   OH225812   6.322   5.122  14.145  0.6797 -1.2448 -0.4991
 1466TIP3    H125813   6.381   5.111  14.070  0.8164  1.5608 -0.8886
 1466TIP3    H225814   6.362   5.191  14.197 -0.7440 -1.3926  0.8444
 1467TIP3   OH225815   6.337   1.815   2.561  0.3080 -0.8163  0.0160
 1467TIP3    H125816   6.265   1.787   2.504  0.4414 -2.1109  0.4353
 1467TIP3    H225817   6.377   1.733   2.590 -0.9176 -0.3480  3.4587
 1468TIP3   OH225818   5.291   4.564   4.715  0.2683 -0.3182 -0.4835
 1468TIP3    H125819   5.228   4.497   4.686 -0.9366  0.1761  0.8572
 1468TIP3    H225820   5.297   4.551   4.810 -0.1159  1.5446 -0.1705
 1469TIP3   OH225821   3.170   4.125  13.326  0.1955  0.0494  0.0630
 1469TIP3    H125822   3.218   4.184  13.268  1.5782 -1.4067 -0.3557
 1469TIP3    H225823   3.176   4.039  13.284  1.4095 -1.1138  2.3707
 1470TIP3   OH225824   1.423   5.749  15.349  0.2047  0.0083  0.2978
 1470TIP3    H125825   1.484   5.788  15.287 -1.5339  1.4285 -0.6099
 1470TIP3    H225826   1.345   5.730  15.297 -1.0358  0.5404  1.8683
 1471TIP3   OH225827   1.985   0.820  13.728 -0.1274  0.0409 -0.3285
 1471TIP3    H125828   1.997   0.906  13.768  1.4386 -0.3225  0.0496
 1471TIP3    H225829   1.912   0.781  13.776 -0.0257  0.6725  0.3516
 1472TIP3   OH225830   1.595   0.161   0.905  0.4434 -0.0136 -0.2900
 1472TIP3    H125831   1.599   0.074   0.866  1.5157 -0.6993  1.2334
 1472TIP3    H225832   1.508   0.165   0.945 -0.8634  0.8881 -3.0216
 1473TIP3   OH225833   3.529   0.997   5.413  0.3574  0.1479 -0.1979
 1473TIP3    H125834   3.553   1.008   5.321  1.0992 -1.2536 -0.2043
 1473TIP3    H225835   3.583   1.061   5.460  0.2744  0.5868 -0.6899
 1474TIP3   OH225836   1.133   2.649   5.264 -0.3676  0.1290  0.3807
 1474TIP3    H125837   1.216   2.676   5.224  0.0051  0.4021  1.3288
 1474TIP3    H225838   1.158   2.584   5.330 -0.9232  0.1714  0.6365
 1475TIP3   OH225839   3.484   0.695   5.768 -0.3201  0.4408 -0.0282
 1475TIP3    H125840   3.390   0.683   5.758 -0.3218  0.3674  0.0652
 1475TIP3    H225841   3.522   0.610   5.744 -0.1516  0.9572 -1.6977
 1476TIP3   OH225842   2.981   1.976   4.868 -0.2689  0.1660 -0.1071
 1476TIP3    H125843   2.954   1.985   4.959 -1.6794  0.4817 -0.5236
 1476TIP3    H225844   2.952   1.888   4.843  1.9275 -0.7324  0.2920
 1477TIP3   OH225845   5.465   2.971  12.604  0.2390 -0.5130  0.0440
 1477TIP3    H125846   5.526   2.900  12.584  1.0318 -0.2753  1.4372
 1477TIP3    H225847   5.458   3.020  12.523  2.3089 -0.2736 -0.0443
 1478TIP3   OH225848   2.490   1.154   1.583  0.3306 -0.1376 -0.1511
 1478TIP3    H125849   2.512   1.113   1.499  0.5434 -0.1218 -0.1029
 1478TIP3    H225850   2.396   1.139   1.592  0.5065 -1.1451  0.1475
 1479TIP3   OH225851   3.274   4.627  15.905  0.2954 -0.4761  0.0832
 1479TIP3    H125852   3.228   4.587  15.831  1.4329 -3.0050  0.6214
 1479TIP3    H225853   3.329   4.556  15.940  4.2257  2.1422 -0.2024
 1480TIP3   OH225854   0.254   2.410   0.880  0.0252 -0.2014 -0.1873
 1480TIP3    H125855   0.175   2.380   0.923 -0.5115  1.9832  0.4700
 1480TIP3    H225856   0.259   2.503   0.901  2.0038  0.0252 -1.4047
 1481TIP3   OH225857   0.885   1.463  16.743  0.3672 -0.0064 -0.1512
 1481TIP3    H125858   0.975   1.434  16.757  0.0758 -1.8585 -1.7214
 1481TIP3    H225859   0.832   1.403  16.795 -0.0807 -0.5871 -1.2362
 1482TIP3   OH225860   6.266   2.513   6.258 -0.0545  0.1935 -0.8908
 1482TIP3    H125861   6.282   2.472   6.343 -2.0471 -0.1327 -0.6330
 1482TIP3    H225862   6.310   2.455   6.196 -1.9584 -1.8947 -0.4320
 1483TIP3   OH225863   1.144   4.483   1.945 -0.0857 -0.0053 -0.0139
 1483TIP3    H125864   1.237   4.493   1.965 -0.4891  1.0702  1.5168
 1483TIP3    H225865   1.135   4.391   1.919  1.3410 -0.2227  0.1928
 1484TIP3   OH225866   2.688   4.300  12.073  0.0705  0.0656  0.0634
 1484TIP3    H125867   2.702   4.361  12.000 -1.3027 -0.4994 -0.7175
 1484TIP3    H225868   2.775   4.290  12.113  1.0753 -0.2587 -2.0347
 1485TIP3   OH225869   2.029   0.032   4.773 -0.1508  0.5955  0.1571
 1485TIP3    H125870   2.119   0.002   4.783 -0.5318 -0.5918  0.2405
 1485TIP3    H225871   1.977  -0.036   4.816 -1.1044  1.0798 -0.2154
 1486TIP3   OH225872   6.256   3.976   4.448  0.1741  0.0312  0.7953
 1486TIP3    H125873   6.305   4.059   4.454 -2.2759  1.7351 -0.9841
 1486TIP3    H225874   6.237   3.954   4.539  1.5452  0.9782  1.3530
 1487TIP3   OH225875   0.339   0.670   2.750  0.1908 -0.2800 -0.4877
 1487TIP3    H125876   0.263   0.728   2.742  0.7960  0.9780  2.0032
 1487TIP3    H225877   0.324   0.623   2.832  0.2299 -2.9972 -1.9212
 1488TIP3   OH225878   3.954   6.433   0.275 -0.2749  0.2179 -0.2781
 1488TIP3    H125879   3.894   6.465   0.342 -0.8870 -1.9723  0.2931
 1488TIP3    H225880   3.903   6.436   0.194  0.1924  2.0737 -0.5475
 1489TIP3   OH225881   1.487   2.880  17.076 -0.3481 -0.5484  0.0918
 1489TIP3    H125882   1.425   2.934  17.125 -0.0191 -1.0037  1.0397
 1489TIP3    H225883   1.561   2.938  17.058 -0.6368 -0.2704 -0.2254
 1490TIP3   OH225884   6.595   1.378  15.642  0.4763  0.3837 -0.2797
 1490TIP3    H125885   6.662   1.405  15.579  0.3538  2.0993  0.2807
 1490TIP3    H225886   6.525   1.342  15.588  1.5024 -0.7312 -0.9221
 1491TIP3   OH225887   0.100   5.921  11.575 -0.0974  0.3467  0.1811
 1491TIP3    H125888   0.085   5.868  11.497  1.1070 -0.5850  0.5483
 1491TIP3    H225889   0.124   6.007  11.541 -0.9813  0.3555 -0.4426
 1492TIP3   OH225890   3.842   6.134   4.913 -0.5280  0.0578 -0.3424
 1492TIP3    H125891   3.822   6.183   4.993 -0.9501 -1.5968  0.6164
 1492TIP3    H225892   3.938   6.124   4.915 -0.5834 -0.4594  0.2827
 1493TIP3   OH225893   1.315   3.692   3.594  0.5692 -0.2651  0.1352
 1493TIP3    H125894   1.348   3.606   3.620  2.1948  0.8681  2.0534
 1493TIP3    H225895   1.227   3.695   3.630  1.0447 -0.5864  1.3852
 1494TIP3   OH225896   0.319   3.136   3.338  0.5314  0.1243  0.6254
 1494TIP3    H125897   0.248   3.078   3.310 -0.9015  1.7508  0.7505
 1494TIP3    H225898   0.396   3.079   3.342 -0.6608 -1.6055  0.0794
 1495TIP3   OH225899   6.544   3.464  12.805  0.3382  0.3148  0.0956
 1495TIP3    H125900   6.624   3.419  12.833 -0.8545 -1.6885  0.4848
 1495TIP3    H225901   6.531   3.532  12.872  2.8340  2.2063 -1.1685
 1496TIP3   OH225902   1.304   0.647   1.524 -0.2602  0.0714  0.1414
 1496TIP3    H125903   1.349   0.714   1.574  0.7823  0.2514 -0.9728
 1496TIP3    H225904   1.370   0.579   1.510 -0.5824 -0.0699 -0.7762
 1497TIP3   OH225905   2.302   1.715  15.703  0.5203 -0.3259  0.7825
 1497TIP3    H125906   2.240   1.694  15.633  0.2290 -0.9624  1.2295
 1497TIP3    H225907   2.307   1.636  15.756  0.3154  0.3196  1.8071
 1498TIP3   OH225908   5.664   2.119  12.882 -0.0049 -0.4342 -0.5217
 1498TIP3    H125909   5.646   2.119  12.788  0.1562  0.8015 -0.5645
 1498TIP3    H225910   5.760   2.119  12.888 -0.0094 -1.1361 -0.3426
 1499TIP3   OH225911   2.699   3.396   4.320  0.3702 -0.1166 -0.1852
 1499TIP3    H125912   2.770   3.459   4.306  0.1019 -0.0488 -1.3942
 1499TIP3    H225913   2.666   3.378   4.232 -1.3231  0.1054  0.3738
 1500TIP3   OH225914   2.672   4.440   1.369 -0.1317  0.0751  0.0382
 1500TIP3    H125915   2.696   4.364   1.423 -2.0123 -2.2783 -2.1746
 1500TIP3    H225916   2.579   4.429   1.353  0.2960  0.5903 -3.6093
 1501TIP3   OH225917   5.207   5.257   2.360 -0.0867 -0.0451 -0.3890
 1501TIP3    H125918   5.279   5.195   2.373 -0.0743 -0.0514 -0.4860
 1501TIP3    H225919   5.175   5.237   2.272  0.2184  0.4051 -0.6009
 1502TIP3   OH225920   3.618   0.699  12.435 -0.4167  0.4112  0.5637
 1502TIP3    H125921   3.653   0.610  12.438 -3.6758 -1.0418  3.7917
 1502TIP3    H225922   3.528   0.688  12.405  0.1751  3.2988 -2.9074
 1503TIP3   OH225923   3.999   5.238  15.570  0.6769 -0.3443  0.5898
 1503TIP3    H125924   4.082   5.277  15.596  1.7878 -2.4624  0.4027
 1503TIP3    H225925   3.971   5.187  15.646 -0.0237 -0.3121  0.3632
 1504TIP3   OH225926   1.380   2.093   2.707  0.3698  0.0517  0.4848
 1504TIP3    H125927   1.378   2.106   2.801  0.0940  0.9203  0.3760
 1504TIP3    H225928   1.466   2.055   2.689  0.7380  0.6137  1.0037
 1505TIP3   OH225929   4.384   0.009  11.485  0.4105 -0.5384 -0.1894
 1505TIP3    H125930   4.361  -0.028  11.400 -0.8096  0.3684 -0.2834
 1505TIP3    H225931   4.319   0.077  11.500  1.4956  0.3331  0.8017
 1506TIP3   OH225932   0.169   2.002  10.832 -0.4107 -0.3211 -0.4024
 1506TIP3    H125933   0.111   2.065  10.874 -0.3295  1.4182 -2.6603
 1506TIP3    H225934   0.236   1.982  10.897 -0.7747  1.5221  0.5935
 1507TIP3   OH225935   5.068   1.806  16.280  0.5589  0.3445  0.6059
 1507TIP3    H125936   5.153   1.768  16.302 -0.5745 -1.5574  2.0422
 1507TIP3    H225937   5.027   1.741  16.223  0.8723  2.2899 -2.0440
 1508TIP3   OH225938   1.462   3.114  10.825  0.2702 -0.0811  0.1538
 1508TIP3    H125939   1.399   3.098  10.895  0.1229 -0.0737  0.0237
 1508TIP3    H225940   1.459   3.035  10.772  0.7677 -0.3045  0.4521
 1509TIP3   OH225941   4.177   0.863   4.983  0.5094 -0.3398  0.8895
 1509TIP3    H125942   4.248   0.880   5.046  0.4380 -0.5043  1.0161
 1509TIP3    H225943   4.199   0.916   4.907  2.0164 -2.1161 -0.0002
 1510TIP3   OH225944   4.419   4.638  17.080 -0.4809  0.7494 -0.1727
 1510TIP3    H125945   4.489   4.635  17.015  0.5063 -2.5615  0.7902
 1510TIP3    H225946   4.451   4.700  17.146  0.7319  0.6740 -0.6535
 1511TIP3   OH225947   5.531   3.294   5.348  0.3529 -0.4744 -0.0424
 1511TIP3    H125948   5.581   3.310   5.268  0.9904 -0.8528  0.2741
 1511TIP3    H225949   5.474   3.371   5.356 -1.2898 -1.3830 -1.9961
 1512TIP3   OH225950   2.787   2.433   0.903 -0.1228 -0.1543 -0.2662
 1512TIP3    H125951   2.844   2.434   0.826  0.2283 -0.1357 -0.0096
 1512TIP3    H225952   2.715   2.375   0.879 -1.6487  2.2032 -1.7720
 1513TIP3   OH225953   1.745   5.897   2.568 -0.2568 -0.0148 -0.0352
 1513TIP3    H125954   1.667   5.952   2.568 -1.4912 -1.2770  4.9070
 1513TIP3    H225955   1.817   5.958   2.587 -0.6918  0.6306 -0.4355
 1514TIP3   OH225956   6.556   0.416   5.909 -0.3731  0.6610  0.0033
 1514TIP3    H125957   6.605   0.495   5.932 -0.4996  1.6128 -2.6974
 1514TIP3    H225958   6.585   0.394   5.821 -2.7637 -0.3664 -0.6062
 1515TIP3   OH225959   5.849   2.244  15.936  0.0340  0.5021  0.1149
 1515TIP3    H125960   5.853   2.304  16.011 -0.0224  1.1598 -0.3930
 1515TIP3    H225961   5.758   2.249  15.906  0.1574  0.5727 -0.2564
 1516TIP3   OH225962   1.845   5.650  13.261  0.0638 -0.3285  0.2195
 1516TIP3    H125963   1.881   5.723  13.311 -1.0053  0.8262 -0.6439
 1516TIP3    H225964   1.908   5.578  13.275  0.9662  0.6390  1.3380
 1517TIP3   OH225965   4.142   0.916  17.163 -0.2574  0.3683  0.2184
 1517TIP3    H125966   4.138   1.004  17.199  0.4404  0.4861  0.0323
 1517TIP3    H225967   4.222   0.879  17.201  1.3075  0.9892 -2.2787
 1518TIP3   OH225968   1.467   3.683   3.169 -0.1306  0.7077 -0.5446
 1518TIP3    H125969   1.477   3.684   3.074  0.9605  0.4975 -0.4394
 1518TIP3    H225970   1.466   3.775   3.194 -0.7831  0.7718 -0.7888
 1519TIP3   OH225971   0.914   6.598  14.764  0.4423  0.0511  0.3188
 1519TIP3    H125972   0.917   6.673  14.824  2.8997  0.1058  0.2387
 1519TIP3    H225973   0.910   6.637  14.677  0.3881  0.0551  0.3237
 1520TIP3   OH225974   1.450   4.342   4.269  0.1566  0.1585 -0.0101
 1520TIP3    H125975   1.501   4.261   4.270  0.7343  0.4904 -0.7682
 1520TIP3    H225976   1.366   4.318   4.230  0.1823 -0.1569  0.1313
 1521TIP3   OH225977   5.863   4.447  14.208 -0.0094 -0.1773  0.0883
 1521TIP3    H125978   5.790   4.509  14.203  0.1161  0.0554  0.9882
 1521TIP3    H225979   5.886   4.430  14.116 -1.1258 -0.1862 -0.2024
 1522TIP3   OH225980   2.962   3.536  13.450 -0.2726 -0.2181  0.2765
 1522TIP3    H125981   2.886   3.541  13.392  0.6662  4.5469 -0.9409
 1522TIP3    H225982   3.037   3.554  13.393  0.8497  3.0482  2.4969
 1523TIP3   OH225983   5.256   6.444   0.057 -0.1279 -0.4242  0.3895
 1523TIP3    H125984   5.299   6.363   0.084  0.8477  0.3642  1.3130
 1523TIP3    H225985   5.196   6.465   0.129  1.1630  0.7434  1.1807
 1524TIP3   OH225986   6.148   2.074   4.043  0.0431  0.2261  0.1165
 1524TIP3    H125987   6.158   2.148   4.104 -0.1461 -1.1394  1.8788
 1524TIP3    H225988   6.055   2.077   4.018  0.2253  1.0738 -0.5288
 1525TIP3   OH225989   3.841   5.055   2.423 -0.3656  0.5303 -0.2340
 1525TIP3    H125990   3.790   5.092   2.495  0.1048  1.2516 -0.2647
 1525TIP3    H225991   3.886   4.980   2.461 -0.2458  0.8150  0.1863
 1526TIP3   OH225992   5.125   4.008   6.542 -0.0917 -0.0389 -0.3635
 1526TIP3    H125993   5.068   4.066   6.593 -0.6917  0.7172 -1.8423
 1526TIP3    H225994   5.156   4.062   6.470  2.1893 -0.5745  0.1465
 1527TIP3   OH225995   5.475   5.420   5.582 -0.5016 -0.5206  0.3729
 1527TIP3    H125996   5.485   5.515   5.575  0.6919 -0.6079  0.7301
 1527TIP3    H225997   5.446   5.393   5.495 -1.9044  0.2725  0.5515
 1528TIP3   OH225998   2.023   2.844  13.606 -0.2613 -0.0634 -0.0941
 1528TIP3    H125999   2.020   2.870  13.514 -0.7641  2.5281  0.5713
 1528TIP3    H226000   1.949   2.889  13.646 -0.1037 -1.2081  1.5868
 1529TIP3   OH226001   4.556   6.497   0.921  0.7123  0.1472 -0.1149
 1529TIP3    H126002   4.566   6.406   0.891 -0.3718  0.8033 -2.7261
 1529TIP3    H226003   4.613   6.548   0.864  1.7831  1.1233  1.7212
 1530TIP3   OH226004   6.532   0.101   2.715  0.1448  0.4884  0.3452
 1530TIP3    H126005   6.445   0.141   2.725  0.3751  1.4265 -1.0496
 1530TIP3    H226006   6.568   0.100   2.804 -0.8422  1.1340  0.7754
 1531TIP3   OH226007   0.105   6.713  14.589 -0.1994  0.1996  0.4767
 1531TIP3    H126008   0.196   6.686  14.604  0.0035  0.8672  0.4860
 1531TIP3    H226009   0.055   6.632  14.595  0.4701 -0.2756 -0.1732
 1532TIP3   OH226010   4.964   3.969   2.838 -0.3381 -0.3290 -0.3125
 1532TIP3    H126011   5.026   3.983   2.909 -1.3722  2.2679  0.1822
 1532TIP3    H226012   5.019   3.964   2.759  0.6434 -0.7567  0.3801
 1533TIP3   OH226013   6.170   5.530   3.247 -0.1339 -0.1280  0.1447
 1533TIP3    H126014   6.095   5.476   3.223  0.0328  0.1412 -1.0779
 1533TIP3    H226015   6.134   5.596   3.307 -1.4486  1.4291 -2.1609
 1534TIP3   OH226016   2.802   5.160  11.480 -0.0260  0.2315 -0.1239
 1534TIP3    H126017   2.713   5.136  11.456  0.0062  0.5201 -0.5381
 1534TIP3    H226018   2.852   5.079  11.469 -0.4243 -0.2249  1.1556
 1535TIP3   OH226019   2.812   2.512   3.359 -0.2975  0.7146 -0.9000
 1535TIP3    H126020   2.898   2.474   3.343 -0.4191  0.0775 -0.1565
 1535TIP3    H226021   2.819   2.552   3.445 -1.3553 -1.3550  0.2329
 1536TIP3   OH226022   3.546   1.043   5.147  0.1737  0.1510 -0.6892
 1536TIP3    H126023   3.503   1.099   5.082 -1.4045  0.6509  0.7035
 1536TIP3    H226024   3.567   0.962   5.099 -2.8810 -0.3566 -1.4076
 1537TIP3   OH226025   5.520   3.717   0.850 -0.2815  0.0831  0.2955
 1537TIP3    H126026   5.602   3.679   0.883 -0.8755 -0.3323  1.3169
 1537TIP3    H226027   5.549   3.790   0.796  0.8104 -0.6832 -0.2094
 1538TIP3   OH226028   2.082   0.460  12.915  0.3804  0.4068 -0.0166
 1538TIP3    H126029   2.076   0.474  12.821  0.2414 -1.5016 -0.3244
 1538TIP3    H226030   2.041   0.538  12.953  2.1956  2.1405 -1.4405
 1539TIP3   OH226031   4.646   4.417   4.957  0.2455  0.3483  0.3702
 1539TIP3    H126032   4.709   4.346   4.941 -0.8533 -0.7890  0.8899
 1539TIP3    H226033   4.691   4.496   4.927  1.5680 -0.5418 -0.1057
 1540TIP3   OH226034   4.952   3.074  14.606 -0.4147  0.7045 -0.3018
 1540TIP3    H126035   5.032   3.127  14.601  0.6804 -0.9329 -0.9048
 1540TIP3    H226036   4.981   2.990  14.642 -1.7714 -0.1024 -1.0076
 1541TIP3   OH226037   1.696   5.860   5.363  0.8620 -0.2076 -0.1975
 1541TIP3    H126038   1.614   5.905   5.380  0.5635 -0.2189 -1.5641
 1541TIP3    H226039   1.684   5.773   5.401  0.7665  0.2284  0.8115
 1542TIP3   OH226040   5.896   3.841   3.608  0.0163  0.1515 -0.1839
 1542TIP3    H126041   5.956   3.795   3.550  1.6851  0.5531  1.1453
 1542TIP3    H226042   5.884   3.927   3.568  2.2633  0.9357  0.6797
 1543TIP3   OH226043   1.712   4.938  13.021 -0.5868  0.0075  0.5778
 1543TIP3    H126044   1.667   4.902  13.098 -0.4096  2.1466  1.7559
 1543TIP3    H226045   1.798   4.964  13.054 -0.0138 -0.2131 -0.6772
 1544TIP3   OH226046   1.264   1.583  16.024  0.6278  0.0329 -0.4730
 1544TIP3    H126047   1.191   1.557  15.968 -0.3582  0.1297  0.7183
 1544TIP3    H226048   1.244   1.674  16.048  0.1580 -0.4840  1.2896
 1545TIP3   OH226049   2.618   1.517   5.668 -0.1469 -0.0589  0.0523
 1545TIP3    H126050   2.562   1.441   5.682 -0.3691  0.0769 -0.0902
 1545TIP3    H226051   2.666   1.527   5.750 -1.6927  0.9600  0.8744
 1546TIP3   OH226052   6.303   6.610   1.031  0.1208  0.3471  0.0469
 1546TIP3    H126053   6.361   6.674   0.990 -0.2106 -0.1690 -1.2694
 1546TIP3    H226054   6.252   6.573   0.959 -1.2935  0.2077  1.0738
 1547TIP3   OH226055   0.274   6.290   2.050 -0.0275  0.2902  0.0833
 1547TIP3    H126056   0.351   6.297   2.105 -1.4073  0.7872  2.0610
 1547TIP3    H226057   0.305   6.312   1.962  2.7327 -2.7330  0.1387
 1548TIP3   OH226058   1.268   2.625   5.671 -0.4625 -0.2701 -0.4044
 1548TIP3    H126059   1.193   2.587   5.624 -0.5322 -2.4813  1.3381
 1548TIP3    H226060   1.320   2.550   5.698 -0.2393  0.8605  2.6846
 1549TIP3   OH226061   4.954   5.503  14.824  0.1313  0.4056 -0.6673
 1549TIP3    H126062   4.891   5.431  14.827 -0.3812  0.8700  0.6097
 1549TIP3    H226063   5.035   5.464  14.790  0.1052 -0.9864  0.7737
 1550TIP3   OH226064   2.611   1.129   3.803  1.0395 -0.3371 -0.4502
 1550TIP3    H126065   2.562   1.056   3.840  0.4746 -0.6332 -1.7145
 1550TIP3    H226066   2.669   1.158   3.873  0.5219 -1.3220  0.4035
 1551TIP3   OH226067   1.445   5.642  12.652 -0.0242 -0.3560  0.1150
 1551TIP3    H126068   1.524   5.595  12.681  0.5408  0.4278 -0.1136
 1551TIP3    H226069   1.384   5.573  12.628  1.3535 -0.9979 -1.7637
 1552TIP3   OH226070   4.914   5.680   6.178  0.5616  0.2994  0.3225
 1552TIP3    H126071   4.988   5.740   6.176  1.4571 -0.7417  0.9984
 1552TIP3    H226072   4.887   5.679   6.270  0.9201 -0.7365  0.4286
 1553TIP3   OH226073   4.073   4.410   5.480 -0.4636  0.5927 -0.4083
 1553TIP3    H126074   4.099   4.498   5.453  0.8410 -0.3819 -2.6071
 1553TIP3    H226075   3.981   4.404   5.453  0.2434  0.3539 -3.0343
 1554TIP3   OH226076   0.964   2.164   5.595  0.2596 -0.7285  0.2535
 1554TIP3    H126077   0.882   2.194   5.556  0.5914  1.3854  1.0297
 1554TIP3    H226078   0.937   2.118   5.675 -0.2108 -0.8557  0.0215
 1555TIP3   OH226079   2.602   3.317  10.370 -0.6138 -0.2253  0.0982
 1555TIP3    H126080   2.689   3.296  10.403  0.0912  0.0574 -1.4655
 1555TIP3    H226081   2.616   3.392  10.312 -2.3265  1.5662  1.8357
 1556TIP3   OH226082   5.721   2.181   3.177 -0.5021 -0.8152  0.1890
 1556TIP3    H126083   5.694   2.140   3.260 -0.5848  0.5909  0.8781
 1556TIP3    H226084   5.642   2.178   3.122 -0.4310 -1.8075  0.1226
 1557TIP3   OH226085   5.535   3.853  13.206  0.2287 -0.4108 -0.1565
 1557TIP3    H126086   5.469   3.833  13.274 -3.3507  0.8172 -2.9222
 1557TIP3    H226087   5.538   3.949  13.204 -0.6957 -0.3736 -2.4371
 1558TIP3   OH226088   4.818   1.464   0.804 -0.0958 -0.0222 -0.1480
 1558TIP3    H126089   4.876   1.505   0.740 -0.1871  1.1815  0.5215
 1558TIP3    H226090   4.751   1.420   0.751  1.6506 -1.8807 -0.9631
 1559TIP3   OH226091   4.058   3.804   2.858  0.4093 -0.4686  0.1260
 1559TIP3    H126092   4.051   3.721   2.905 -0.0292 -0.1994  0.5442
 1559TIP3    H226093   4.004   3.793   2.780  0.4122 -0.5997  0.1429
 1560TIP3   OH226094   4.171   0.885  13.278 -0.1632  0.1311  0.3576
 1560TIP3    H126095   4.186   0.865  13.370  0.8601 -0.3231  0.1128
 1560TIP3    H226096   4.231   0.957  13.259  0.5684 -0.6104 -0.2430
 1561TIP3   OH226097   5.887   3.812  10.636  0.1058  0.0069 -0.0286
 1561TIP3    H126098   5.922   3.755  10.568  1.9944  1.3247 -0.2475
 1561TIP3    H226099   5.867   3.894  10.591  0.4467  0.5684  0.8141
 1562TIP3   OH226100   3.449   1.565  13.068  0.1625 -0.5523 -0.8168
 1562TIP3    H126101   3.363   1.573  13.027  0.3877  2.2598 -0.9923
 1562TIP3    H226102   3.432   1.524  13.153 -1.5727  0.8804 -0.4016
 1563TIP3   OH226103   0.630   3.733  11.725 -0.2205  0.5395  0.0102
 1563TIP3    H126104   0.585   3.728  11.641  0.8201 -3.6260 -0.5215
 1563TIP3    H226105   0.562   3.755  11.788 -2.2063 -1.5629 -1.2704
 1564TIP3   OH226106   4.140   3.277  14.192  0.4200  0.3002  0.1415
 1564TIP3    H126107   4.158   3.270  14.286  0.3192  0.0893  0.1461
 1564TIP3    H226108   4.199   3.346  14.162  0.3506  0.4706  0.3873
 1565TIP3   OH226109   1.452   5.447  12.184 -0.3446 -0.5349  0.5068
 1565TIP3    H126110   1.375   5.392  12.199  0.5320 -2.0096 -0.1669
 1565TIP3    H226111   1.525   5.394  12.216  0.2707  1.6731  3.1454
 1566TIP3   OH226112   2.147   3.786   3.624 -0.3715 -0.1073  0.0933
 1566TIP3    H126113   2.203   3.864   3.629  0.7154 -0.9359  1.3954
 1566TIP3    H226114   2.059   3.819   3.642 -0.1990  1.0564 -1.0001
 1567TIP3   OH226115   3.530   0.745   5.266  0.3554 -0.0760  0.4785
 1567TIP3    H126116   3.444   0.778   5.242  0.2832 -0.1623  0.6214
 1567TIP3    H226117   3.553   0.793   5.345  0.9256  0.7688 -0.1796
 1568TIP3   OH226118   6.195   4.442   1.589  0.0137  0.7829 -0.5731
 1568TIP3    H126119   6.128   4.493   1.634  1.1706  0.4256  1.6841
 1568TIP3    H226120   6.278   4.481   1.617  0.8260 -0.0404 -1.7137
 1569TIP3   OH226121   5.048   5.866  17.304  0.1308 -0.4622  0.2338
 1569TIP3    H126122   5.084   5.923  17.236  0.6732 -0.8993  0.1521
 1569TIP3    H226123   4.955   5.888  17.306  0.0699 -0.5870 -0.7748
 1570TIP3   OH226124   1.294   1.846  16.371 -0.0810  0.6723  0.4109
 1570TIP3    H126125   1.251   1.856  16.287  2.1864  0.3300 -0.8697
 1570TIP3    H226126   1.268   1.759  16.402  0.7819 -0.1298 -1.0199
 1571TIP3   OH226127   5.343   1.279   1.082  0.4671 -0.1196  0.2832
 1571TIP3    H126128   5.427   1.233   1.077  0.4307 -0.4657  2.1337
 1571TIP3    H226129   5.281   1.212   1.112 -0.3300  0.3058 -0.3777
 1572TIP3   OH226130   4.963   2.447   4.358  0.0322  0.4074 -0.1002
 1572TIP3    H126131   4.987   2.361   4.394 -1.6869 -0.5525 -1.1066
 1572TIP3    H226132   4.880   2.468   4.401 -1.2039  0.0191 -2.1516
 1573TIP3   OH226133   0.338   4.882   4.145 -0.4484 -0.4405  0.6492
 1573TIP3    H126134   0.298   4.964   4.115  0.8416  0.6568  1.7439
 1573TIP3    H226135   0.431   4.893   4.124 -0.3218 -1.8406  0.4197
 1574TIP3   OH226136   0.702   0.610  16.152 -0.2511 -0.3034  0.1479
 1574TIP3    H126137   0.786   0.578  16.186 -0.1316 -0.0768  0.0645
 1574TIP3    H226138   0.637   0.566  16.207 -0.0981 -0.8584 -0.1010
 1575TIP3   OH226139   2.902   3.130   4.138  0.4134 -0.8301  0.7623
 1575TIP3    H126140   2.830   3.091   4.090  0.7570 -0.0231 -0.4738
 1575TIP3    H226141   2.979   3.112   4.084  1.0776 -1.3268  1.8557
 1576TIP3   OH226142   4.390   5.802  14.524 -0.0449 -0.3488  0.2561
 1576TIP3    H126143   4.303   5.821  14.489  0.6762 -0.3737 -1.7065
 1576TIP3    H226144   4.382   5.714  14.561 -0.6327 -0.7330 -0.7395
 1577TIP3   OH226145   3.158   1.440  13.681 -0.3488 -0.1526 -0.1263
 1577TIP3    H126146   3.215   1.504  13.722  0.7643 -1.4340  0.4084
 1577TIP3    H226147   3.202   1.416  13.600 -0.1185 -1.1097  0.2609
 1578TIP3   OH226148   4.279   0.755  14.787  0.1506  0.1216  0.4905
 1578TIP3    H126149   4.254   0.734  14.876 -1.2736 -0.1531  0.0528
 1578TIP3    H226150   4.358   0.703  14.771 -0.4951 -1.0900  1.0723
 1579TIP3   OH226151   1.020   0.948   1.177  0.0631  0.2007 -0.1065
 1579TIP3    H126152   1.024   1.011   1.249  0.9042  1.1829 -0.9803
 1579TIP3    H226153   0.927   0.923   1.172 -0.1955  0.9958  0.5659
 1580TIP3   OH226154   3.304   0.321  12.396  0.2701 -0.2504  0.6103
 1580TIP3    H126155   3.321   0.399  12.450  0.5788  0.7879 -0.9254
 1580TIP3    H226156   3.350   0.338  12.314 -1.8496 -0.8163 -0.7895
 1581TIP3   OH226157   5.917   4.371   0.585  0.2707 -0.7127 -0.3344
 1581TIP3    H126158   5.948   4.461   0.575  1.4054 -0.9619  0.6333
 1581TIP3    H226159   5.958   4.341   0.666 -2.8042 -1.0096  1.2608
 1582TIP3   OH226160   6.218   1.841   4.795 -0.1889 -0.5379 -0.1181
 1582TIP3    H126161   6.162   1.764   4.805 -3.3944  1.1470 -3.0125
 1582TIP3    H226162   6.188   1.902   4.862 -0.4527 -0.3933 -0.3623
 1583TIP3   OH226163   0.592   5.678   6.429 -0.5967  0.7909  0.0116
 1583TIP3    H126164   0.677   5.712   6.401 -1.7410  3.2401 -0.8438
 1583TIP3    H226165   0.590   5.694   6.524 -0.7569  2.4304 -0.2405
 1584TIP3   OH226166   4.586   2.344  14.499  0.0128 -0.5133 -0.2685
 1584TIP3    H126167   4.633   2.424  14.474 -0.9297  0.5921  1.2967
 1584TIP3    H226168   4.654   2.281  14.518  0.9322  0.9815  1.7399
 1585TIP3   OH226169   6.655   5.111  12.678  0.6533 -0.0487  0.4969
 1585TIP3    H126170   6.730   5.064  12.641 -0.3719  0.9127 -3.1250
 1585TIP3    H226171   6.668   5.202  12.652 -1.7773  0.1287 -0.3722
 1586TIP3   OH226172   1.761   5.839  14.865 -0.0826  0.2908  0.9674
 1586TIP3    H126173   1.757   5.744  14.874  0.5976  0.3371  1.9051
 1586TIP3    H226174   1.672   5.864  14.838 -0.0406 -0.6782 -0.1867
 1587TIP3   OH226175   1.672   3.124   5.934  0.5021  0.5086 -0.0374
 1587TIP3    H126176   1.649   3.208   5.974  0.7971  0.1339  0.9577
 1587TIP3    H226177   1.592   3.095   5.891  0.7246  1.8660 -1.4680
 1588TIP3   OH226178   2.677   4.246   3.376 -0.3833  0.5697  0.0134
 1588TIP3    H126179   2.624   4.240   3.297 -1.0280  1.0154  0.4083
 1588TIP3    H226180   2.676   4.157   3.412 -2.7518  1.0311  1.2196
 1589TIP3   OH226181   1.865   4.921   3.462 -0.3995 -0.2151 -0.4833
 1589TIP3    H126182   1.798   4.976   3.502  0.6590  0.4439  0.4373
 1589TIP3    H226183   1.915   4.979   3.405  0.2947 -0.3520 -0.0360
 1590TIP3   OH226184   5.336   0.672   2.939 -0.0572 -0.1693  0.7945
 1590TIP3    H126185   5.240   0.682   2.936 -0.0517 -0.2192 -1.8719
 1590TIP3    H226186   5.370   0.760   2.928  0.2400 -0.1540  1.7238
 1591TIP3   OH226187   3.864   2.590  15.737  0.0275 -0.3049 -0.0421
 1591TIP3    H126188   3.912   2.634  15.808  0.5869 -2.5269  1.0519
 1591TIP3    H226189   3.776   2.578  15.772 -0.2774  0.3845 -0.5524
 1592TIP3   OH226190   2.790   2.567  11.652  0.1615  0.0225 -0.6389
 1592TIP3    H126191   2.721   2.516  11.609 -1.1901  0.4418  0.9348
 1592TIP3    H226192   2.827   2.621  11.582 -0.3956 -0.9444 -1.7253
 1593TIP3   OH226193   0.229   1.852   0.178 -0.1362  0.5399  0.4819
 1593TIP3    H126194   0.198   1.888   0.095 -1.3473 -1.0598  0.1795
 1593TIP3    H226195   0.149   1.828   0.225  0.4990 -2.6779  0.1637
 1594TIP3   OH226196   2.741   5.202   3.670  0.4762  0.3983  0.3717
 1594TIP3    H126197   2.794   5.277   3.642  2.7236 -1.4510 -0.6705
 1594TIP3    H226198   2.654   5.221   3.635  1.2622  1.9607 -0.9184
 1595TIP3   OH226199   2.886   2.111   1.342 -0.3542 -0.5914 -0.1847
 1595TIP3    H126200   2.937   2.045   1.296  1.2182 -0.0182  0.6549
 1595TIP3    H226201   2.839   2.157   1.273  0.5197 -0.9418 -1.0379
 1596TIP3   OH226202   1.070   5.028  15.987  0.1284  0.6599 -0.1987
 1596TIP3    H126203   1.084   5.083  15.910 -1.2340 -0.2355 -1.1330
 1596TIP3    H226204   1.019   5.084  16.047  0.4195  1.0518 -0.3093
 1597TIP3   OH226205   1.399   4.409  16.345 -0.6572 -0.2137 -0.0302
 1597TIP3    H126206   1.409   4.499  16.314 -0.8818 -0.2854 -0.3089
 1597TIP3    H226207   1.430   4.412  16.436  0.6502 -0.1416 -0.4476
 1598TIP3   OH226208   4.619   4.866  11.743  0.0810 -0.4293 -0.0344
 1598TIP3    H126209   4.610   4.954  11.707  0.0978 -0.0372  0.8729
 1598TIP3    H226210   4.573   4.809  11.682 -0.1607  0.2501 -0.4890
 1599TIP3   OH226211   1.355   2.260  13.267  0.7710  0.6402 -0.3291
 1599TIP3    H126212   1.353   2.223  13.355  0.7235  1.1453 -0.1130
 1599TIP3    H226213   1.279   2.223  13.223  1.5511 -0.6939 -0.6108
 1600TIP3   OH226214   4.219   3.771  16.099  0.2853 -0.0734  0.2663
 1600TIP3    H126215   4.181   3.805  16.019 -0.7470  2.5747  1.7487
 1600TIP3    H226216   4.148   3.721  16.140  0.8500 -1.5330 -0.4494
 1601TIP3   OH226217   0.760   1.066   4.965  0.1343  0.4785  0.3953
 1601TIP3    H126218   0.697   1.131   4.997  1.7587  1.1724  2.4583
 1601TIP3    H226219   0.810   1.113   4.898  0.5637  1.0030  1.0740
 1602TIP3   OH226220   4.375   2.804  17.050  0.5653 -0.0429 -0.1009
 1602TIP3    H126221   4.389   2.800  16.956  0.2840 -0.1179 -0.1399
 1602TIP3    H226222   4.328   2.724  17.071  1.8704 -0.7247  0.3243
 1603TIP3   OH226223   6.489   1.890   3.588 -0.2130 -0.4589  0.4496
 1603TIP3    H126224   6.534   1.810   3.616 -0.6206 -0.6701  0.5153
 1603TIP3    H226225   6.444   1.920   3.667 -0.3422 -0.3571  0.3366
 1604TIP3   OH226226   4.399   5.853   3.723  0.2561  0.3227 -0.1205
 1604TIP3    H126227   4.413   5.823   3.633 -1.6453  0.6599 -0.5880
 1604TIP3    H226228   4.342   5.930   3.714 -0.1590  0.2295  1.3730
 1605TIP3   OH226229   2.800   1.046  11.431  0.2087 -0.5180  0.9837
 1605TIP3    H126230   2.756   1.127  11.455  1.2015 -0.4006  2.5880
 1605TIP3    H226231   2.729   0.985  11.411 -0.5486  0.8143 -0.6624
 1606TIP3   OH226232   4.621   5.168   0.484  0.1982  0.5296 -0.1294
 1606TIP3    H126233   4.549   5.151   0.545  0.4537  0.0770  0.0519
 1606TIP3    H226234   4.685   5.217   0.536  0.6844 -0.3807  0.1525
 1607TIP3   OH226235   0.854   6.336  14.757 -0.0338 -0.2782 -0.2688
 1607TIP3    H126236   0.889   6.424  14.755  0.6876 -0.5108  1.0264
 1607TIP3    H226237   0.922   6.282  14.717  0.0802 -0.4070  0.0917
 1608TIP3   OH226238   5.511   1.779   0.163  0.0096  0.1094 -0.1748
 1608TIP3    H126239   5.464   1.740   0.237  1.2000 -0.5698  0.2464
 1608TIP3    H226240   5.584   1.719   0.147  0.0901  0.5535 -1.5428
 1609TIP3   OH226241   2.255   0.808  12.188  0.4761  0.7895 -0.2064
 1609TIP3    H126242   2.201   0.887  12.177  2.4577  2.7455  2.7442
 1609TIP3    H226243   2.240   0.781  12.279  1.5355 -0.9427 -0.4981
 1610TIP3   OH226244   1.420   4.940  12.026 -0.4320 -0.3932 -0.7278
 1610TIP3    H126245   1.350   4.894  12.072 -0.6443  1.8651  1.3790
 1610TIP3    H226246   1.378   4.972  11.946 -1.9490  1.1804  0.6414
 1611TIP3   OH226247   1.847   0.206   0.991 -0.0025 -0.0415 -0.0287
 1611TIP3    H126248   1.767   0.212   0.939  0.1851  0.2632 -0.2811
 1611TIP3    H226249   1.908   0.266   0.949  0.5017 -0.5886 -0.0877
 1612TIP3   OH226250   6.579   5.153  16.536  0.4359 -0.3937  1.1746
 1612TIP3    H126251   6.530   5.183  16.612 -0.1285 -0.9487  1.0315
 1612TIP3    H226252   6.668   5.188  16.550 -0.0312  0.7735  1.3314
 1613TIP3   OH226253   0.199   0.051   3.579  0.5176  0.1422  0.1656
 1613TIP3    H126254   0.111   0.016   3.587  1.4069 -2.0257  0.9903
 1613TIP3    H226255   0.234   0.010   3.500  0.1703  2.5862 -1.3802
 1614TIP3   OH226256   3.136   2.527   2.084 -0.3020 -0.1429 -0.4857
 1614TIP3    H126257   3.121   2.520   1.989  1.5066 -1.1560 -0.7516
 1614TIP3    H226258   3.121   2.439   2.117 -0.7040  0.1604  0.1535
 1615TIP3   OH226259   3.489   1.075  13.407  0.1670 -0.1316  0.3192
 1615TIP3    H126260   3.417   1.017  13.432 -1.7951  2.2499  0.6284
 1615TIP3    H226261   3.513   1.047  13.319 -0.6596 -1.4263  0.4830
 1616TIP3   OH226262   4.662   2.575  16.317  0.7284  0.7245 -0.0234
 1616TIP3    H126263   4.736   2.518  16.297 -0.6932 -0.4439 -2.4551
 1616TIP3    H226264   4.633   2.607  16.231 -2.4224 -0.0143  0.6528
 1617TIP3   OH226265   2.812   1.160  14.660  0.3834 -0.2319  0.5626
 1617TIP3    H126266   2.748   1.148  14.590  0.1591 -1.5816  0.9764
 1617TIP3    H226267   2.882   1.097  14.639  0.2294 -0.7701  1.6406
 1618TIP3   OH226268   0.627   1.389   1.932  0.3137 -0.1357 -0.2643
 1618TIP3    H126269   0.600   1.400   2.024  0.0242 -0.9985 -0.2409
 1618TIP3    H226270   0.623   1.478   1.896 -1.2917 -0.0356  0.0901
 1619TIP3   OH226271   0.378   3.278  11.454  0.2170 -0.4548 -0.0373
 1619TIP3    H126272   0.319   3.206  11.477  0.1110 -0.1488  0.6927
 1619TIP3    H226273   0.420   3.250  11.373 -0.8824 -0.7112 -0.5406
 1620TIP3   OH226274   6.367   4.766   1.169  0.1570  0.3623  0.2862
 1620TIP3    H126275   6.302   4.823   1.210  0.4699 -0.0143  1.3349
 1620TIP3    H226276   6.397   4.815   1.093 -0.9764  0.7668  0.0704
 1621TIP3   OH226277   6.150   0.890   3.236  0.0307  0.2100 -0.7001
 1621TIP3    H126278   6.078   0.864   3.179 -1.9520  3.2219  0.2487
 1621TIP3    H226279   6.170   0.980   3.210  0.5002  0.9248  1.8927
 1622TIP3   OH226280   2.003   4.801   6.455  0.8212  0.2549  0.0096
 1622TIP3    H126281   1.971   4.727   6.507  1.7250 -0.1144  0.0697
 1622TIP3    H226282   1.989   4.877   6.511 -1.0183  0.2951 -0.4370
 1623TIP3   OH226283   4.671   5.844  11.680 -0.3040 -0.0882  0.0091
 1623TIP3    H126284   4.755   5.868  11.641 -1.1164  3.2933 -0.0091
 1623TIP3    H226285   4.693   5.782  11.750  1.9069 -0.9807 -1.3793
 1624TIP3   OH226286   3.021   4.302  16.055 -0.3766  0.4326  0.5761
 1624TIP3    H126287   2.979   4.219  16.031  3.1215 -1.5449  0.6117
 1624TIP3    H226288   2.976   4.368  16.002 -0.9346 -2.0001 -2.2622
 1625TIP3   OH226289   3.672   3.817  12.757  0.5588  0.1536  0.0474
 1625TIP3    H126290   3.743   3.782  12.811  0.4903  0.1327  0.1241
 1625TIP3    H226291   3.699   3.800  12.667  0.7211  0.2790  0.0721
 1626TIP3   OH226292   2.508   3.550  14.086  0.3389 -0.0256  0.4398
 1626TIP3    H126293   2.514   3.456  14.070  1.1775 -0.4386  2.7272
 1626TIP3    H226294   2.414   3.568  14.083  0.0491 -1.2289  1.2144
 1627TIP3   OH226295   1.209   5.341  16.293 -0.6128 -0.0073  0.0955
 1627TIP3    H126296   1.273   5.302  16.234 -0.7355  1.8220 -1.3621
 1627TIP3    H226297   1.143   5.379  16.235 -1.5465  0.5753  1.4753
 1628TIP3   OH226298   5.113   6.151   3.478  0.3855  0.0067  0.0839
 1628TIP3    H126299   5.173   6.111   3.540 -1.6836 -1.1969  1.4128
 1628TIP3    H226300   5.095   6.082   3.413  0.1105  0.1978 -0.0496
 1629TIP3   OH226301   0.683   3.295   4.932 -0.3299  0.2529  0.2614
 1629TIP3    H126302   0.745   3.241   4.981  1.0756 -0.8808 -2.5475
 1629TIP3    H226303   0.700   3.384   4.962  0.5275 -0.3588  1.7072
 1630TIP3   OH226304   3.213   6.742  15.613  0.1463  0.4648 -0.5415
 1630TIP3    H126305   3.256   6.806  15.670 -0.2573  0.2062  0.0547
 1630TIP3    H226306   3.254   6.659  15.635  0.1082  0.3884 -0.7559
 1631TIP3   OH226307   6.331   2.948  14.621 -0.0971  0.5878  0.5982
 1631TIP3    H126308   6.248   2.996  14.623  0.0475  0.8562  0.2970
 1631TIP3    H226309   6.308   2.861  14.590 -0.4257  0.3286  1.5411
 1632TIP3   OH226310   0.611   4.790  13.871  0.1775 -0.3180 -0.1590
 1632TIP3    H126311   0.519   4.798  13.844 -0.2057  0.1486  1.1950
 1632TIP3    H226312   0.606   4.773  13.965  1.4435 -2.0012 -0.3473
 1633TIP3   OH226313   3.729   6.596   4.305  0.4091  0.1383  0.1884
 1633TIP3    H126314   3.807   6.541   4.297  0.1969  0.0935 -2.2129
 1633TIP3    H226315   3.689   6.593   4.218  0.1079  3.6433  0.0734
 1634TIP3   OH226316   4.726   6.504  15.264  0.5494  0.3025  0.1226
 1634TIP3    H126317   4.651   6.532  15.317  0.2649  1.0493 -0.6420
 1634TIP3    H226318   4.749   6.418  15.298 -0.7379  0.0094  0.3092
 1635TIP3   OH226319   3.865   4.938   4.082  0.2273 -0.2598  0.1518
 1635TIP3    H126320   3.914   5.006   4.036  0.7388  0.8961  2.2874
 1635TIP3    H226321   3.913   4.857   4.062  0.2824  0.1348 -1.4770
 1636TIP3   OH226322   6.564   4.245  17.318 -0.4896 -0.1376 -0.0601
 1636TIP3    H126323   6.531   4.242  17.228 -2.1867 -0.0611  0.5311
 1636TIP3    H226324   6.639   4.304  17.314  1.3174 -2.3369 -1.9634
 1637TIP3   OH226325   1.896   2.070   5.439  0.1979 -0.2531 -0.1328
 1637TIP3    H126326   1.928   2.012   5.508  0.9815  1.3156  0.8874
 1637TIP3    H226327   1.973   2.122   5.414 -0.7127  1.1638 -0.1276
 1638TIP3   OH226328   6.225   2.454   2.077  0.1923  0.3614 -0.1893
 1638TIP3    H126329   6.171   2.494   2.009 -0.0792  0.4842  0.0955
 1638TIP3    H226330   6.167   2.445   2.152  0.3298 -0.3208 -0.1577
 1639TIP3   OH226331   1.807   2.511  15.424 -0.2432 -0.2772  0.5101
 1639TIP3    H126332   1.784   2.502  15.331 -0.1013  1.1024  0.3176
 1639TIP3    H226333   1.894   2.551  15.423 -1.7554  3.5142  1.1146
 1640TIP3   OH226334   4.429   3.525   4.913  0.0475  0.4308 -0.1216
 1640TIP3    H126335   4.444   3.612   4.951 -0.6874  0.3305  0.4043
 1640TIP3    H226336   4.471   3.530   4.827  1.8355  0.6192  0.7226
 1641TIP3   OH226337   2.295   0.783  11.127 -0.0488 -0.1706 -0.0737
 1641TIP3    H126338   2.269   0.752  11.214  0.0750  0.6624  0.2680
 1641TIP3    H226339   2.244   0.730  11.066 -0.4854 -0.4377  0.5184
 1642TIP3   OH226340   2.424   1.675  11.413  0.0166  0.2056 -0.1932
 1642TIP3    H126341   2.394   1.624  11.488 -0.0299  1.5810  0.7670
 1642TIP3    H226342   2.466   1.611  11.355 -1.6954 -1.2080  0.0439
 1643TIP3   OH226343   2.054   0.080  13.677 -0.1067 -0.7864 -0.0081
 1643TIP3    H126344   2.119   0.041  13.618  0.8997  0.5569  0.1625
 1643TIP3    H226345   2.043   0.169  13.643 -1.7448 -0.9307  0.0830
 1644TIP3   OH226346   6.744   5.447  11.667  0.3710  0.2876 -0.3588
 1644TIP3    H126347   6.735   5.356  11.695  1.0982 -0.1692 -1.5401
 1644TIP3    H226348   6.775   5.441  11.576  0.8719  1.7155 -0.3040
 1645TIP3   OH226349   1.724   0.570   2.716  0.3392  0.8877  0.1705
 1645TIP3    H126350   1.792   0.633   2.693  1.3981 -0.4852 -0.5606
 1645TIP3    H226351   1.735   0.557   2.811 -0.2543  2.1794  0.4409
 1646TIP3   OH226352   0.409   4.820  14.280 -0.0794 -0.5080  0.0095
 1646TIP3    H126353   0.372   4.734  14.303  1.0152 -0.5277  1.8629
 1646TIP3    H226354   0.351   4.853  14.212 -1.1092 -2.2918 -0.0507
 1647TIP3   OH226355   0.577   4.949   3.370 -0.0761  0.4616  0.3750
 1647TIP3    H126356   0.497   4.917   3.328 -0.8978  0.6043  1.7541
 1647TIP3    H226357   0.633   4.872   3.377 -0.8595 -0.0710  1.0482
 1648TIP3   OH226358   4.365   1.918   1.686  0.4067  0.2411 -0.0260
 1648TIP3    H126359   4.401   1.937   1.773 -0.7301 -0.0631  0.5175
 1648TIP3    H226360   4.342   2.004   1.650 -0.2570  0.2803  0.4769
 1649TIP3   OH226361   6.127   0.853   5.661 -0.1639  0.4170 -0.1273
 1649TIP3    H126362   6.161   0.914   5.596 -0.4267  2.2783  1.3780
 1649TIP3    H226363   6.074   0.791   5.611  1.9856 -0.0204 -2.0081
 1650TIP3   OH226364   3.202   2.757  11.835 -0.1011  0.2161  0.0837
 1650TIP3    H126365   3.208   2.792  11.746  0.6112  0.1255  0.0910
 1650TIP3    H226366   3.209   2.835  11.891  0.3091  0.1901  0.0736
 1651TIP3   OH226367   5.894   5.999   4.126  0.4789  0.1969 -0.3107
 1651TIP3    H126368   5.836   5.958   4.062  1.4484  1.4847 -2.1185
 1651TIP3    H226369   5.835   6.038   4.190 -0.6277  0.2799 -1.3342
 1652TIP3   OH226370   6.557   0.863   0.586 -0.0850  0.5488  0.6733
 1652TIP3    H126371   6.488   0.844   0.650 -0.0324  1.7303  1.1110
 1652TIP3    H226372   6.521   0.835   0.502 -1.0750  1.0858  0.9053
 1653TIP3   OH226373   0.890   0.053  14.922 -0.4820 -0.0055  0.2329
 1653TIP3    H126374   0.861   0.135  14.960 -0.2635  0.0276  0.3315
 1653TIP3    H226375   0.978   0.071  14.890 -0.3430 -0.2602  0.4593
 1654TIP3   OH226376   2.333   3.238   4.182  0.3698 -0.7253 -0.2056
 1654TIP3    H126377   2.381   3.255   4.101  0.5308  1.4089  0.2862
 1654TIP3    H226378   2.400   3.210   4.245  0.5112 -0.6348 -0.3163
 1655TIP3   OH226379   2.077   3.805   5.682 -0.1779 -0.2895  0.6297
 1655TIP3    H126380   2.165   3.772   5.695  0.1758  0.6272  0.6341
 1655TIP3    H226381   2.038   3.745   5.618  0.7474 -0.1951 -0.0513
 1656TIP3   OH226382   0.371   6.183  14.082 -0.3065 -0.2184  0.3686
 1656TIP3    H126383   0.459   6.174  14.118  0.9393 -0.6959 -2.5147
 1656TIP3    H226384   0.364   6.276  14.059 -0.3555 -0.2774  0.1431
 1657TIP3   OH226385   4.361   1.791   0.662  0.0355 -0.1157  0.1716
 1657TIP3    H126386   4.455   1.779   0.678 -0.1306 -0.5340  0.8602
 1657TIP3    H226387   4.324   1.809   0.748 -0.4200  0.7709 -0.1919
 1658TIP3   OH226388   0.691   0.056  16.545  0.0168  0.2799 -0.6275
 1658TIP3    H126389   0.734   0.007  16.476 -0.0670  0.3850 -0.7531
 1658TIP3    H226390   0.633  -0.007  16.588  1.5201 -0.3412  0.6384
 1659TIP3   OH226391   6.320   3.985  13.097 -0.1699 -0.3633  0.0703
 1659TIP3    H126392   6.362   3.899  13.097 -0.6484 -0.6115 -0.6020
 1659TIP3    H226393   6.391   4.047  13.112  0.0872 -0.9081  1.1934
 1660TIP3   OH226394   6.369   4.290   2.652  0.5985  0.4976  0.0754
 1660TIP3    H126395   6.459   4.288   2.683  0.0635 -0.5827  1.7188
 1660TIP3    H226396   6.367   4.360   2.588  2.7803  0.0335 -0.5876
 1661TIP3   OH226397   5.918   3.946  13.715  0.5971  0.5875 -0.8422
 1661TIP3    H126398   5.974   4.001  13.769 -0.5263  0.7329  0.2347
 1661TIP3    H226399   5.862   3.900  13.778 -0.5808  0.5559 -1.8699
 1662TIP3   OH226400   6.469   0.740  16.234 -0.4487  0.1029  0.0041
 1662TIP3    H126401   6.519   0.818  16.210  1.7467 -0.6587  1.8456
 1662TIP3    H226402   6.534   0.676  16.263 -2.3585 -1.5828  0.8686
 1663TIP3   OH226403   2.556   4.390   6.459  0.6250 -0.0792 -0.1817
 1663TIP3    H126404   2.519   4.306   6.487  1.0535 -0.0683  0.4424
 1663TIP3    H226405   2.556   4.444   6.538  1.6072  0.0513 -0.2541
 1664TIP3   OH226406   5.134   6.561  12.346 -0.2639 -0.5219  0.4668
 1664TIP3    H126407   5.161   6.615  12.272 -2.5700 -0.9720 -0.8031
 1664TIP3    H226408   5.189   6.590  12.418  0.3630  1.6970 -0.8098
 1665TIP3   OH226409   3.314   3.615  12.439  0.4278 -0.2279  0.2275
 1665TIP3    H126410   3.357   3.663  12.368  0.5908 -0.3227  0.2612
 1665TIP3    H226411   3.384   3.564  12.479  0.3619 -0.0745  0.5417
 1666TIP3   OH226412   2.759   2.800  13.385 -0.6990 -0.2961 -0.4694
 1666TIP3    H126413   2.774   2.888  13.351 -1.3500 -0.0739 -0.1915
 1666TIP3    H226414   2.701   2.759  13.322 -1.3377 -0.1238 -0.0007
 1667TIP3   OH226415   5.555   2.776  13.807 -0.2333 -0.9354  0.5513
 1667TIP3    H126416   5.641   2.790  13.767 -0.0533 -1.2714  0.8108
 1667TIP3    H226417   5.509   2.859  13.796  0.7567 -0.1596  1.9564
 1668TIP3   OH226418   1.268   2.062   3.752  0.0201  0.3292 -0.0461
 1668TIP3    H126419   1.331   2.068   3.680  0.7620  0.3684  0.5865
 1668TIP3    H226420   1.320   2.080   3.830  0.4120 -4.5029  1.1061
 1669TIP3   OH226421   3.633   5.093  12.231  0.2496  0.3921  0.0458
 1669TIP3    H126422   3.571   5.044  12.286  0.2699 -0.3649 -0.5822
 1669TIP3    H226423   3.607   5.184  12.243 -0.4613  0.1566  0.4408
 1670TIP3   OH226424   3.413   6.243   2.080 -0.2361  0.0253  0.1686
 1670TIP3    H126425   3.413   6.249   2.176 -0.6027  0.6352  0.1372
 1670TIP3    H226426   3.449   6.327   2.052  0.9919 -0.5978 -0.2164
 1671TIP3   OH226427   3.233   2.679  13.312  0.4810 -0.3839  0.2323
 1671TIP3    H126428   3.225   2.752  13.250  0.4034  2.3774  3.2175
 1671TIP3    H226429   3.143   2.654  13.332  0.5110 -1.7406 -1.1638
 1672TIP3   OH226430   1.296   0.391  15.016  0.1356 -0.1200  0.1921
 1672TIP3    H126431   1.351   0.349  14.950  0.3870  1.2765 -0.5374
 1672TIP3    H226432   1.331   0.480  15.023 -0.7498  0.1718  1.2306
 1673TIP3   OH226433   0.702   3.802   1.306  0.2117  0.3382 -0.6893
 1673TIP3    H126434   0.641   3.875   1.295 -1.7154 -1.1936 -0.7046
 1673TIP3    H226435   0.733   3.783   1.217 -0.8259 -0.1136 -0.9643
 1674TIP3   OH226436   1.937   0.040   1.191 -0.1036  0.6259 -0.1583
 1674TIP3    H126437   1.930   0.099   1.117  1.3546  0.2519 -0.6325
 1674TIP3    H226438   1.874  -0.030   1.173  0.1006  0.6437 -0.9574
 1675TIP3   OH226439   3.223   4.410  17.287 -0.0149  0.3995  0.6475
 1675TIP3    H126440   3.162   4.484  17.297 -0.6032 -0.1234  0.9770
 1675TIP3    H226441   3.307   4.445  17.317 -0.1752  1.0854  0.3340
 1676TIP3   OH226442   2.537   0.453   4.050  0.0448 -0.5261 -0.3900
 1676TIP3    H126443   2.631   0.436   4.043 -0.0053 -0.3872 -1.6007
 1676TIP3    H226444   2.505   0.450   3.959 -1.2391 -1.2741  0.0527
 1677TIP3   OH226445   6.353   1.214   0.740 -0.5627  0.1555 -0.0664
 1677TIP3    H126446   6.383   1.219   0.649  0.2681 -0.1772  0.1759
 1677TIP3    H226447   6.422   1.258   0.789 -2.2206  2.6438  0.1694
 1678TIP3   OH226448   5.626   4.231   0.789  0.0809 -0.4114 -0.1553
 1678TIP3    H126449   5.539   4.248   0.827 -0.0965  0.7060 -1.0214
 1678TIP3    H226450   5.626   4.279   0.707  2.3146  1.4438  0.8347
 1679TIP3   OH226451   0.062   1.114  10.807 -0.6299 -0.8620  0.1160
 1679TIP3    H126452   0.078   1.141  10.717  0.4775 -1.8906 -0.0308
 1679TIP3    H226453  -0.033   1.114  10.816 -0.7250  0.0436 -0.7920
 1680TIP3   OH226454   1.294   2.284  15.735 -0.3863  0.8340 -0.0557
 1680TIP3    H126455   1.235   2.245  15.800 -0.4257 -0.2295 -0.6936
 1680TIP3    H226456   1.356   2.336  15.786  0.5852 -1.2392  1.0316
 1681TIP3   OH226457   4.524   2.379   5.122 -0.3460  0.0292 -0.1479
 1681TIP3    H126458   4.462   2.364   5.194  0.5025 -0.2125  0.5590
 1681TIP3    H226459   4.584   2.445   5.157 -0.3312  0.4182 -0.9029
 1682TIP3   OH226460   0.457   2.280   5.439 -0.5337  0.3214 -0.7752
 1682TIP3    H126461   0.518   2.258   5.369 -0.3870  1.0706 -0.8918
 1682TIP3    H226462   0.380   2.315   5.394 -0.2777  1.1964 -0.5630
 1683TIP3   OH226463   1.775   5.781  11.043 -0.0202 -0.1055  0.3080
 1683TIP3    H126464   1.751   5.785  10.951  0.0173 -0.9099  0.2497
 1683TIP3    H226465   1.827   5.700  11.051 -0.5543 -0.3875  1.1427
 1684TIP3   OH226466   5.336   4.291  15.773 -0.0430  0.4503  0.1085
 1684TIP3    H126467   5.251   4.311  15.811  0.4321  1.2391  0.7726
 1684TIP3    H226468   5.395   4.355  15.811  0.4219  1.4336 -2.1256
 1685TIP3   OH226469   3.116   0.544   4.732  0.1278 -0.6203  0.8545
 1685TIP3    H126470   3.111   0.570   4.824 -1.5743  0.8054  0.4240
 1685TIP3    H226471   3.028   0.559   4.698  0.4691 -2.0271 -0.7989
 1686TIP3   OH226472   1.965   4.725  11.241  0.0793 -0.1851 -0.1369
 1686TIP3    H126473   1.956   4.800  11.183  1.9688 -0.0157 -0.2517
 1686TIP3    H226474   1.985   4.652  11.183 -0.8381 -0.6108  0.0636
 1687TIP3   OH226475   1.323   3.930   0.145 -0.5147 -0.2723  0.0025
 1687TIP3    H126476   1.401   3.987   0.149 -0.8753  0.1396  1.5195
 1687TIP3    H226477   1.346   3.854   0.198 -0.1974 -1.4169 -1.6787
 1688TIP3   OH226478   2.051   5.831   0.595  0.2202  0.2813 -0.0584
 1688TIP3    H126479   2.022   5.781   0.671 -0.5503  1.2442  0.2988
 1688TIP3    H226480   2.060   5.921   0.627  1.8460  0.3528 -0.6136
 1689TIP3   OH226481   4.581   2.058  14.038  0.4353  0.5238 -0.0169
 1689TIP3    H126482   4.590   1.980  14.093  1.0543  0.7155  0.1632
 1689TIP3    H226483   4.613   2.031  13.952 -0.7014  0.1717 -0.3507
 1690TIP3   OH226484   3.924   5.704  11.295  0.2651 -0.1650  0.1019
 1690TIP3    H126485   4.018   5.702  11.278  0.1605  1.1858 -0.7562
 1690TIP3    H226486   3.902   5.797  11.299 -0.9307 -0.4586  0.9494
 1691TIP3   OH226487   4.147   0.603   0.623  0.0275  0.1035  0.5043
 1691TIP3    H126488   4.074   0.591   0.562 -0.3437 -1.0875  1.1366
 1691TIP3    H226489   4.105   0.626   0.706  0.5122  1.5011  0.3807
 1692TIP3   OH226490   0.846   6.433   4.788  0.2546 -0.1199 -0.1681
 1692TIP3    H126491   0.934   6.411   4.819  0.1957 -1.2630 -0.7376
 1692TIP3    H226492   0.859   6.506   4.727  0.6373  0.5932  0.7543
 1693TIP3   OH226493   4.519   3.177  13.206  0.2503 -0.5377  0.4000
 1693TIP3    H126494   4.595   3.127  13.177 -1.0876 -2.5124  0.0585
 1693TIP3    H226495   4.553   3.237  13.272  2.7702  1.5068 -2.4666
 1694TIP3   OH226496   6.199   5.489   0.283 -0.0195  0.6580  0.1280
 1694TIP3    H126497   6.278   5.498   0.336 -0.5458  4.2816  0.5228
 1694TIP3    H226498   6.130   5.466   0.346  0.3639 -0.8728  0.0278
 1695TIP3   OH226499   3.685   0.136   6.017 -0.2157 -0.1634 -0.4280
 1695TIP3    H126500   3.661   0.052   5.977  1.9738 -0.8088 -0.5507
 1695TIP3    H226501   3.706   0.113   6.108  1.0112  0.1017 -0.6282
 1696TIP3   OH226502   1.043   2.596   6.365 -0.0296  0.2199 -0.3128
 1696TIP3    H126503   1.118   2.576   6.309  0.8319  2.6427 -0.1414
 1696TIP3    H226504   1.057   2.544   6.444  1.0684  0.0828 -0.5873
 1697TIP3   OH226505   2.841   1.454   3.732 -0.1882  0.1458 -0.2612
 1697TIP3    H126506   2.823   1.434   3.824  1.7246  0.8079  0.2999
 1697TIP3    H226507   2.755   1.453   3.691 -1.1262  0.0313  1.5689
 1698TIP3   OH226508   4.501   2.098   0.794 -0.0531 -0.4357  0.1458
 1698TIP3    H126509   4.514   2.102   0.889 -0.3420  0.9440  0.1373
 1698TIP3    H226510   4.537   2.013   0.769  0.7282 -0.4895  1.3789
 1699TIP3   OH226511   1.024   2.736  11.883  0.5003 -0.1529 -0.2414
 1699TIP3    H126512   1.034   2.809  11.823 -2.1220 -0.3111 -1.0300
 1699TIP3    H226513   0.996   2.663  11.827 -0.9214 -0.6121  0.9894
 1700TIP3   OH226514   0.067   1.822  15.354 -0.1624 -0.1711  0.2700
 1700TIP3    H126515   0.052   1.895  15.294  0.9094  0.8573  1.2054
 1700TIP3    H226516   0.024   1.848  15.435  2.2969  0.6019  1.4077
 1701TIP3   OH226517   3.607   0.143  13.170  0.3526  0.5954 -0.5606
 1701TIP3    H126518   3.617   0.109  13.081 -0.6478 -1.2717 -0.0307
 1701TIP3    H226519   3.672   0.094  13.221  0.2018  0.8930 -0.0814
 1702TIP3   OH226520   4.751   2.278   1.462  0.0238 -0.4760 -0.1659
 1702TIP3    H126521   4.755   2.348   1.527 -1.1742 -0.7108  0.1810
 1702TIP3    H226522   4.707   2.206   1.507 -2.2425 -0.1251 -1.6269
 1703TIP3   OH226523   2.173   0.733  17.055  0.1644 -0.3685 -0.6497
 1703TIP3    H126524   2.163   0.645  17.020  1.5851 -0.5388 -0.6753
 1703TIP3    H226525   2.239   0.725  17.124 -0.5873  0.4649  0.2062
 1704TIP3   OH226526   3.885   1.330   0.599  0.5037  0.5882 -0.4132
 1704TIP3    H126527   3.908   1.319   0.507 -0.2737 -0.7708 -0.4814
 1704TIP3    H226528   3.797   1.293   0.606 -0.1438  2.2284  0.5569
 1705TIP3   OH226529   1.913   0.785  14.150 -0.4695  0.2514 -0.2548
 1705TIP3    H126530   1.918   0.726  14.075  1.9402 -0.3251  0.2811
 1705TIP3    H226531   1.998   0.829  14.153 -1.2587  1.8444  0.9148
 1706TIP3   OH226532   5.396   3.399  12.435 -0.9756  0.0520  0.4506
 1706TIP3    H126533   5.492   3.402  12.428 -0.7438 -2.4175  1.3668
 1706TIP3    H226534   5.380   3.379  12.527 -2.3079 -0.6120  0.0982
 1707TIP3   OH226535   1.391   1.493  16.271 -0.1916  0.0132  0.1160
 1707TIP3    H126536   1.481   1.524  16.259 -0.9501  2.2484 -0.2241
 1707TIP3    H226537   1.348   1.514  16.188 -0.4808 -3.3600 -0.7388
 1708TIP3   OH226538   1.998   5.084  10.865 -0.0870  0.6214  0.8059
 1708TIP3    H126539   2.037   5.083  10.778 -1.9431  0.7837 -0.0628
 1708TIP3    H226540   1.975   5.176  10.880 -1.0425  0.3763  0.8708
 1709TIP3   OH226541   4.120   6.631   5.279 -0.3362 -0.5869  0.2362
 1709TIP3    H126542   4.102   6.578   5.358 -0.2634  0.2537  0.8266
 1709TIP3    H226543   4.206   6.669   5.295  0.1832 -1.2951 -0.7578
 1710TIP3   OH226544   1.827   4.463  15.866 -0.5185 -0.0944 -0.4758
 1710TIP3    H126545   1.789   4.377  15.846 -0.4788 -0.3359  0.4159
 1710TIP3    H226546   1.761   4.505  15.921  0.4374 -0.4915  1.0350
 1711TIP3   OH226547   4.353   0.616   5.545  0.2874  0.0519 -0.1792
 1711TIP3    H126548   4.363   0.710   5.526 -1.1348 -0.2133 -2.7178
 1711TIP3    H226549   4.436   0.578   5.517  0.7095  0.4812  0.4598
 1712TIP3   OH226550   5.161   2.909   4.682 -0.2313  0.3202 -0.1798
 1712TIP3    H126551   5.245   2.937   4.719  0.1760 -2.3666  1.1767
 1712TIP3    H226552   5.121   2.857   4.752 -2.5107  0.5473 -1.2444
 1713TIP3   OH226553   3.086   5.001  10.492  0.0620  0.7896  0.0903
 1713TIP3    H126554   3.041   5.012  10.408  1.2768 -0.9506 -0.8560
 1713TIP3    H226555   3.107   5.090  10.520 -2.5562  1.5833 -0.1633
 1714TIP3   OH226556   1.364   5.002  14.116 -0.5381  0.6376 -0.1578
 1714TIP3    H126557   1.382   5.023  14.024 -0.0710  2.4105  0.3181
 1714TIP3    H226558   1.447   5.017  14.161 -0.2758 -1.8258  0.3525
 1715TIP3   OH226559   2.793   0.638   3.480 -0.3293 -0.4943  0.1031
 1715TIP3    H126560   2.809   0.693   3.557 -2.9768 -0.0079  0.3978
 1715TIP3    H226561   2.756   0.698   3.415  1.2180 -1.0457 -1.3576
 1716TIP3   OH226562   0.303   5.379  15.897 -0.2400  0.3035 -0.0369
 1716TIP3    H126563   0.374   5.390  15.961 -0.2062 -0.1384  0.0025
 1716TIP3    H226564   0.270   5.291  15.912  0.2122 -0.0551 -1.0657
 1717TIP3   OH226565   2.381   3.813   0.985  0.0966 -0.0589 -0.2296
 1717TIP3    H126566   2.354   3.848   1.070 -0.1531  1.9954 -1.0845
 1717TIP3    H226567   2.458   3.760   1.004  0.5485  1.0436  1.1966
 1718TIP3   OH226568   1.810   3.832  12.261 -0.2580 -0.1351  0.3182
 1718TIP3    H126569   1.781   3.878  12.340 -0.8265  2.6705 -1.4283
 1718TIP3    H226570   1.729   3.796  12.224 -0.4859  1.2363 -0.5796
 1719TIP3   OH226571   0.472   6.224  17.175 -0.6732 -0.5370 -0.6494
 1719TIP3    H126572   0.481   6.311  17.213 -1.1863 -1.3635  1.5281
 1719TIP3    H226573   0.561   6.189  17.176 -0.7180 -0.6498  0.1029
 1720TIP3   OH226574   0.499   4.553   0.955 -0.1695 -0.2773 -0.1759
 1720TIP3    H126575   0.429   4.595   0.904  0.3543  0.0646 -0.6239
 1720TIP3    H226576   0.520   4.474   0.907 -0.2800 -0.4052 -0.0144
 1721TIP3   OH226577   0.498   2.480   0.199  0.1054  0.1543  0.4199
 1721TIP3    H126578   0.492   2.400   0.147  1.3048 -0.5055  1.2344
 1721TIP3    H226579   0.592   2.498   0.203 -0.1784  2.0721 -0.4135
 1722TIP3   OH226580   1.933   4.789  14.514 -0.9569 -0.2728  0.1338
 1722TIP3    H126581   1.868   4.852  14.543  0.0386  0.8928 -0.0578
 1722TIP3    H226582   2.017   4.826  14.543 -0.3668 -1.7117  0.3703
 1723TIP3   OH226583   2.864   4.931  16.217 -0.0795 -1.3429  0.3858
 1723TIP3    H126584   2.946   4.934  16.266  0.3327  0.9709 -0.2985
 1723TIP3    H226585   2.879   4.866  16.148  1.5137 -0.3979 -0.2192
 1724TIP3   OH226586   2.722   2.131  14.080  0.0389 -0.0898  0.1443
 1724TIP3    H126587   2.810   2.106  14.053 -0.0573 -1.8968  1.3493
 1724TIP3    H226588   2.719   2.226  14.065  2.5717  0.2273  1.0530
 1725TIP3   OH226589   3.649   0.083   6.336  0.1777  0.3846  0.0126
 1725TIP3    H126590   3.569   0.061   6.383  0.4246 -0.3581  0.0963
 1725TIP3    H226591   3.717   0.031   6.379  0.9374  1.9206  0.7605
 1726TIP3   OH226592   1.552   3.021   5.432 -0.3543  0.4033  0.1510
 1726TIP3    H126593   1.515   2.942   5.470 -0.1030 -0.0687 -0.5851
 1726TIP3    H226594   1.499   3.092   5.469 -1.8959 -0.2408 -0.7447
 1727TIP3   OH226595   0.968   0.501   4.090 -0.2785 -0.8179 -0.0880
 1727TIP3    H126596   0.896   0.441   4.070  0.0484 -1.1876 -0.1672
 1727TIP3    H226597   0.982   0.549   4.008  0.3587 -1.5916 -0.4461
 1728TIP3   OH226598   2.613   4.159   6.250  0.0554 -0.2380 -0.1379
 1728TIP3    H126599   2.689   4.162   6.308  0.1987 -1.6972 -0.2035
 1728TIP3    H226600   2.539   4.143   6.308  0.2049 -1.7436 -0.3194
 1729TIP3   OH226601   2.288   4.597  12.359  0.1935  0.1795  0.2810
 1729TIP3    H126602   2.244   4.527  12.407  3.1718 -0.4901  2.2876
 1729TIP3    H226603   2.340   4.551  12.292  0.9645  0.5487  0.6086
 1730TIP3   OH226604   0.985   2.676  12.561  0.0385 -0.6119  0.2758
 1730TIP3    H126605   1.056   2.643  12.506  0.2687  0.4653 -0.0842
 1730TIP3    H226606   0.941   2.742  12.507 -0.5256 -0.4472  0.9242
 1731TIP3   OH226607   6.572   4.024  15.038  0.1088  0.4490 -0.2536
 1731TIP3    H126608   6.553   4.118  15.036 -1.8044  0.0881 -1.4551
 1731TIP3    H226609   6.533   3.994  15.120 -0.2859  0.5213 -0.4125
 1732TIP3   OH226610   0.270   3.252  12.063  0.2595  0.5815 -0.6067
 1732TIP3    H126611   0.256   3.305  11.984  1.7972 -0.0722 -1.3642
 1732TIP3    H226612   0.344   3.293  12.107  0.9639 -0.4368 -0.7925
 1733TIP3   OH226613   6.436   3.406  15.653  0.6284  0.1380 -0.1226
 1733TIP3    H126614   6.452   3.314  15.632  0.0359  0.0352 -0.1450
 1733TIP3    H226615   6.489   3.455  15.590  1.0676 -0.1898 -0.0080
 1734TIP3   OH226616   4.819   0.655   1.865  0.2020  0.2433 -0.3609
 1734TIP3    H126617   4.764   0.643   1.943  0.1277  2.7790  0.0638
 1734TIP3    H226618   4.897   0.602   1.882 -0.3659 -0.2312  0.8623
 1735TIP3   OH226619   2.248   0.541   5.101 -0.1256 -0.1538 -0.3372
 1735TIP3    H126620   2.331   0.538   5.053 -0.2203 -2.1146 -0.4655
 1735TIP3    H226621   2.219   0.632   5.094  1.1804  0.1944 -1.7366
 1736TIP3   OH226622   2.481   5.223   5.143  0.0325 -0.1276 -0.3805
 1736TIP3    H126623   2.468   5.307   5.187 -0.8476 -0.5764  0.2392
 1736TIP3    H226624   2.571   5.226   5.112 -0.7392  2.2102 -2.8458
 1737TIP3   OH226625   5.179   3.781   6.718  0.2387  0.4173 -0.1587
 1737TIP3    H126626   5.213   3.815   6.802 -0.8381 -0.0021  0.4648
 1737TIP3    H226627   5.150   3.859   6.671  1.1226  0.6881 -0.2900
 1738TIP3   OH226628   6.712   3.579   2.789  0.3786  0.3135 -0.0482
 1738TIP3    H126629   6.745   3.652   2.842  1.2406 -0.9008  1.1716
 1738TIP3    H226630   6.621   3.602   2.771  0.1851  1.0104  1.5940
 1739TIP3   OH226631   5.862   1.367   2.161 -0.4496  0.0605  0.7718
 1739TIP3    H126632   5.844   1.450   2.119  1.1248  0.4398  0.7934
 1739TIP3    H226633   5.779   1.342   2.202 -1.0868  1.3290  0.2892
 1740TIP3   OH226634   3.636   2.128  14.985  0.1663  0.2822 -0.3514
 1740TIP3    H126635   3.730   2.144  14.978  0.1764  0.1533 -0.5399
 1740TIP3    H226636   3.600   2.209  15.019  0.2359  0.6623 -1.1467
 1741TIP3   OH226637   6.510   6.114  16.385 -0.6615  0.3358  0.4050
 1741TIP3    H126638   6.548   6.166  16.315  1.8598 -0.1665  1.3001
 1741TIP3    H226639   6.522   6.168  16.464 -2.1447  0.2695  0.7174
 1742TIP3   OH226640   4.824   5.960  16.065 -0.6596 -0.4713  0.6376
 1742TIP3    H126641   4.771   6.040  16.061  1.8659  1.2711 -2.4918
 1742TIP3    H226642   4.772   5.894  16.020 -1.2652  0.4663 -0.0761
 1743TIP3   OH226643   6.715   2.202  11.750  0.1414 -0.6809 -0.5679
 1743TIP3    H126644   6.653   2.274  11.736 -2.7650 -3.0165 -0.7055
 1743TIP3    H226645   6.739   2.173  11.662  0.9729 -0.1876 -0.5132
 1744TIP3   OH226646   3.850   3.528   3.220  0.6191 -0.6000  0.4282
 1744TIP3    H126647   3.897   3.539   3.303  1.4804 -0.9625  0.0095
 1744TIP3    H226648   3.805   3.611   3.207  0.7935 -0.3950  1.0612
 1745TIP3   OH226649   6.079   0.650   3.688 -0.5815  0.3380  0.3278
 1745TIP3    H126650   6.020   0.594   3.737 -0.3254 -0.0711  0.1776
 1745TIP3    H226651   6.166   0.611   3.701 -0.5789 -0.1070 -0.8819
 1746TIP3   OH226652   3.147   2.636   2.742 -0.6276 -0.0257  0.2932
 1746TIP3    H126653   3.191   2.703   2.796 -0.7819  0.4225 -0.1343
 1746TIP3    H226654   3.207   2.562   2.744  0.0910  0.5293 -0.1679
 1747TIP3   OH226655   4.481   5.381  13.248  0.4010  0.6587  0.4890
 1747TIP3    H126656   4.417   5.452  13.258 -0.3519  0.5181 -2.4359
 1747TIP3    H226657   4.535   5.408  13.173 -0.0043 -1.8753 -0.8123
 1748TIP3   OH226658   6.571   1.439   3.155 -0.6913  0.1194 -0.0939
 1748TIP3    H126659   6.645   1.424   3.214 -0.0182 -1.5470 -1.2740
 1748TIP3    H226660   6.495   1.441   3.212  0.2238  1.8722  1.1515
 1749TIP3   OH226661   3.135   0.160   0.378  0.2679  0.1873  0.0786
 1749TIP3    H126662   3.153   0.199   0.292  0.2621 -0.6568 -0.3162
 1749TIP3    H226663   3.150   0.231   0.440 -0.9067  1.1674 -0.6979
 1750TIP3   OH226664   6.328   4.595   2.172 -0.1752  0.1999 -0.5972
 1750TIP3    H126665   6.259   4.658   2.151 -1.0224 -0.4570  0.1778
 1750TIP3    H226666   6.325   4.532   2.100 -0.3320  0.2216 -0.6107
 1751TIP3   OH226667   2.984   3.089  12.671  0.1859 -0.1763 -0.4039
 1751TIP3    H126668   3.007   3.136  12.591 -0.7444  0.0317 -0.5694
 1751TIP3    H226669   2.981   2.997  12.644  0.7763 -0.2006 -0.3852
 1752TIP3   OH226670   2.783   6.160   4.810  0.2274  0.0768 -0.0620
 1752TIP3    H126671   2.788   6.070   4.779 -0.7273  0.4088 -1.2943
 1752TIP3    H226672   2.860   6.171   4.866  0.4012 -1.4642  0.0492
 1753TIP3   OH226673   2.123   6.692   2.791 -0.4361 -0.4164  0.5732
 1753TIP3    H126674   2.214   6.694   2.822 -0.8044  1.7118  1.7228
 1753TIP3    H226675   2.100   6.784   2.780 -2.2461 -0.9475 -0.3658
 1754TIP3   OH226676   2.149   6.079   0.652 -0.0812  0.4848  0.1543
 1754TIP3    H126677   2.175   6.146   0.715  1.6422  1.6421 -1.6658
 1754TIP3    H226678   2.231   6.041   0.622 -1.0069 -2.4832  1.0448
 1755TIP3   OH226679   4.583   3.361  11.427 -0.2679  0.4632 -0.4365
 1755TIP3    H126680   4.657   3.385  11.483 -0.6230  1.1144 -0.2277
 1755TIP3    H226681   4.622   3.334  11.344  0.1798  1.2339 -0.4810
 1756TIP3   OH226682   0.887   2.272  16.891  0.8848  0.4070  0.0511
 1756TIP3    H126683   0.960   2.238  16.944  1.7672  2.4666  0.2581
 1756TIP3    H226684   0.927   2.341  16.838 -0.8403  1.2715 -0.1744
 1757TIP3   OH226685   2.238   4.980  12.997 -0.2115  0.2148 -0.8676
 1757TIP3    H126686   2.282   4.950  13.076 -1.1866  0.7812 -0.0887
 1757TIP3    H226687   2.292   5.053  12.966  0.6177 -0.5275 -1.1928
 1758TIP3   OH226688   6.368   3.192   2.381 -0.0134  0.3720 -0.6479
 1758TIP3    H126689   6.297   3.231   2.431  0.2388 -0.4572  0.3970
 1758TIP3    H226690   6.334   3.107   2.352  0.7382 -0.3261  0.4244
 1759TIP3   OH226691   5.048   5.623  11.832 -0.1113 -0.3551 -0.4043
 1759TIP3    H126692   5.054   5.718  11.819 -1.2574 -0.3941 -1.3775
 1759TIP3    H226693   5.075   5.586  11.748  0.5612 -0.9254  0.0466
 1760TIP3   OH226694   2.369   6.092  14.786  0.2269 -0.0539 -0.0454
 1760TIP3    H126695   2.380   6.131  14.699  0.5110  0.0519  0.0364
 1760TIP3    H226696   2.332   6.163  14.839 -1.9295 -0.7155 -0.5843
 1761TIP3   OH226697   1.807   2.902   5.753  0.5863 -0.5208 -0.5183
 1761TIP3    H126698   1.713   2.898   5.734  0.1637  1.5060  0.8368
 1761TIP3    H226699   1.849   2.902   5.667 -0.5414 -2.5045 -1.1427
 1762TIP3   OH226700   1.026   3.187   4.821 -0.1626  0.5565 -0.3611
 1762TIP3    H126701   0.965   3.116   4.845 -1.8063  1.6517 -1.1124
 1762TIP3    H226702   1.028   3.186   4.726  0.0035  1.3265 -0.3735
 1763TIP3   OH226703   1.324   6.489  11.615 -0.0178  0.1088  0.0376
 1763TIP3    H126704   1.339   6.425  11.685 -0.2665  0.4630  0.4181
 1763TIP3    H226705   1.406   6.490  11.566 -0.0045 -0.4881  0.0436
 1764TIP3   OH226706   0.900   1.686   0.644 -0.3801  0.2250  0.9494
 1764TIP3    H126707   0.981   1.642   0.619 -1.1067 -1.8478  2.0465
 1764TIP3    H226708   0.838   1.663   0.576 -0.6827 -0.2089  1.3681
 1765TIP3   OH226709   2.867   2.945   1.403  0.1769 -0.0084 -0.4816
 1765TIP3    H126710   2.830   2.882   1.340  0.4218  0.3596 -0.9977
 1765TIP3    H226711   2.898   3.018   1.349  0.3596  0.3291  0.0713
 1766TIP3   OH226712   3.285   0.400   2.278 -0.4780  0.1131 -0.0480
 1766TIP3    H126713   3.228   0.389   2.202 -1.7595 -4.8855  1.2812
 1766TIP3    H226714   3.228   0.384   2.354  1.4276  1.5675  1.8300
 1767TIP3   OH226715   5.873   1.458   0.964  0.3705  0.2230 -0.2124
 1767TIP3    H126716   5.969   1.458   0.966  0.3862 -1.1812  0.1801
 1767TIP3    H226717   5.851   1.385   0.907 -0.4639 -0.2949  0.7464
 1768TIP3   OH226718   6.361   4.210   6.551  0.1829 -0.2327  0.6363
 1768TIP3    H126719   6.389   4.203   6.460 -1.2554 -2.1200  0.2772
 1768TIP3    H226720   6.442   4.201   6.602  0.7880 -1.0073 -0.4298
 1769TIP3   OH226721   6.207   6.573  13.867  0.2193 -0.7749  0.5724
 1769TIP3    H126722   6.260   6.557  13.789  0.0268 -0.2455  0.3233
 1769TIP3    H226723   6.269   6.606  13.932  0.4025 -1.3418  0.6853
 1770TIP3   OH226724   1.899   6.403   4.630 -0.2662 -0.1158 -0.4529
 1770TIP3    H126725   1.930   6.462   4.700 -0.2757  0.6136 -1.0500
 1770TIP3    H226726   1.909   6.315   4.667  2.4376  0.0644 -0.5512
 1771TIP3   OH226727   4.695   4.169   3.581  0.0032 -0.0381  0.2475
 1771TIP3    H126728   4.652   4.091   3.546  1.4811 -1.2252  0.9798
 1771TIP3    H226729   4.749   4.201   3.509 -0.8765  0.5465 -0.1700
 1772TIP3   OH226730   5.004   2.857   5.658 -0.0805 -0.2945  0.6700
 1772TIP3    H126731   4.999   2.762   5.665 -1.5899 -0.1675  1.7746
 1772TIP3    H226732   4.971   2.877   5.570  0.7628 -0.7963  0.2234
 1773TIP3   OH226733   0.048   6.375   2.207 -0.3331  0.2404  0.4061
 1773TIP3    H126734   0.113   6.333   2.149 -0.5875 -1.4959  1.3301
 1773TIP3    H226735   0.101   6.417   2.274 -0.0479  1.9999 -0.8473
 1774TIP3   OH226736   3.043   4.158   0.887 -0.2364  0.0659  0.6092
 1774TIP3    H126737   2.983   4.087   0.864  0.5875 -0.4878  0.1470
 1774TIP3    H226738   2.986   4.227   0.920 -1.2764  0.1379 -1.2221
 1775TIP3   OH226739   5.269   2.935   5.712  0.3288 -0.7645  0.0218
 1775TIP3    H126740   5.186   2.979   5.693  0.4831 -1.0635 -1.4403
 1775TIP3    H226741   5.252   2.843   5.692  1.3026 -0.6691 -1.3426
 1776TIP3   OH226742   2.714   2.376  12.810 -0.0201 -0.9181 -0.2501
 1776TIP3    H126743   2.678   2.347  12.726  0.1358  0.8173 -0.9551
 1776TIP3    H226744   2.669   2.459  12.828 -0.6176 -1.6037  1.7846
 1777TIP3   OH226745   4.818   4.404  14.231 -0.5544  0.7405 -0.3936
 1777TIP3    H126746   4.808   4.370  14.319 -0.4320 -0.0424 -0.6777
 1777TIP3    H226747   4.912   4.414  14.219 -0.5234  0.1149 -0.7036
 1778TIP3   OH226748   2.079   6.134  11.524  0.0704 -0.2695 -0.7853
 1778TIP3    H126749   1.987   6.121  11.503 -0.8541 -0.4280  2.7666
 1778TIP3    H226750   2.079   6.168  11.613  3.5133 -2.6252  0.3355
 1779TIP3   OH226751   0.145   4.790  16.933 -0.3171  0.1247 -0.0442
 1779TIP3    H126752   0.067   4.750  16.972 -0.9035 -0.3229 -1.6240
 1779TIP3    H226753   0.167   4.733  16.859  2.7195 -0.9200  1.4852
 1780TIP3   OH226754   5.528   6.149   2.139  0.5702 -0.1357  0.0533
 1780TIP3    H126755   5.497   6.206   2.209  1.1441 -1.7692  1.7174
 1780TIP3    H226756   5.622   6.163   2.136  0.4689  0.4253 -0.8862
 1781TIP3   OH226757   2.318   3.086  10.608  0.0010 -0.4939  0.1924
 1781TIP3    H126758   2.224   3.080  10.621 -0.3922  0.0347 -2.0601
 1781TIP3    H226759   2.355   3.023  10.671 -1.8273 -0.6676  1.1409
 1782TIP3   OH226760   3.823   0.491   2.074  0.2019 -0.6926  0.2118
 1782TIP3    H126761   3.770   0.530   2.144  1.3312 -0.6190  1.0576
 1782TIP3    H226762   3.877   0.426   2.118  0.1469 -1.4426 -0.7912
 1783TIP3   OH226763   5.574   0.250  15.393  0.2421 -0.4928 -0.2278
 1783TIP3    H126764   5.526   0.204  15.325  3.3514 -2.1908 -1.4746
 1783TIP3    H226765   5.508   0.271  15.459 -2.4028 -1.2848 -2.4429
 1784TIP3   OH226766   1.628   2.209  12.760 -0.2872 -0.0648  0.0429
 1784TIP3    H126767   1.694   2.276  12.778  0.7641 -1.5589  2.0524
 1784TIP3    H226768   1.559   2.256  12.713  1.7042  1.7771 -1.2159
 1785TIP3   OH226769   2.435   2.169   1.892  0.0806 -0.2432  0.5316
 1785TIP3    H126770   2.440   2.219   1.973 -0.8686 -0.6601  0.8490
 1785TIP3    H226771   2.433   2.078   1.919  0.4251 -0.4174  0.0020
 1786TIP3   OH226772   5.559   4.977   4.569  0.1146 -0.1411 -0.3552
 1786TIP3    H126773   5.642   4.942   4.537 -0.3728 -0.9258 -0.8140
 1786TIP3    H226774   5.507   4.899   4.590 -1.7750  0.1438 -3.3544
 1787TIP3   OH226775   3.752   1.658   3.153 -0.3833  0.2871  0.2729
 1787TIP3    H126776   3.755   1.620   3.241  2.9050 -1.1625 -0.3264
 1787TIP3    H226777   3.745   1.582   3.095  0.0710  1.0366 -0.7822
 1788TIP3   OH226778   4.983   0.342   0.545 -0.1138 -0.0134 -0.0491
 1788TIP3    H126779   4.963   0.396   0.469  0.6284  2.6556  1.5243
 1788TIP3    H226780   4.913   0.361   0.608  1.9172  1.9118  1.8130
 1789TIP3   OH226781   0.825   4.521  12.616 -0.2920 -0.3690  0.1618
 1789TIP3    H126782   0.887   4.561  12.677 -0.1088  0.1366 -0.3545
 1789TIP3    H226783   0.753   4.584  12.610 -0.7010 -0.7981  0.4951
 1790TIP3   OH226784   6.523   2.158  15.218 -0.0312  0.0863 -0.3998
 1790TIP3    H126785   6.444   2.111  15.245  0.5147 -0.9215 -0.4881
 1790TIP3    H226786   6.491   2.242  15.186 -1.2243 -0.8819 -1.8754
 1791TIP3   OH226787   5.071   1.852  11.133 -0.3394 -0.4385 -0.4825
 1791TIP3    H126788   5.074   1.780  11.070  1.0167  0.6973 -1.7895
 1791TIP3    H226789   4.995   1.833  11.188 -0.3576 -2.5510 -1.1490
 1792TIP3   OH226790   4.427   2.096  15.539  0.0285  0.1601  0.1097
 1792TIP3    H126791   4.513   2.137  15.534 -0.5160  1.2735 -0.9471
 1792TIP3    H226792   4.403   2.101  15.632  0.5304  1.1363  0.2043
 1793TIP3   OH226793   5.118   0.411  11.876 -0.1868 -0.3088 -0.2005
 1793TIP3    H126794   5.210   0.419  11.898 -0.5801  0.1249  1.4201
 1793TIP3    H226795   5.075   0.386  11.958 -1.1343 -3.6792 -1.5434
 1794TIP3   OH226796   3.630   5.824  12.260  0.0313 -0.3903 -0.4552
 1794TIP3    H126797   3.724   5.811  12.277 -0.1274  0.1426  1.0179
 1794TIP3    H226798   3.612   5.911  12.295 -1.0911 -0.6229 -0.4241
 1795TIP3   OH226799   1.996   6.697   2.126  0.0844 -0.2044 -0.5932
 1795TIP3    H126800   2.064   6.629   2.118  0.0519 -0.2906 -0.1222
 1795TIP3    H226801   1.953   6.697   2.040 -1.2469 -2.1914  0.0009
 1796TIP3   OH226802   4.748   0.167   4.494 -0.2643  0.3430 -0.6791
 1796TIP3    H126803   4.780   0.078   4.478 -0.0557  0.6074 -1.7977
 1796TIP3    H226804   4.742   0.206   4.407 -0.3901  1.4202 -0.1956
 1797TIP3   OH226805   1.375   1.526   4.604  0.2044  0.1660  0.0731
 1797TIP3    H126806   1.398   1.578   4.526  0.5267 -0.3583 -0.1865
 1797TIP3    H226807   1.346   1.442   4.568 -1.0258  0.4051  0.4503
 1798TIP3   OH226808   0.367   2.692   0.722  0.4340  0.1880  0.5820
 1798TIP3    H126809   0.431   2.655   0.662 -1.0405 -1.0600 -0.3250
 1798TIP3    H226810   0.383   2.647   0.805 -1.1622 -2.5476 -0.4322
 1799TIP3   OH226811   4.237   4.734   1.750  0.4748  0.2937 -0.2171
 1799TIP3    H126812   4.225   4.797   1.679  1.3791 -0.8569 -1.4421
 1799TIP3    H226813   4.267   4.654   1.706  0.0077 -0.7884  1.3541
 1800TIP3   OH226814   4.074   3.963   5.463  0.2151  0.6315  0.2518
 1800TIP3    H126815   3.999   3.917   5.425 -0.5183  0.7666  1.4785
 1800TIP3    H226816   4.122   3.997   5.387  0.3609 -1.4665 -0.6697
 1801TIP3   OH226817   2.467   3.682   2.559 -0.1542  0.2823  0.6338
 1801TIP3    H126818   2.384   3.662   2.604 -1.0204  1.1522 -0.5111
 1801TIP3    H226819   2.442   3.745   2.491  1.2165 -0.5136 -0.6440
 1802TIP3   OH226820   5.240   3.662  12.467 -0.3009  0.2894  0.0590
 1802TIP3    H126821   5.157   3.616  12.450 -0.2884 -1.0158  2.8480
 1802TIP3    H226822   5.307   3.595  12.453  0.5067  1.5755 -3.0924
 1803TIP3   OH226823   5.189   3.105  12.141  0.2338 -0.0732  0.1048
 1803TIP3    H126824   5.237   3.077  12.219  1.9109  0.7970 -0.5738
 1803TIP3    H226825   5.203   3.200  12.137 -0.0096 -0.0756 -1.1399
 1804TIP3   OH226826   3.035   3.066   2.633 -0.1250  0.0379  0.1913
 1804TIP3    H126827   2.962   3.072   2.571 -0.6718 -0.4346  0.7758
 1804TIP3    H226828   3.112   3.051   2.577 -0.5856 -0.2099 -0.3926
 1805TIP3   OH226829   2.437   3.471  14.827 -0.6157 -0.7804  0.2227
 1805TIP3    H126830   2.385   3.521  14.764  1.3661  1.6414  0.3346
 1805TIP3    H226831   2.373   3.428  14.883 -2.4774  0.8718 -0.5219
 1806TIP3   OH226832   1.296   1.397  12.583  0.0056 -0.1322  0.3072
 1806TIP3    H126833   1.281   1.482  12.541  0.1875  1.2007  2.7446
 1806TIP3    H226834   1.387   1.377  12.563  0.2065  0.6625  0.3858
 1807TIP3   OH226835   3.153   3.762   2.912  0.0602 -0.1902 -0.0248
 1807TIP3    H126836   3.207   3.810   2.850  0.8876 -0.5832  0.3809
 1807TIP3    H226837   3.154   3.814   2.992  1.6579 -1.2586  0.6941
 1808TIP3   OH226838   6.410   1.938   5.572  0.1793 -0.3855 -0.3151
 1808TIP3    H126839   6.444   1.848   5.580 -0.1149 -0.4269  0.6002
 1808TIP3    H226840   6.378   1.959   5.659 -0.8842  0.1639 -0.8192
 1809TIP3   OH226841   3.330   5.945   4.406 -0.4806  0.5918 -0.4041
 1809TIP3    H126842   3.271   5.984   4.470 -0.8980 -0.6740  0.0081
 1809TIP3    H226843   3.366   6.019   4.358 -0.7248  1.5111  0.8020
 1810TIP3   OH226844   3.582   2.768  17.185 -0.4994 -0.7528  0.4218
 1810TIP3    H126845   3.512   2.734  17.129  1.0310 -1.3291 -1.2315
 1810TIP3    H226846   3.540   2.838  17.236 -1.7469  0.6842 -2.3250
 1811TIP3   OH226847   5.736   4.474   0.885  0.5248 -0.6389  0.0320
 1811TIP3    H126848   5.657   4.438   0.925  1.2068 -0.9354  1.1678
 1811TIP3    H226849   5.769   4.537   0.948 -0.6037  2.0736 -1.8936
 1812TIP3   OH226850   4.874   6.364   0.852 -0.5096 -0.1538 -0.6052
 1812TIP3    H126851   4.848   6.346   0.943 -2.0330  1.5671 -0.6633
 1812TIP3    H226852   4.888   6.458   0.849  0.3409 -0.3007 -1.9894
 1813TIP3   OH226853   3.088   3.949  11.109 -0.1453 -0.0088  0.3394
 1813TIP3    H126854   3.158   3.886  11.090  0.1264  0.6054 -0.7464
 1813TIP3    H226855   3.034   3.905  11.175  0.0961 -1.3402 -0.3206
 1814TIP3   OH226856   1.305   5.542  11.204  0.4428 -0.5653 -0.2366
 1814TIP3    H126857   1.292   5.513  11.113 -2.1002  1.9165 -0.8305
 1814TIP3    H226858   1.366   5.616  11.196 -0.1353 -0.0586 -0.0165
 1815TIP3   OH226859   1.174   0.341  11.475 -0.3625  1.0238  0.4224
 1815TIP3    H126860   1.106   0.375  11.533  0.1030  2.0472  0.3847
 1815TIP3    H226861   1.215   0.419  11.438  1.5963  0.4917  1.3127
 1816TIP3   OH226862   5.943   2.341   5.641 -0.1003 -0.5030 -0.1992
 1816TIP3    H126863   6.002   2.383   5.579  0.7956  0.5363  1.3042
 1816TIP3    H226864   5.990   2.263   5.671  0.3718  0.1056  0.6911
 1817TIP3   OH226865   3.500   6.488  12.666 -0.5925  0.4065 -0.2747
 1817TIP3    H126866   3.471   6.533  12.587  1.3152  0.1645 -1.1757
 1817TIP3    H226867   3.551   6.554  12.713 -2.2293  0.7469  1.1347
 1818TIP3   OH226868   3.242   2.002   0.855 -0.8566  0.3793  0.3204
 1818TIP3    H126869   3.298   1.925   0.861 -1.8381 -0.3625  0.0419
 1818TIP3    H226870   3.251   2.045   0.940 -0.2409  0.0115  0.4455
 1819TIP3   OH226871   3.916   3.930   4.067 -0.3075 -0.8082 -0.2510
 1819TIP3    H126872   3.935   3.843   4.103 -0.0704 -0.1067  1.3576
 1819TIP3    H226873   4.002   3.971   4.056 -0.4318 -0.6882 -0.8474
 1820TIP3   OH226874   2.938   2.171   3.934 -0.5895  0.3466 -0.3336
 1820TIP3    H126875   3.025   2.133   3.941 -0.9781 -0.4201  0.7767
 1820TIP3    H226876   2.935   2.212   3.848  0.8614  0.3868 -0.3752
 1821TIP3   OH226877   2.710   3.030   3.313  0.4430  0.5221  0.0761
 1821TIP3    H126878   2.709   2.938   3.286  0.0051  0.9454 -1.4415
 1821TIP3    H226879   2.652   3.033   3.389  0.4860 -0.4593  0.1646
 1822TIP3   OH226880   1.343   4.212  13.543  0.7603  0.4747 -0.8878
 1822TIP3    H126881   1.375   4.303  13.541  0.0692  0.7338 -0.3972
 1822TIP3    H226882   1.253   4.218  13.512  0.2455  0.1576  0.4730
 1823TIP3   OH226883   0.229   1.689   0.434 -0.6387  0.0758 -0.3230
 1823TIP3    H126884   0.148   1.677   0.383 -1.3660  0.1575  0.7783
 1823TIP3    H226885   0.265   1.772   0.402 -0.4017 -0.4746 -1.5684
 1824TIP3   OH226886   3.340   2.442   4.622  0.2265 -0.2373 -0.0320
 1824TIP3    H126887   3.250   2.411   4.634  0.5772 -1.0028  0.6323
 1824TIP3    H226888   3.342   2.527   4.667 -0.9069  1.1378 -2.3931
 1825TIP3   OH226889   2.427   5.588   2.642  0.4292  0.6074  0.1848
 1825TIP3    H126890   2.464   5.572   2.729  0.5666  0.5621  0.1182
 1825TIP3    H226891   2.436   5.505   2.597  0.1257  0.5580  0.2102
 1826TIP3   OH226892   0.755   6.322   2.129  0.5300  0.1821 -0.3417
 1826TIP3    H126893   0.760   6.346   2.036  3.1705  0.3468 -0.2358
 1826TIP3    H226894   0.777   6.229   2.131  1.2134  0.3463  0.1549
 1827TIP3   OH226895   3.909   5.855   5.109  0.2667  0.1236 -0.3150
 1827TIP3    H126896   3.892   5.934   5.057 -0.2925  0.1560 -0.0962
 1827TIP3    H226897   4.002   5.860   5.132  0.2477  0.6924 -0.3548
 1828TIP3   OH226898   3.648   6.762   2.801 -0.1380  0.2213  0.0666
 1828TIP3    H126899   3.679   6.687   2.852 -2.8606  0.3250  2.1457
 1828TIP3    H226900   3.716   6.828   2.810  0.4781 -0.6006  1.7250
 1829TIP3   OH226901   3.117   6.167  12.829  0.3795  0.3512 -0.1129
 1829TIP3    H126902   3.040   6.225  12.834 -0.9058 -1.2320 -0.8116
 1829TIP3    H226903   3.177   6.202  12.895 -1.4027  0.9845  1.2697
 1830TIP3   OH226904   4.938   1.433  11.593  0.8221 -0.2488 -0.0727
 1830TIP3    H126905   4.889   1.431  11.676  1.8964  0.0539  0.5941
 1830TIP3    H226906   4.878   1.398  11.528  0.1014 -0.9019  0.9261
 1831TIP3   OH226907   6.190   6.342   5.084  0.5259  0.1510  0.0472
 1831TIP3    H126908   6.233   6.314   5.165  1.1606  2.8175  0.7414
 1831TIP3    H226909   6.254   6.324   5.015  1.6426  1.4349  0.7009
 1832TIP3   OH226910   2.755   4.080   2.623 -0.3918  0.3505  0.4274
 1832TIP3    H126911   2.676   4.038   2.658  0.0102 -2.5078 -1.7283
 1832TIP3    H226912   2.825   4.050   2.681 -0.6310  1.5307  1.3558
 1833TIP3   OH226913   4.379   2.525   2.066  0.2059 -0.7478 -0.0665
 1833TIP3    H126914   4.300   2.532   2.012 -1.1264 -2.0221  1.5980
 1833TIP3    H226915   4.440   2.589   2.029 -2.5898  2.3613  0.3169
 1834TIP3   OH226916   1.980   1.164  15.789 -0.3490 -0.5864 -0.5468
 1834TIP3    H126917   1.974   1.199  15.878  1.2034 -0.1544 -0.5828
 1834TIP3    H226918   2.036   1.086  15.797  1.6137  0.6534 -1.4164
 1835TIP3   OH226919   1.884   0.688  12.077  0.1048 -0.6673  0.2480
 1835TIP3    H126920   1.800   0.723  12.108  0.3799  1.2698 -1.0664
 1835TIP3    H226921   1.900   0.732  11.993  1.9331 -1.8002 -0.0654
 1836TIP3   OH226922   0.695   2.852  12.287  0.0643 -0.5028 -0.1073
 1836TIP3    H126923   0.783   2.815  12.290  0.8252  1.2919  1.8530
 1836TIP3    H226924   0.664   2.832  12.199  2.3481 -1.3028 -0.8053
 1837TIP3   OH226925   2.380   5.162   6.338 -0.1770  0.3916  0.3078
 1837TIP3    H126926   2.386   5.247   6.382  0.1477  0.5525 -0.0345
 1837TIP3    H226927   2.471   5.137   6.321 -0.2923  0.2761 -0.1525
 1838TIP3   OH226928   3.310   0.252   4.822  0.3038 -0.4154 -0.5072
 1838TIP3    H126929   3.230   0.224   4.777  0.7856 -0.8553 -1.1181
 1838TIP3    H226930   3.344   0.324   4.769  0.0718  0.0784  0.0093
 1839TIP3   OH226931   0.697   5.694   5.875  0.4208  0.0568  0.2483
 1839TIP3    H126932   0.690   5.790   5.878  0.7130  0.1065 -0.3923
 1839TIP3    H226933   0.692   5.667   5.967 -0.1229  0.6504  0.4028
 1840TIP3   OH226934   2.251   5.393  16.833 -0.1349  0.1596 -0.6252
 1840TIP3    H126935   2.187   5.453  16.872  0.8390  0.7310  0.1528
 1840TIP3    H226936   2.304   5.364  16.907  1.3700  0.7795 -1.4274
 1841TIP3   OH226937   0.174   2.498  17.055  0.0784  0.0197 -0.3218
 1841TIP3    H126938   0.235   2.567  17.028 -0.5690  1.4708  1.6814
 1841TIP3    H226939   0.175   2.501  17.151 -1.1662 -1.7074 -0.2091
 1842TIP3   OH226940   6.623   2.513   5.362 -0.7113  0.4979  0.6510
 1842TIP3    H126941   6.675   2.541   5.286 -0.7177  1.6744  1.0570
 1842TIP3    H226942   6.552   2.577   5.366 -0.3780  0.8029  1.9932
 1843TIP3   OH226943   4.692   4.288   2.275  0.4431 -0.0460 -0.4971
 1843TIP3    H126944   4.645   4.264   2.195 -1.3924  1.5670  0.0340
 1843TIP3    H226945   4.634   4.349   2.320  1.7585 -0.3261  1.7246
 1844TIP3   OH226946   2.903   5.678  16.217  1.0586 -0.6156 -0.4575
 1844TIP3    H126947   2.964   5.605  16.228 -0.1948 -1.7974 -1.0164
 1844TIP3    H226948   2.819   5.636  16.198  0.6460  0.9806 -2.5467
 1845TIP3   OH226949   0.469   4.668   0.384 -0.4157  0.5932  0.0540
 1845TIP3    H126950   0.479   4.727   0.459 -0.3387  1.1360 -0.3698
 1845TIP3    H226951   0.393   4.614   0.405 -0.2228  0.5465  0.6463
 1846TIP3   OH226952   1.196   0.672  14.379  0.7384 -0.3074 -0.3581
 1846TIP3    H126953   1.125   0.736  14.368  0.6990 -0.5615 -1.7884
 1846TIP3    H226954   1.197   0.653  14.473 -0.5417  0.3217 -0.1947
 1847TIP3   OH226955   0.816   6.601  16.416 -0.2060 -0.3832  0.1491
 1847TIP3    H126956   0.881   6.612  16.346  0.2162 -3.2726 -0.0240
 1847TIP3    H226957   0.868   6.596  16.496 -0.5314  0.7773  0.4519
 1848TIP3   OH226958   4.719   1.925   1.925  0.2974  0.0195 -0.2895
 1848TIP3    H126959   4.755   1.865   1.859  3.4680  0.1136  1.1668
 1848TIP3    H226960   4.796   1.966   1.964 -1.5031  0.8334  2.6627
 1849TIP3   OH226961   1.811   1.312   2.097  0.5247 -0.1728 -0.2583
 1849TIP3    H126962   1.866   1.386   2.122  0.6072  0.0528 -1.0600
 1849TIP3    H226963   1.738   1.352   2.050  0.7323 -0.6184 -0.9725
 1850TIP3   OH226964   2.163   6.000  16.119  0.2045 -0.0657 -0.4346
 1850TIP3    H126965   2.197   6.007  16.208  2.5092  0.6126 -1.2919
 1850TIP3    H226966   2.072   6.029  16.125  0.2306 -0.3148  1.7219
 1851TIP3   OH226967   1.682   3.032  15.022 -0.3665 -0.4129  0.4154
 1851TIP3    H126968   1.752   3.063  14.964 -0.8446  1.0292  0.5625
 1851TIP3    H226969   1.704   3.069  15.108 -1.4339  0.3159  0.3992
 1852TIP3   OH226970   5.930   6.417  14.824 -0.1693  0.4304  0.0703
 1852TIP3    H126971   5.901   6.347  14.882  0.7310  0.9866  1.2393
 1852TIP3    H226972   5.969   6.373  14.749 -1.5746 -0.3028 -0.2582
 1853TIP3   OH226973   1.203   2.835  15.730 -0.2731  0.1741 -0.0483
 1853TIP3    H126974   1.135   2.804  15.671  0.9959  1.6107 -2.4116
 1853TIP3    H226975   1.165   2.913  15.771 -0.8303 -0.3237  0.4116
 1854TIP3   OH226976   0.928   5.764  13.392 -0.2441 -0.5499  0.5494
 1854TIP3    H126977   0.881   5.848  13.391  0.6515 -0.0282 -1.2245
 1854TIP3    H226978   1.005   5.781  13.447  0.6437  0.2459 -0.8730
 1855TIP3   OH226979   2.363   2.136  13.775  0.6461 -0.3944  0.8023
 1855TIP3    H126980   2.306   2.139  13.698 -0.2999 -1.6264  1.4242
 1855TIP3    H226981   2.389   2.044  13.781  0.0720 -0.4697  2.3930
 1856TIP3   OH226982   3.696   0.166   1.068 -0.5116  0.4175 -0.1540
 1856TIP3    H126983   3.619   0.181   1.122 -1.1141 -0.4922 -0.7212
 1856TIP3    H226984   3.720   0.074   1.085  1.1261  0.9903  0.8578
 1857TIP3   OH226985   0.944   3.112   1.546 -0.2171  0.4027 -0.2059
 1857TIP3    H126986   0.945   3.046   1.476  1.3662  0.7102 -0.5219
 1857TIP3    H226987   0.983   3.068   1.621  0.5885  0.8728 -0.3356
 1858TIP3   OH226988   1.859   6.662   3.349  0.3601  0.1853 -0.4129
 1858TIP3    H126989   1.823   6.609   3.420  0.2584 -2.1504 -2.0966
 1858TIP3    H226990   1.811   6.745   3.355 -0.4640 -0.3737  1.5123
 1859TIP3   OH226991   0.390   4.652   3.558  0.1837  0.1930 -0.3355
 1859TIP3    H126992   0.386   4.581   3.622  0.7887  1.2557  0.9320
 1859TIP3    H226993   0.299   4.669   3.535 -0.0230 -0.3513  0.0567
 1860TIP3   OH226994   3.364   3.437   0.967 -0.5298 -0.1083  0.3260
 1860TIP3    H126995   3.299   3.374   0.935  0.1520 -1.2256  1.1056
 1860TIP3    H226996   3.332   3.462   1.054  0.4509 -1.2239  1.0226
 1861TIP3   OH226997   1.484   6.681   0.775 -0.3055  0.3065 -0.4845
 1861TIP3    H126998   1.439   6.605   0.739  2.5608 -1.6491 -0.2383
 1861TIP3    H226999   1.481   6.669   0.870  1.1019 -0.1639 -0.4708
 1862TIP3   OH227000   5.141   0.781  10.955 -0.0332 -0.2015 -1.1288
 1862TIP3    H127001   5.174   0.853  10.901 -1.2994  0.3573 -1.1897
 1862TIP3    H227002   5.058   0.813  10.990  1.1693 -0.1593  1.9776
 1863TIP3   OH227003   5.822   6.413   3.865 -0.3412  0.2083 -0.4119
 1863TIP3    H127004   5.792   6.417   3.955 -1.7022 -3.7659 -0.4846
 1863TIP3    H227005   5.742   6.419   3.813  0.1264 -0.3140 -1.2057
 1864TIP3   OH227006   4.330   2.948   3.331 -0.5079  0.0693 -0.0568
 1864TIP3    H127007   4.413   2.928   3.289 -1.1149 -2.5985 -0.1617
 1864TIP3    H227008   4.348   3.026   3.384  1.8101  0.0468 -0.7175
 1865TIP3   OH227009   2.028   1.503   1.939  0.0724 -0.4208  0.6927
 1865TIP3    H127010   2.088   1.431   1.958  1.1223  0.4167  0.6037
 1865TIP3    H227011   2.080   1.583   1.953 -0.2043  0.3142 -1.8990
 1866TIP3   OH227012   1.417   4.232  14.536 -0.5868 -0.0605 -1.1270
 1866TIP3    H127013   1.382   4.145  14.558 -0.1299 -0.2955 -1.3107
 1866TIP3    H227014   1.381   4.252  14.450 -0.7973 -0.0128 -1.0266
 1867TIP3   OH227015   2.941   0.956   0.848 -1.1178  0.4928  0.1874
 1867TIP3    H127016   2.995   0.886   0.810 -1.5629  0.5800 -0.6292
 1867TIP3    H227017   2.972   1.036   0.804 -0.7341  0.7900  0.9843
 1868TIP3   OH227018   2.592   1.368  16.434 -0.2972 -0.2556  0.3737
 1868TIP3    H127019   2.615   1.457  16.407 -0.6923 -0.1320  0.4482
 1868TIP3    H227020   2.497   1.363  16.424 -0.6793  0.2458  3.0649
 1869TIP3   OH227021   6.029   3.392  16.497 -0.3803  0.1380  0.4909
 1869TIP3    H127022   5.951   3.339  16.484 -0.0399 -0.2841  0.1231
 1869TIP3    H227023   6.027   3.455  16.425  0.1779 -0.5684 -0.1547
 1870TIP3   OH227024   3.491   4.391   1.937  1.1793 -0.2865 -0.3358
 1870TIP3    H127025   3.430   4.444   1.988 -0.4445 -0.2596 -2.2004
 1870TIP3    H227026   3.577   4.427   1.957  0.4632  0.6489  1.2192
 1871TIP3   OH227027   1.084   2.607   2.876 -0.0039 -0.2468 -0.0409
 1871TIP3    H127028   1.040   2.653   2.804  0.1643  0.3091  0.2025
 1871TIP3    H227029   1.125   2.677   2.928  0.9836 -0.7351 -0.1378
 1872TIP3   OH227030   5.461   4.774   3.200 -0.2575 -0.0475  0.4391
 1872TIP3    H127031   5.518   4.821   3.140 -0.3547  1.4117  1.4577
 1872TIP3    H227032   5.454   4.686   3.162  0.6350  0.4817 -1.0272
 1873TIP3   OH227033   3.834   1.986  14.633  0.2479 -0.4201 -0.4723
 1873TIP3    H127034   3.848   2.049  14.562 -2.0260 -0.9570 -1.5053
 1873TIP3    H227035   3.769   2.028  14.690  0.0423 -1.1024 -0.1916
 1874TIP3   OH227036   0.894   4.813   0.238  0.8868 -0.4969 -0.3467
 1874TIP3    H127037   0.917   4.840   0.149  0.9024  0.9435  0.0710
 1874TIP3    H227038   0.802   4.837   0.247  0.7924 -0.9507 -0.0829
 1875TIP3   OH227039   5.597   3.016   5.690  0.0878  0.3231  0.2901
 1875TIP3    H127040   5.645   2.941   5.656  0.8129  0.9904 -0.1937
 1875TIP3    H227041   5.659   3.089   5.685 -1.3615  1.5111 -1.5562
 1876TIP3   OH227042   1.538   4.974  11.609  0.7547  0.0463 -0.1259
 1876TIP3    H127043   1.481   4.968  11.685  2.5999  0.1121  1.3303
 1876TIP3    H227044   1.506   5.050  11.560 -0.8096 -0.3403  0.2484
 1877TIP3   OH227045   1.017   0.357  17.378 -0.0793 -0.1395  0.0541
 1877TIP3    H127046   1.092   0.363  17.437  0.0320 -0.5955 -0.0346
 1877TIP3    H227047   0.967   0.437  17.394  0.3145  0.0673  0.2647
 1878TIP3   OH227048   3.705   0.243  13.764 -0.2193  0.1683 -0.3475
 1878TIP3    H127049   3.616   0.227  13.795  0.2645  0.5462  1.3554
 1878TIP3    H227050   3.705   0.213  13.673 -1.3797 -2.3541  0.3893
 1879TIP3   OH227051   3.084   5.310  12.059 -0.3398  0.6000  0.3876
 1879TIP3    H127052   3.143   5.353  11.998  0.3115  0.9610  1.2517
 1879TIP3    H227053   3.117   5.334  12.145  0.4640 -2.1209  0.9508
 1880TIP3   OH227054   2.467   1.076  14.865 -0.3878 -0.1106 -0.0078
 1880TIP3    H127055   2.413   1.046  14.939 -1.8709  3.2342  0.4322
 1880TIP3    H227056   2.409   1.133  14.815  1.6755  0.6099 -1.7109
 1881TIP3   OH227057   2.317   2.011   1.601 -0.1573  0.0758 -0.2332
 1881TIP3    H127058   2.257   2.020   1.527 -1.0749 -0.4221  0.4437
 1881TIP3    H227059   2.297   2.086   1.657  2.4866  2.1495 -1.7840
 1882TIP3   OH227060   0.559   3.883   2.766  0.7006  0.1349 -0.2021
 1882TIP3    H127061   0.541   3.846   2.680  0.6332 -0.2786 -0.0098
 1882TIP3    H227062   0.545   3.977   2.755 -0.7116 -0.0693 -0.2773
 1883TIP3   OH227063   5.158   2.589   4.464  0.0112 -0.1216  0.3809
 1883TIP3    H127064   5.088   2.577   4.399 -0.0707 -1.8253  0.7400
 1883TIP3    H227065   5.116   2.638   4.535 -1.2485 -2.2657  1.1937
 1884TIP3   OH227066   3.484   3.354  13.279 -0.1803  0.1232  0.1434
 1884TIP3    H127067   3.460   3.447  13.271  1.2573  0.5737  0.8107
 1884TIP3    H227068   3.478   3.320  13.190  1.5709  1.4535 -0.5213
 1885TIP3   OH227069   3.566   4.113  16.396  0.3105  0.1972  0.3164
 1885TIP3    H127070   3.592   4.178  16.330 -0.5206 -0.6046 -0.8336
 1885TIP3    H227071   3.639   4.051  16.397  0.2612  0.1310  0.0296
 1886TIP3   OH227072   3.609   4.420  15.736 -0.1350 -0.2168 -0.0570
 1886TIP3    H127073   3.660   4.493  15.773  0.3683 -0.8042  0.4175
 1886TIP3    H227074   3.533   4.463  15.696  0.1457  0.5720  0.2262
 1887TIP3   OH227075   5.004   0.712  16.630  0.8988  0.3442 -0.2495
 1887TIP3    H127076   4.927   0.712  16.574  1.6558 -0.2406 -1.3406
 1887TIP3    H227077   5.008   0.624  16.666  1.2722  0.2403 -0.5304
 1888TIP3   OH227078   5.612   6.252  15.193 -0.3871  0.8106 -0.2543
 1888TIP3    H127079   5.650   6.263  15.105 -1.1607  0.8892 -0.5905
 1888TIP3    H227080   5.522   6.223  15.176 -0.6485  1.1559  0.5060
 1889TIP3   OH227081   1.748   2.720  16.223 -0.0139  0.1563  0.2525
 1889TIP3    H127082   1.672   2.777  16.207 -0.7014 -0.5080  1.0483
 1889TIP3    H227083   1.715   2.651  16.281  1.5160  0.6044  1.7736
 1890TIP3   OH227084   0.350   2.057   2.051  0.7239 -0.9620  0.0675
 1890TIP3    H127085   0.356   1.972   2.007 -2.6297 -1.3256  0.0163
 1890TIP3    H227086   0.381   2.120   1.986  1.3272 -1.9751 -0.6563
 1891TIP3   OH227087   2.012   2.350   5.803  0.5244 -0.1994 -0.2865
 1891TIP3    H127088   2.084   2.299   5.840 -0.8527 -1.4525  0.7430
 1891TIP3    H227089   1.961   2.287   5.752  0.8593  0.9484 -2.1756
 1892TIP3   OH227090   1.154   6.034  12.972  0.4358 -0.9543 -0.2300
 1892TIP3    H127091   1.235   6.076  12.942 -0.2650  1.4611  1.0069
 1892TIP3    H227092   1.149   5.953  12.922  1.9212  0.4130 -2.7665
 1893TIP3   OH227093   2.579   6.495   2.166 -0.1236  0.0167  0.3027
 1893TIP3    H127094   2.589   6.586   2.194  1.7098 -0.3737  1.0732
 1893TIP3    H227095   2.583   6.445   2.247  2.3799 -0.9510 -0.3189
 1894TIP3   OH227096   5.583   2.784  17.052  0.2584  0.0117 -0.5585
 1894TIP3    H127097   5.620   2.774  16.964  3.1852  1.0229  0.4342
 1894TIP3    H227098   5.658   2.809  17.106 -1.1766 -1.8588  2.5173
 1895TIP3   OH227099   1.728   4.601  13.429 -0.0193 -0.1065  0.2918
 1895TIP3    H127100   1.795   4.646  13.479  0.9250  0.8084 -1.7090
 1895TIP3    H227101   1.775   4.561  13.356 -1.3967 -1.0933 -0.1005
 1896TIP3   OH227102   6.699   0.024   4.675  0.0445  0.0167 -0.3836
 1896TIP3    H127103   6.653   0.101   4.709  1.4121  0.6938 -0.0136
 1896TIP3    H227104   6.739  -0.016   4.752 -1.6336 -1.7879 -0.3835
 1897TIP3   OH227105   5.164   3.223   4.122  0.3174  0.2679 -0.1824
 1897TIP3    H127106   5.090   3.191   4.174  0.2050 -0.1525 -0.5917
 1897TIP3    H227107   5.209   3.284   4.180 -0.2613  0.4122  0.1266
 1898TIP3   OH227108   5.316   3.601  11.733  0.1456  0.3335  0.0741
 1898TIP3    H127109   5.331   3.564  11.820 -0.6321  0.7781  0.4097
 1898TIP3    H227110   5.252   3.671  11.747 -2.3278 -1.5015 -1.2622
 1899TIP3   OH227111   6.356   3.556   0.530 -0.4005  0.0413 -0.1936
 1899TIP3    H127112   6.304   3.636   0.526 -1.0245 -0.2738  1.1249
 1899TIP3    H227113   6.437   3.580   0.575 -1.0958 -0.2945  1.2964
 1900TIP3   OH227114   3.270   5.875   6.985  0.7300  0.1439  0.3148
 1900TIP3    H127115   3.186   5.828   6.977  1.2082 -0.5769 -0.6642
 1900TIP3    H227116   3.332   5.821   6.938  1.6846  0.8791  0.6991
 1901TIP3   OH227117   0.684   4.765   1.315 -0.0704 -0.5657 -0.1265
 1901TIP3    H127118   0.605   4.813   1.289 -0.8627 -2.1103 -0.7589
 1901TIP3    H227119   0.723   4.818   1.384 -1.0185  0.8374 -0.6186
 1902TIP3   OH227120   2.815   6.087  16.944  0.6467  0.2874  0.0166
 1902TIP3    H127121   2.784   6.000  16.967 -2.1769  0.4954 -2.4478
 1902TIP3    H227122   2.875   6.073  16.871 -0.0158  0.3659 -0.5586
 1903TIP3   OH227123   4.669   5.099  16.216  0.5091 -0.6590  0.4228
 1903TIP3    H127124   4.695   5.007  16.217  0.9594 -0.5351  0.3627
 1903TIP3    H227125   4.749   5.147  16.238  0.0554 -0.3273  1.3978
 1904TIP3   OH227126   6.523   0.031   0.925 -0.8157  0.4924  0.2953
 1904TIP3    H127127   6.529   0.124   0.901  2.2868  0.4777  0.5959
 1904TIP3    H227128   6.597   0.017   0.985 -1.9140 -1.9304  1.1966
 1905TIP3   OH227129   2.283   4.369   5.160  0.6311  0.7140  0.3793
 1905TIP3    H127130   2.215   4.370   5.227  0.2724 -1.1947  0.0903
 1905TIP3    H227131   2.240   4.406   5.083  0.9331  2.5555  1.0334
 1906TIP3   OH227132   2.454   4.044  11.121 -0.0722 -0.0166  0.2310
 1906TIP3    H127133   2.392   4.067  11.052 -1.1496 -3.4073 -0.1517
 1906TIP3    H227134   2.467   4.124  11.170 -3.2773  1.3349 -0.8419
 1907TIP3   OH227135   2.281   2.300   2.217  0.0142  1.1152  0.4320
 1907TIP3    H127136   2.222   2.268   2.149 -0.5626  0.6615  1.1143
 1907TIP3    H227137   2.222   2.326   2.288  0.6193  0.9509  1.0061
 1908TIP3   OH227138   2.498   5.992   1.161 -0.3389 -0.4257 -0.8723
 1908TIP3    H127139   2.440   5.952   1.226  1.4550 -0.9678  0.4750
 1908TIP3    H227140   2.440   6.045   1.106 -2.4113 -2.6338 -0.9791
 1909TIP3   OH227141   3.093   5.020   2.712  0.2609 -0.3692  0.0448
 1909TIP3    H127142   3.042   5.101   2.709  2.5986  1.2338  0.4208
 1909TIP3    H227143   3.143   5.020   2.630  0.3529 -1.3934  0.0889
 1910TIP3   OH227144   0.573   3.470  13.834 -0.3123  0.3474 -0.0635
 1910TIP3    H127145   0.517   3.490  13.909  0.6523 -0.2242  0.8284
 1910TIP3    H227146   0.519   3.491  13.758 -2.1092 -1.0901  0.7331
 1911TIP3   OH227147   4.045   1.972   0.475  0.1859  0.1693 -0.2283
 1911TIP3    H127148   3.976   1.977   0.541  0.4560 -1.8399  0.2614
 1911TIP3    H227149   4.121   2.014   0.517  0.4125 -1.2458  0.8772
 1912TIP3   OH227150   3.825   4.657  13.301  0.0150 -0.5366 -0.5562
 1912TIP3    H127151   3.833   4.569  13.264  0.2484 -1.1531  0.9178
 1912TIP3    H227152   3.911   4.677  13.336 -0.4786 -0.4361  0.6502
 1913TIP3   OH227153   6.605   5.644  15.986 -0.1692  0.0516  0.0263
 1913TIP3    H127154   6.661   5.579  16.028  0.3770 -0.7752 -1.8704
 1913TIP3    H227155   6.520   5.633  16.028 -0.2064 -2.2427 -0.5153
 1914TIP3   OH227156   4.251   2.404  14.812 -0.2485 -0.6148  0.3094
 1914TIP3    H127157   4.316   2.379  14.877 -0.3023 -0.2490  0.5093
 1914TIP3    H227158   4.289   2.481  14.768 -0.7896 -0.0412  0.8242
 1915TIP3   OH227159   4.541   0.750   6.046  0.0926  0.3201  0.2829
 1915TIP3    H127160   4.524   0.714   6.133  0.8859  1.0973  0.7769
 1915TIP3    H227161   4.632   0.781   6.051  0.1162  0.4459 -0.7957
 1916TIP3   OH227162   4.400   2.527  16.640 -0.1728 -0.4696  0.2182
 1916TIP3    H127163   4.469   2.508  16.703 -0.7346  0.0249  1.0034
 1916TIP3    H227164   4.319   2.515  16.689 -0.5981  1.2238 -0.0012
 1917TIP3   OH227165   3.227   3.390  12.280 -0.3172  0.5095  0.3773
 1917TIP3    H127166   3.322   3.394  12.280 -0.3576  1.9481 -0.1154
 1917TIP3    H227167   3.199   3.481  12.275 -1.7225  0.0965  0.2534
 1918TIP3   OH227168   1.891   2.068  13.270 -0.2760  0.6538  0.1593
 1918TIP3    H127169   1.808   2.096  13.308 -0.4299  0.7077 -0.2083
 1918TIP3    H227170   1.958   2.107  13.326 -0.4935  1.3220 -0.0312
 1919TIP3   OH227171   2.536   1.302   0.369  0.3827 -0.5227 -0.3116
 1919TIP3    H127172   2.609   1.343   0.323  0.6228 -0.4928  0.0918
 1919TIP3    H227173   2.508   1.231   0.311  1.2217 -1.0170 -0.1294
 1920TIP3   OH227174   5.526   1.132  12.125  0.8954 -0.1448 -0.7123
 1920TIP3    H127175   5.533   1.040  12.150 -1.4220  0.0973  1.1076
 1920TIP3    H227176   5.439   1.140  12.086  0.4436  1.5265  0.5179
 1921TIP3   OH227177   6.541   4.972  10.624  0.1311  0.3420  0.3806
 1921TIP3    H127178   6.610   4.910  10.650 -1.1890 -1.1844  0.4450
 1921TIP3    H227179   6.495   4.927  10.553 -0.3259  1.6615 -0.1854
 1922TIP3   OH227180   0.686   0.430   3.577  0.3107 -0.1943 -0.6800
 1922TIP3    H127181   0.595   0.458   3.573  0.1853 -0.6291 -0.9731
 1922TIP3    H227182   0.734   0.508   3.604 -0.2619 -0.2126  0.4348
 1923TIP3   OH227183   5.555   5.126  15.356  0.0855 -0.5437 -0.6181
 1923TIP3    H127184   5.524   5.152  15.269 -1.3802  0.3219  0.1104
 1923TIP3    H227185   5.527   5.035  15.365 -0.0836 -0.5246 -0.9256
 1924TIP3   OH227186   6.201   2.167   3.050 -0.9166 -0.5903  0.5832
 1924TIP3    H127187   6.234   2.125   3.130 -0.4375 -1.7906 -0.2052
 1924TIP3    H227188   6.276   2.216   3.016 -1.5647  1.2361  1.6684
 1925TIP3   OH227189   2.302   2.038   2.862 -0.7662  0.3857  0.3600
 1925TIP3    H127190   2.227   2.083   2.824 -1.2753  0.0767  0.9815
 1925TIP3    H227191   2.296   1.948   2.829 -1.8933 -0.2088  2.0711
 1926TIP3   OH227192   5.750   5.156  11.392 -0.4310 -0.5335 -0.4324
 1926TIP3    H127193   5.713   5.208  11.463 -0.3899 -1.3449  0.1926
 1926TIP3    H227194   5.677   5.103  11.360  0.0795 -1.8753  0.5673
 1927TIP3   OH227195   3.390   6.599  13.145 -0.3488  0.3137  0.1611
 1927TIP3    H127196   3.404   6.550  13.064 -0.4767  1.0587 -0.3152
 1927TIP3    H227197   3.296   6.587  13.164 -0.5432  0.9633 -0.3521
 1928TIP3   OH227198   4.159   6.244   5.800  0.0767  0.3642 -0.0503
 1928TIP3    H127199   4.157   6.242   5.704 -1.8631  1.4706 -0.0884
 1928TIP3    H227200   4.145   6.336   5.822 -2.2227 -0.2346  1.2721
 1929TIP3   OH227201   1.650   2.882  16.475 -0.0285  0.1416 -0.2362
 1929TIP3    H127202   1.561   2.849  16.481  0.2381 -0.6299 -0.3840
 1929TIP3    H227203   1.645   2.953  16.411 -0.7738  0.9860  0.7398
 1930TIP3   OH227204   5.103   5.901   0.816 -0.0581 -0.4045 -0.4629
 1930TIP3    H127205   5.163   5.930   0.884 -0.4927 -0.3661 -0.0959
 1930TIP3    H227206   5.159   5.884   0.740  0.3243  0.4024 -0.3702
 1931TIP3   OH227207   1.689   5.542   2.605 -0.3657  0.1200 -0.0196
 1931TIP3    H127208   1.618   5.557   2.541 -0.9329  1.4520  0.8740
 1931TIP3    H227209   1.693   5.623   2.655  3.5550  1.1579 -1.6796
 1932TIP3   OH227210   1.827   5.218   4.063 -0.2770  0.0045  0.1854
 1932TIP3    H127211   1.837   5.202   4.157 -1.0428  2.7140  0.8029
 1932TIP3    H227212   1.790   5.137   4.029 -1.7778 -0.4207  2.5771
 1933TIP3   OH227213   2.775   4.310   1.599  0.2050  0.0112  0.6798
 1933TIP3    H127214   2.870   4.312   1.587  0.0098  0.4711 -0.9268
 1933TIP3    H227215   2.754   4.217   1.609  0.6986 -0.1856 -0.0727
 1934TIP3   OH227216   0.458   2.217   0.064 -0.0065  0.2719 -0.2095
 1934TIP3    H127217   0.493   2.128   0.054  2.5629  1.2242 -0.5316
 1934TIP3    H227218   0.457   2.252  -0.026 -1.9554  0.2796 -0.2158
 1935TIP3   OH227219   5.367   2.615  16.896 -0.1131 -0.1295  0.0457
 1935TIP3    H127220   5.404   2.590  16.981  0.0151  0.3066  0.1206
 1935TIP3    H227221   5.282   2.570  16.893  0.7194 -1.7311 -0.4519
 1936TIP3   OH227222   4.750   0.882   4.676  0.1317  0.2208 -0.9068
 1936TIP3    H127223   4.836   0.877   4.718  0.7356  1.6603 -1.8834
 1936TIP3    H227224   4.754   0.820   4.604 -0.0376 -0.4758 -0.3269
 1937TIP3   OH227225   3.969   3.449  17.074  0.4393 -0.2681 -0.1724
 1937TIP3    H127226   3.944   3.414  17.160 -0.4496 -1.3324 -0.8358
 1937TIP3    H227227   3.888   3.484  17.038  0.6339 -0.5413 -0.8976
 1938TIP3   OH227228   2.846   5.186  12.014  0.5650 -0.6984 -0.0874
 1938TIP3    H127229   2.858   5.207  11.922  0.1805 -1.4615 -0.3082
 1938TIP3    H227230   2.935   5.187  12.050  0.6875 -0.1062 -0.3942
 1939TIP3   OH227231   5.776   2.097  12.561 -0.0960 -0.9063  0.0248
 1939TIP3    H127232   5.826   2.158  12.615 -1.3533  1.4989 -1.3334
 1939TIP3    H227233   5.842   2.041  12.519  1.1392 -0.2732  1.0716
 1940TIP3   OH227234   6.378   0.244  13.215 -0.4318  0.4524  0.9302
 1940TIP3    H127235   6.431   0.197  13.151 -1.5248  1.6306 -0.9140
 1940TIP3    H227236   6.294   0.198  13.214 -0.9902  1.4647  0.2712
 1941TIP3   OH227237   3.191   1.050  15.573  0.0658  0.0703  0.3865
 1941TIP3    H127238   3.282   1.049  15.544  0.0812  0.8123  0.3896
 1941TIP3    H227239   3.172   1.142  15.590 -1.0757  0.0912 -0.8375
 1942TIP3   OH227240   3.771   0.476   2.351  0.0040 -0.1576  0.6961
 1942TIP3    H127241   3.686   0.448   2.386 -0.6164  0.3532 -0.3489
 1942TIP3    H227242   3.825   0.490   2.428 -0.4118 -1.8456  1.3474
 1943TIP3   OH227243   3.007   2.575  10.933  0.0889  0.4809  0.0616
 1943TIP3    H127244   2.945   2.646  10.915 -0.9170 -0.6169 -0.9717
 1943TIP3    H227245   2.952   2.499  10.951  1.1118 -0.6078 -1.1883
 1944TIP3   OH227246   2.809   4.181  11.633 -0.0326  0.4364  0.2767
 1944TIP3    H127247   2.772   4.145  11.553  1.4369  0.6425 -0.5354
 1944TIP3    H227248   2.736   4.182  11.696 -0.9881 -0.5194 -0.7872
 1945TIP3   OH227249   5.965   0.737  17.140 -0.4278 -0.2928  0.4933
 1945TIP3    H127250   6.045   0.700  17.178  0.7680  0.5508 -1.0860
 1945TIP3    H227251   5.909   0.660  17.124  0.0487 -0.8971  1.5772
 1946TIP3   OH227252   4.938   5.971  16.534 -0.1667 -0.6380  0.1841
 1946TIP3    H127253   4.902   6.052  16.497  2.0985  1.2570  1.7636
 1946TIP3    H227254   5.002   6.002  16.599  2.1514 -3.7200 -0.4401
 1947TIP3   OH227255   0.206   0.147   4.891  0.1470  0.0172  0.5405
 1947TIP3    H127256   0.200   0.220   4.829  1.9974 -0.4478 -0.2521
 1947TIP3    H227257   0.126   0.096   4.876  0.4158  0.0584 -1.3306
 1948TIP3   OH227258   2.615   4.438  15.579 -0.0755 -0.1117 -0.2700
 1948TIP3    H127259   2.649   4.503  15.517  0.2766  0.1987  0.2436
 1948TIP3    H227260   2.534   4.478  15.612 -0.2988 -0.3072 -0.5784
 1949TIP3   OH227261   1.179   2.935   4.980 -0.2466  0.0200 -0.1750
 1949TIP3    H127262   1.133   2.934   5.064  2.0017 -0.4752  1.1397
 1949TIP3    H227263   1.144   3.012   4.934 -2.1041 -0.1737  0.8479
 1950TIP3   OH227264   3.425   4.667  14.969  0.1212  0.5364  0.0536
 1950TIP3    H127265   3.385   4.681  15.055  1.0585 -1.8717  0.9852
 1950TIP3    H227266   3.519   4.674  14.986  0.3219 -0.1620 -0.7222
 1951TIP3   OH227267   0.539   1.508  17.345 -0.6684 -0.3150  0.2298
 1951TIP3    H127268   0.555   1.435  17.285 -2.4417 -0.6556  0.0892
 1951TIP3    H227269   0.606   1.573  17.323  0.6104 -1.6679 -0.0053
 1952TIP3   OH227270   0.173   4.236   0.989  0.0022  0.0304 -0.3009
 1952TIP3    H127271   0.256   4.272   1.022 -0.1860  0.1183  0.0828
 1952TIP3    H227272   0.124   4.313   0.961  0.6290 -0.1239 -1.9106
 1953TIP3   OH227273   2.352   4.883   1.683  0.2579  0.3192  0.3443
 1953TIP3    H127274   2.354   4.809   1.742 -1.3786 -1.5340 -1.7437
 1953TIP3    H227275   2.415   4.860   1.614  0.7861  1.5515  0.3954
 1954TIP3   OH227276   6.044   6.558   3.139 -0.4243 -0.3022 -0.2936
 1954TIP3    H127277   6.011   6.632   3.087 -2.1998  0.6114  1.9567
 1954TIP3    H227278   5.965   6.517   3.175  0.6615 -1.6724  0.6306
 1955TIP3   OH227279   0.669   0.017   1.676  0.7489 -0.2558  0.3047
 1955TIP3    H127280   0.728   0.089   1.656  0.0869  1.2199  3.1112
 1955TIP3    H227281   0.720  -0.042   1.731 -0.1128  0.7548  2.2897
 1956TIP3   OH227282   2.415   6.290   5.511 -0.1492 -0.6202  0.0617
 1956TIP3    H127283   2.336   6.268   5.560 -0.7024  0.9261 -0.0616
 1956TIP3    H227284   2.403   6.247   5.426 -0.3630 -1.2490  0.4005
 1957TIP3   OH227285   6.532   3.760   0.464 -0.1553 -0.7928  0.0593
 1957TIP3    H127286   6.449   3.761   0.416  0.7048 -0.4230 -1.5260
 1957TIP3    H227287   6.579   3.684   0.429 -0.2634 -1.7079  1.8029
 1958TIP3   OH227288   6.166   4.245   6.746  0.0279  0.4975 -0.2781
 1958TIP3    H127289   6.228   4.258   6.674  0.5544 -0.4751 -0.0108
 1958TIP3    H227290   6.134   4.156   6.735 -0.4834  0.6105  0.2427
 1959TIP3   OH227291   3.444   3.052   2.129  0.1865  0.0534 -0.4740
 1959TIP3    H127292   3.464   3.065   2.222 -2.3641  0.6762  0.0661
 1959TIP3    H227293   3.469   2.962   2.111  0.1087 -0.2913  1.0192
 1960TIP3   OH227294   1.444   0.571   5.028 -0.1673 -0.3356 -0.5611
 1960TIP3    H127295   1.425   0.630   4.956  1.1168  0.0870 -0.5866
 1960TIP3    H227296   1.359   0.536   5.054 -0.8454  0.7828 -1.1795
 1961TIP3   OH227297   0.264   3.553   4.245  0.4890  0.3751 -0.3176
 1961TIP3    H127298   0.345   3.603   4.248  0.2737  0.6771  1.4319
 1961TIP3    H227299   0.195   3.619   4.243  0.2565  0.1247 -0.6481
 1962TIP3   OH227300   4.482   3.919  14.812  0.3205 -0.2081 -0.2894
 1962TIP3    H127301   4.577   3.925  14.820  0.5370 -0.2162 -2.1972
 1962TIP3    H227302   4.464   3.947  14.721 -1.5191  0.0406  0.1001
 1963TIP3   OH227303   4.416   2.808   5.897  0.2503 -0.3030  0.0267
 1963TIP3    H127304   4.327   2.833   5.874  0.2145 -1.1475 -0.8135
 1963TIP3    H227305   4.411   2.785   5.990  0.3096  2.7263  0.8569
 1964TIP3   OH227306   2.516   1.992   5.399 -0.3368  0.7879 -0.1385
 1964TIP3    H127307   2.495   2.048   5.324 -1.8115  1.5946  0.8198
 1964TIP3    H227308   2.534   2.053   5.471 -2.1478  0.1045  0.9761
 1965TIP3   OH227309   0.436   5.733  11.282  0.1295 -0.3716 -0.5218
 1965TIP3    H127310   0.452   5.716  11.189 -0.1602  1.3587 -0.9167
 1965TIP3    H227311   0.496   5.803  11.305 -1.6311  1.0894 -0.1243
 1966TIP3   OH227312   1.148   2.902  11.496 -0.1791  0.2543 -0.1750
 1966TIP3    H127313   1.236   2.874  11.471 -0.9819 -1.6500 -1.0481
 1966TIP3    H227314   1.098   2.897  11.415 -1.0503  1.6244  0.2452
 1967TIP3   OH227315   3.656   2.317   5.124 -0.0205 -0.1123  0.4360
 1967TIP3    H127316   3.690   2.404   5.104  0.1853 -0.2342  0.2481
 1967TIP3    H227317   3.570   2.314   5.081 -0.4391  0.3309  1.2283
 1968TIP3   OH227318   0.854   4.602  12.003  0.5918 -0.3464  0.0384
 1968TIP3    H127319   0.797   4.548  11.949 -0.1834  0.1665  0.3186
 1968TIP3    H227320   0.868   4.550  12.082  1.1594 -0.8040 -0.3597
 1969TIP3   OH227321   5.385   3.068  11.091 -0.9016  0.1543 -0.2137
 1969TIP3    H127322   5.458   3.070  11.030 -0.3031  0.3685  0.4986
 1969TIP3    H227323   5.308   3.084  11.036 -0.4849 -0.6771 -1.0514
 1970TIP3   OH227324   2.963   5.666  15.135 -0.0693  0.2316 -0.5580
 1970TIP3    H127325   2.932   5.578  15.155 -0.2700  0.7650  1.6660
 1970TIP3    H227326   2.884   5.717  15.119 -0.4388  1.1455  3.2655
 1971TIP3   OH227327   2.099   1.330  15.551  0.2646 -0.2811  0.2892
 1971TIP3    H127328   2.081   1.397  15.617 -0.8340  0.4795 -0.7199
 1971TIP3    H227329   2.026   1.269  15.558  0.2989 -0.3581 -0.0089
 1972TIP3   OH227330   1.697   5.739  16.984 -0.2289 -0.1283  0.4608
 1972TIP3    H127331   1.708   5.709  17.074 -0.0847  1.0742  0.8469
 1972TIP3    H227332   1.634   5.810  16.989  0.3534  0.4626 -0.2759
 1973TIP3   OH227333   4.357   6.010  13.337 -0.7870 -0.5212  0.2873
 1973TIP3    H127334   4.345   6.028  13.430  0.1978 -0.9258  0.4992
 1973TIP3    H227335   4.413   6.081  13.306  0.3434 -1.3497  0.3950
 1974TIP3   OH227336   3.773   4.738  12.523  0.0174 -0.0583  0.0472
 1974TIP3    H127337   3.716   4.797  12.571 -1.3240 -1.6396  0.4924
 1974TIP3    H227338   3.754   4.756  12.430  0.3941  0.8944  0.1433
 1975TIP3   OH227339   5.954   1.159  13.675 -0.1373 -0.0764  0.3211
 1975TIP3    H127340   5.859   1.143  13.674 -0.0334 -1.7783 -3.8794
 1975TIP3    H227341   5.992   1.076  13.647  2.5346  0.9977  0.4738
 1976TIP3   OH227342   4.784   2.139  12.631  0.3472 -0.3489 -0.0984
 1976TIP3    H127343   4.820   2.095  12.708  0.1152 -1.3120 -0.5171
 1976TIP3    H227344   4.748   2.221  12.665  0.2869 -0.7334  0.8176
 1977TIP3   OH227345   1.474   2.434  14.877 -0.2528 -0.0882 -0.2824
 1977TIP3    H127346   1.494   2.346  14.846 -0.9551  0.0666 -1.1857
 1977TIP3    H227347   1.422   2.420  14.956  0.7943 -0.4751  0.3629
 1978TIP3   OH227348   2.501   1.614  13.333 -0.1820  0.2091  0.2082
 1978TIP3    H127349   2.479   1.704  13.358  0.5494  0.5649 -0.3993
 1978TIP3    H227350   2.449   1.599  13.254 -0.0161  0.2236  0.0982
 1979TIP3   OH227351   1.323   1.205  17.179 -0.2176 -0.1671  0.2384
 1979TIP3    H127352   1.387   1.209  17.108 -1.2790  0.0659 -0.7321
 1979TIP3    H227353   1.308   1.111  17.192 -0.3829 -0.1998 -0.1840
 1980TIP3   OH227354   1.547   5.733   2.414  0.3665 -0.0930 -0.0724
 1980TIP3    H127355   1.621   5.720   2.354 -0.3969  0.1436 -1.0877
 1980TIP3    H227356   1.582   5.791   2.482  1.4737 -1.0046  0.1677
 1981TIP3   OH227357   0.431   5.438   5.785 -0.0583 -0.2736 -0.6213
 1981TIP3    H127358   0.443   5.349   5.754 -1.2228 -0.7127  0.1160
 1981TIP3    H227359   0.451   5.434   5.879  0.7951  0.4514 -0.7525
 1982TIP3   OH227360   2.392   4.884  15.000  0.4786  0.0464 -0.3252
 1982TIP3    H127361   2.376   4.816  15.066 -0.0871  0.3392 -0.1545
 1982TIP3    H227362   2.486   4.879  14.983  0.6620  0.0626  0.6127
 1983TIP3   OH227363   2.381   1.416  12.292 -0.2554  0.3889 -0.0108
 1983TIP3    H127364   2.310   1.421  12.227 -0.7078  0.6914  0.4990
 1983TIP3    H227365   2.366   1.491  12.349 -0.0216 -0.0278  0.6003
 1984TIP3   OH227366   1.465   0.885  15.730  0.3974  0.0523 -0.6147
 1984TIP3    H127367   1.539   0.928  15.687 -0.1759  0.1199 -1.5618
 1984TIP3    H227368   1.407   0.957  15.755  0.2925 -0.0487 -0.5659
 1985TIP3   OH227369   2.979   2.761  11.163  0.2250  0.1894  0.5441
 1985TIP3    H127370   2.951   2.765  11.072 -1.2873  0.8402  1.0127
 1985TIP3    H227371   3.073   2.743  11.158  0.0655 -0.3388 -1.1185
 1986TIP3   OH227372   1.268   3.839  13.183 -0.1948  0.4866 -0.1415
 1986TIP3    H127373   1.209   3.900  13.138 -0.6808 -0.1846 -0.4371
 1986TIP3    H227374   1.325   3.895  13.235  0.3493  1.2981 -1.5317
 1987TIP3   OH227375   0.832   4.173   2.748  0.5211 -0.1054  0.3200
 1987TIP3    H127376   0.830   4.132   2.835  2.1811 -0.9850 -0.0240
 1987TIP3    H227377   0.816   4.265   2.765 -0.5526 -0.4540  1.4037
 1988TIP3   OH227378   2.065   1.801  14.070  0.3602  0.2596 -0.6248
 1988TIP3    H127379   2.102   1.887  14.089 -0.8737  0.6768  0.0067
 1988TIP3    H227380   1.970   1.812  14.082  0.3117 -1.6547  1.4145
 1989TIP3   OH227381   2.617   4.744  11.578 -0.5163 -0.2569 -0.3034
 1989TIP3    H127382   2.541   4.691  11.555 -0.1464 -0.8621 -0.1480
 1989TIP3    H227383   2.681   4.681  11.612  0.6321  0.0246 -1.8472
 1990TIP3   OH227384   1.206   1.296  14.239  0.1887  0.0994  0.1407
 1990TIP3    H127385   1.291   1.331  14.264  0.3688 -1.0018  1.1680
 1990TIP3    H227386   1.154   1.373  14.217  1.2361  0.8336  0.1838
 1991TIP3   OH227387   5.955   4.583   1.051  0.2534  0.3150  0.4400
 1991TIP3    H127388   6.032   4.536   1.085  0.1871 -0.6552 -0.6810
 1991TIP3    H227389   5.992   4.658   1.005  0.5548 -0.2370 -0.2360
 1992TIP3   OH227390   0.784   5.743   3.922 -0.2849 -0.0465  0.1410
 1992TIP3    H127391   0.856   5.704   3.872 -0.8205 -0.5486 -0.2488
 1992TIP3    H227392   0.708   5.736   3.863 -1.0341 -1.0467  1.1905
 1993TIP3   OH227393   1.527   5.134   1.742  0.6144 -0.1886 -0.2179
 1993TIP3    H127394   1.611   5.092   1.759 -0.8335 -2.3926  2.2744
 1993TIP3    H227395   1.463   5.062   1.748 -1.5539  1.5609 -0.9858
 1994TIP3   OH227396   6.202   4.113   2.801 -0.0181 -0.1252 -0.2900
 1994TIP3    H127397   6.273   4.142   2.744 -0.0480  0.2227 -0.1495
 1994TIP3    H227398   6.243   4.104   2.887  0.2584 -1.5820 -0.5423
 1995TIP3   OH227399   2.420   0.382   6.534  0.5438 -0.3406 -0.2431
 1995TIP3    H127400   2.512   0.403   6.549  0.0575  1.9254 -0.1342
 1995TIP3    H227401   2.375   0.467   6.532 -1.1959 -1.1909 -2.7428
 1996TIP3   OH227402   4.857   0.568   3.613 -0.0241 -0.0225  0.1298
 1996TIP3    H127403   4.940   0.527   3.591 -0.1011 -1.2590  1.9403
 1996TIP3    H227404   4.799   0.545   3.541  0.6975 -0.7078 -0.2455
 1997TIP3   OH227405   1.882   3.475  15.955 -0.3641 -0.4813  0.4606
 1997TIP3    H127406   1.808   3.505  15.903  0.9003 -0.1114 -1.2125
 1997TIP3    H227407   1.901   3.387  15.920  0.9756  0.0773 -0.2950
 1998TIP3   OH227408   3.490   0.859  15.522  0.6260 -0.2671  0.2410
 1998TIP3    H127409   3.541   0.936  15.497 -0.1090  0.6275  1.3959
 1998TIP3    H227410   3.486   0.806  15.442  0.3747  1.3311 -0.8603
 1999TIP3   OH227411   2.827   1.429  15.889  0.4151  0.2511  0.6395
 1999TIP3    H127412   2.807   1.335  15.881 -1.8111  0.7591 -0.4315
 1999TIP3    H227413   2.827   1.461  15.799 -2.0678  1.8404  1.1069
 2000TIP3   OH227414   0.946   1.600  15.636  0.0284 -0.1813  0.1673
 2000TIP3    H127415   0.852   1.590  15.652 -0.7217  1.9305 -2.1953
 2000TIP3    H227416   0.973   1.670  15.695 -0.6639  1.3475 -1.2399
 2001TIP3   OH227417   0.480   5.931  15.998  0.1811 -0.2396 -0.7651
 2001TIP3    H127418   0.464   5.839  15.976  2.0633 -0.1508 -2.8245
 2001TIP3    H227419   0.443   5.980  15.925  0.3933  0.5817 -0.3338
 2002TIP3   OH227420   4.256   6.324   2.001  0.1048 -0.7396 -0.5012
 2002TIP3    H127421   4.303   6.398   2.039 -0.3276 -0.5118 -0.4077
 2002TIP3    H227422   4.288   6.248   2.049  1.1661 -0.7230 -1.1526
 2003TIP3   OH227423   0.451   0.884   0.688  0.6030 -0.3399  0.2040
 2003TIP3    H127424   0.426   0.967   0.727  2.8875  0.1232  0.7879
 2003TIP3    H227425   0.413   0.887   0.600  1.7422  1.9386 -0.2876
 2004TIP3   OH227426   3.432   5.834  15.204 -0.0130 -0.3434  0.3463
 2004TIP3    H127427   3.358   5.803  15.256 -0.9699  1.3996  0.1052
 2004TIP3    H227428   3.394   5.852  15.118  0.7428  0.3645  0.1525
 2005TIP3   OH227429   6.257   0.697   3.397  0.1135  0.6131 -0.7038
 2005TIP3    H127430   6.206   0.616   3.406  2.1063 -0.6664 -0.4133
 2005TIP3    H227431   6.218   0.740   3.321 -0.3213 -1.1400 -1.5364
 2006TIP3   OH227432   1.726   1.099  13.522 -0.2557  0.0715  0.0414
 2006TIP3    H127433   1.815   1.132  13.536 -0.2338  0.7693 -1.4816
 2006TIP3    H227434   1.669   1.162  13.566 -0.0263 -0.0694  0.5426
 2007TIP3   OH227435   1.169   3.696   1.396  0.0912  0.2413 -0.5274
 2007TIP3    H127436   1.183   3.765   1.330 -2.4884 -0.0512 -1.4834
 2007TIP3    H227437   1.077   3.704   1.420 -0.0457 -2.2858  0.0442
 2008TIP3   OH227438   1.057   4.163  15.259  0.0172  0.2535  0.1207
 2008TIP3    H127439   1.132   4.191  15.207  0.7009  0.8755  1.3994
 2008TIP3    H227440   1.002   4.114  15.198  1.1950  0.2478 -0.9632
 2009TIP3   OH227441   4.621   4.227  12.498  0.0064 -0.5565  0.3276
 2009TIP3    H127442   4.538   4.233  12.451 -1.2562  1.3976  2.5954
 2009TIP3    H227443   4.597   4.195  12.585  1.3569  1.4805  1.5263
 2010TIP3   OH227444   2.293   1.150  12.239  0.0137 -0.2326 -0.0658
 2010TIP3    H127445   2.246   1.122  12.160 -0.3792  0.6192 -0.1478
 2010TIP3    H227446   2.332   1.234  12.215  0.2880 -0.1974  0.4988
 2011TIP3   OH227447   0.778   3.616   3.580  0.3573 -0.1603 -0.0584
 2011TIP3    H127448   0.750   3.528   3.555  0.1043  0.4893 -2.2929
 2011TIP3    H227449   0.706   3.651   3.632 -0.6314 -0.4340 -1.2075
 2012TIP3   OH227450   1.174   0.375   4.385 -0.0846  0.8529 -0.1148
 2012TIP3    H127451   1.266   0.365   4.407 -0.0548  0.9264 -0.2042
 2012TIP3    H227452   1.160   0.470   4.381 -0.4186  0.8552  0.9482
 2013TIP3   OH227453   0.853   5.805   3.460 -0.1540  0.3292  0.5449
 2013TIP3    H127454   0.822   5.737   3.400 -0.8878 -1.9138  3.2395
 2013TIP3    H227455   0.781   5.868   3.464 -0.3158  0.2156 -0.5157
 2014TIP3   OH227456   5.314   3.280   6.522 -0.6379 -0.1304 -0.4329
 2014TIP3    H127457   5.276   3.193   6.510  0.4849 -0.7512  0.3316
 2014TIP3    H227458   5.375   3.289   6.448 -1.8006  0.6289 -1.3341
 2015TIP3   OH227459   4.821   6.057   1.203 -0.3696  0.5699  0.5364
 2015TIP3    H127460   4.768   6.002   1.261  0.0958  1.0846  1.4664
 2015TIP3    H227461   4.821   6.010   1.119 -2.0969  0.4288  0.5651
 2016TIP3   OH227462   3.650   6.234  16.156 -0.2543  0.3684  0.5310
 2016TIP3    H127463   3.704   6.168  16.201 -0.4307  0.7484  1.3130
 2016TIP3    H227464   3.600   6.184  16.091  0.5039 -0.0927  0.2872
 2017TIP3   OH227465   5.591   6.530  12.867 -0.3001  0.8464  0.1787
 2017TIP3    H127466   5.556   6.475  12.797  0.9505  1.7937 -1.2678
 2017TIP3    H227467   5.650   6.473  12.915 -0.2435  0.4967 -0.3017
 2018TIP3   OH227468   3.774   5.313  10.521 -0.5010  0.1607  0.2637
 2018TIP3    H127469   3.719   5.384  10.486 -1.4202 -0.0132  1.2970
 2018TIP3    H227470   3.843   5.358  10.570  0.0581  0.3709 -0.6890
 2019TIP3   OH227471   5.195   4.464  15.430 -0.0521  0.2103 -0.3574
 2019TIP3    H127472   5.222   4.555  15.445  0.5541  0.0198 -0.2598
 2019TIP3    H227473   5.142   4.468  15.351  0.3577  0.5883 -0.6223
 2020TIP3   OH227474   4.317   5.979   1.702  0.6086 -0.1619  0.3638
 2020TIP3    H127475   4.401   5.940   1.678  0.0225 -1.4171  0.2866
 2020TIP3    H227476   4.338   6.042   1.770  2.0095  1.7264 -1.6667
 2021TIP3   OH227477   2.324   0.067   1.643 -0.8461  0.2868  0.3812
 2021TIP3    H127478   2.272   0.138   1.605 -2.4791 -0.8760  0.3608
 2021TIP3    H227479   2.264   0.022   1.702  0.2453 -0.8884  0.6238
 2022TIP3   OH227480   3.498   3.338   3.657 -0.1422 -0.0211 -0.1863
 2022TIP3    H127481   3.403   3.324   3.649 -0.2324 -0.3551  1.2643
 2022TIP3    H227482   3.528   3.268   3.715  0.7302  0.9868  0.6248
 2023TIP3   OH227483   2.665   6.227   4.396 -0.2784  0.2199 -0.2680
 2023TIP3    H127484   2.626   6.308   4.363  1.5414  1.2927  0.0965
 2023TIP3    H227485   2.654   6.233   4.491 -1.7160 -0.8569 -0.3182
 2024TIP3   OH227486   4.644   5.953   4.569 -0.5901  0.1516 -0.1216
 2024TIP3    H127487   4.729   5.911   4.556  0.5614  2.0990  0.7353
 2024TIP3    H227488   4.612   5.971   4.480  0.3415  0.2432 -0.4448
 2025TIP3   OH227489   0.050   4.486   5.446  0.5412  0.5834  0.1660
 2025TIP3    H127490   0.040   4.520   5.357 -0.0556 -0.0861 -0.0331
 2025TIP3    H227491  -0.028   4.432   5.460  2.5020 -2.7516 -0.4579
 2026TIP3   OH227492   0.923   0.900  13.773  0.0269 -0.2488 -0.6385
 2026TIP3    H127493   1.016   0.882  13.787 -0.0409  0.1787  0.4039
 2026TIP3    H227494   0.894   0.831  13.712  0.8823 -0.7313 -0.5101
 2027TIP3   OH227495   0.622   0.406  13.384 -0.0942 -0.4669  0.0240
 2027TIP3    H127496   0.675   0.461  13.327 -0.6762 -1.1653 -1.2350
 2027TIP3    H227497   0.595   0.464  13.455 -1.3192  1.1158 -1.6437
 2028TIP3   OH227498   2.033   1.656   0.102 -0.5490 -0.5503  0.2231
 2028TIP3    H127499   2.101   1.599   0.067 -1.4642 -0.5016 -1.7994
 2028TIP3    H227500   2.007   1.614   0.184  2.6012  0.0411  1.6665
 2029TIP3   OH227501   3.046   2.342  14.345  0.1927  0.4710 -0.1419
 2029TIP3    H127502   3.022   2.251  14.330  0.6403  0.5417 -1.4379
 2029TIP3    H227503   3.133   2.351  14.305 -0.8803  2.0636 -2.3146
 2030TIP3   OH227504   4.459   3.415  15.562 -0.3345 -0.1009 -0.2848
 2030TIP3    H127505   4.507   3.366  15.629 -0.5365  0.2987  0.1566
 2030TIP3    H227506   4.526   3.439  15.498 -0.3794 -1.7162 -0.9846
 2031TIP3   OH227507   1.062   3.661   3.966 -0.2294 -0.2249  0.3373
 2031TIP3    H127508   1.102   3.732   3.916 -1.8309  0.3112 -0.2370
 2031TIP3    H227509   1.026   3.703   4.044 -4.0321  0.2885 -1.5084
 2032TIP3   OH227510   5.700   4.644  14.057  0.6735  0.3431 -0.4562
 2032TIP3    H127511   5.637   4.693  14.110  1.0157 -2.0727  2.5046
 2032TIP3    H227512   5.755   4.710  14.017 -2.2749  2.4768 -1.3653
 2033TIP3   OH227513   6.688   0.949   0.902 -0.1266  0.0601  0.1050
 2033TIP3    H127514   6.726   0.968   0.817 -0.6144  1.2565  0.1398
 2033TIP3    H227515   6.715   1.023   0.958  0.1190 -0.6613  0.9678
 2034TIP3   OH227516   6.031   4.606   2.259  0.2909 -0.4903 -0.0649
 2034TIP3    H127517   5.985   4.526   2.232  0.8976 -0.9657  0.2895
 2034TIP3    H227518   6.106   4.575   2.309  1.0725  0.2733 -0.7318
 2035TIP3   OH227519   5.626   4.455  16.317  0.2481 -0.1409  0.0815
 2035TIP3    H127520   5.702   4.486  16.267 -1.8020  0.8703 -2.6999
 2035TIP3    H227521   5.586   4.535  16.351 -0.4267 -0.4857  0.1222
 2036TIP3   OH227522   5.058   0.100  12.162 -0.0317  0.2788 -0.3471
 2036TIP3    H127523   5.149   0.070  12.156 -0.3228 -1.1704  1.4285
 2036TIP3    H227524   5.010   0.039  12.107 -0.1951 -0.5425  0.6568
 2037TIP3   OH227525   2.921   2.682   4.316  0.0508  0.0687  0.3508
 2037TIP3    H127526   2.859   2.723   4.376 -2.1185 -1.8293 -0.4741
 2037TIP3    H227527   2.971   2.622   4.371  0.3541  0.7205  0.8015
 2038TIP3   OH227528   0.097   1.607   1.468 -0.5087  0.1387 -0.0028
 2038TIP3    H127529   0.014   1.574   1.503 -0.8479  1.6712  0.7179
 2038TIP3    H227530   0.107   1.693   1.508  0.8324  0.4903 -1.0401
 2039TIP3   OH227531   2.003   5.039   3.754 -0.4192 -0.3718 -0.2449
 2039TIP3    H127532   1.927   5.073   3.801  0.6677  0.0488  1.2890
 2039TIP3    H227533   2.003   4.945   3.773 -1.5503 -0.7228 -1.7672
 2040TIP3   OH227534   3.414   5.324  11.319 -0.0980 -0.2120 -0.4738
 2040TIP3    H127535   3.391   5.381  11.245 -2.5122  0.1222  0.4376
 2040TIP3    H227536   3.333   5.314  11.368  0.9040 -2.2764  0.9189
 2041TIP3   OH227537   3.908   3.983  14.909  0.2495 -0.0003  0.2769
 2041TIP3    H127538   3.915   3.937  14.993  0.3979  1.8029  1.2999
 2041TIP3    H227539   3.814   4.000  14.899  0.1481 -0.8113 -0.2958
 2042TIP3   OH227540   0.171   4.453   2.235 -0.1986 -0.4591 -0.5037
 2042TIP3    H127541   0.214   4.521   2.287 -0.6962 -0.7668  0.3298
 2042TIP3    H227542   0.177   4.374   2.289 -2.8278 -0.2658  0.2227
 2043TIP3   OH227543   4.957   5.753   3.426  0.1153 -0.0946 -0.5045
 2043TIP3    H127544   5.037   5.776   3.473 -0.3583  3.7664 -1.2924
 2043TIP3    H227545   4.956   5.657   3.425  3.2333 -0.2867  1.9598
 2044TIP3   OH227546   3.472   2.215   5.530 -0.2745  0.0518  0.0676
 2044TIP3    H127547   3.503   2.125   5.518 -0.2702 -0.2660  2.0434
 2044TIP3    H227548   3.551   2.269   5.519 -0.1523 -0.2342 -0.4887
 2045TIP3   OH227549   6.598   2.275   2.609 -0.2414  0.1337  0.5798
 2045TIP3    H127550   6.562   2.349   2.657  0.3862  0.5824  0.3757
 2045TIP3    H227551   6.551   2.276   2.525 -2.0523 -1.2483  1.5026
 2046TIP3   OH227552   1.045   2.763  16.391 -0.4113 -0.3102 -0.1661
 2046TIP3    H127553   1.078   2.741  16.478  1.9434  1.4290 -0.5280
 2046TIP3    H227554   0.985   2.836  16.406 -0.5388 -0.4555  0.0439
 2047TIP3   OH227555   1.653   4.697  15.905  0.3307 -0.4513  0.1233
 2047TIP3    H127556   1.695   4.746  15.834 -1.3192 -0.0089 -0.5945
 2047TIP3    H227557   1.688   4.735  15.985  1.0618  0.0879 -0.4361
 2048TIP3   OH227558   5.292   3.153   3.894 -0.0969 -0.1839  0.1618
 2048TIP3    H127559   5.226   3.179   3.958 -0.0945  3.5798 -1.1115
 2048TIP3    H227560   5.372   3.141   3.946 -1.0609 -1.9096  1.3498
 2049TIP3   OH227561   2.903   0.914   3.247 -0.0839  0.4951  0.6437
 2049TIP3    H127562   2.846   0.865   3.306  1.1622  0.0218  1.4704
 2049TIP3    H227563   2.842   0.967   3.195 -1.2650  0.2492  1.7148
 2050TIP3   OH227564   6.293   4.063  14.237  0.0960  0.1632  0.5337
 2050TIP3    H127565   6.203   4.091  14.221 -0.0640  0.1756  1.4151
 2050TIP3    H227566   6.328   4.128  14.298  0.9313  0.5428 -0.3194
 2051TIP3   OH227567   1.882   4.836  17.269 -0.2331 -0.2966 -0.2876
 2051TIP3    H127568   1.799   4.854  17.225 -2.4131 -0.4278  3.4237
 2051TIP3    H227569   1.868   4.753  17.314  1.1932  0.6330  2.0163
 2052TIP3   OH227570   5.687   4.471  13.301  0.4134 -0.2813  0.3112
 2052TIP3    H127571   5.769   4.430  13.275  0.4572 -1.6528  2.3870
 2052TIP3    H227572   5.711   4.561  13.323  1.0444 -0.2053 -0.6537
 2053TIP3   OH227573   4.712   1.212   6.996  0.5286 -0.3971  0.1831
 2053TIP3    H127574   4.719   1.263   6.915 -1.2491  2.5174  1.6762
 2053TIP3    H227575   4.790   1.236   7.046 -0.0005  0.4396  0.6312
 2054TIP3   OH227576   0.023   6.106  11.384 -0.4274 -0.3724  0.0401
 2054TIP3    H127577   0.079   6.110  11.307  2.1812 -1.3930  1.7366
 2054TIP3    H227578  -0.014   6.194  11.391 -2.5889 -0.8147 -3.5132
 2055TIP3   OH227579   6.328   4.455  12.406  0.2954 -0.0345  0.3737
 2055TIP3    H127580   6.240   4.442  12.439 -0.4846  1.3972 -0.9811
 2055TIP3    H227581   6.384   4.405  12.465 -1.4551 -1.4411  0.9316
 2056TIP3   OH227582   3.566   2.317  16.113  0.3105  0.2707  0.4217
 2056TIP3    H127583   3.647   2.323  16.165  0.7927 -1.1917 -0.1021
 2056TIP3    H227584   3.513   2.253  16.159  0.4315 -0.4836 -0.4710
 2057TIP3   OH227585   5.533   6.564  12.375 -0.5620  0.2209 -0.5717
 2057TIP3    H127586   5.613   6.615  12.372 -0.3440  0.0797  1.3098
 2057TIP3    H227587   5.474   6.607  12.314  0.5536  1.0149 -1.1128
 2058TIP3   OH227588   2.170   4.632   4.172  0.1192 -0.6213 -0.3902
 2058TIP3    H127589   2.246   4.623   4.115 -0.7258  1.7753 -2.0360
 2058TIP3    H227590   2.171   4.724   4.199 -1.1690 -1.0040  1.0826
 2059TIP3   OH227591   1.576   2.174  14.780  0.0225 -0.1488  0.4979
 2059TIP3    H127592   1.550   2.142  14.867  2.3932 -0.0733  1.2983
 2059TIP3    H227593   1.664   2.139  14.768  0.5040  1.5071 -1.0318
 2060TIP3   OH227594   4.890   3.190   0.942  0.0522  0.2264 -0.0839
 2060TIP3    H127595   4.972   3.178   0.989 -0.1296  1.0105  0.4658
 2060TIP3    H227596   4.915   3.192   0.850  0.3485 -1.8671 -0.0859
 2061TIP3   OH227597   6.714   5.926   5.152  0.0459  0.3152 -0.6470
 2061TIP3    H127598   6.760   6.002   5.187 -0.4674  0.3911 -0.1273
 2061TIP3    H227599   6.782   5.860   5.142  0.4962  0.8339 -1.1001
 2062TIP3   OH227600   2.542   0.242  12.634 -0.6266 -0.2893 -0.5455
 2062TIP3    H127601   2.513   0.302  12.565  0.7451  0.5481 -0.4304
 2062TIP3    H227602   2.630   0.216  12.608 -0.3976 -0.6024  0.4905
 2063TIP3   OH227603   1.055   0.176  12.771  0.0388 -0.2303 -0.0300
 2063TIP3    H127604   1.074   0.265  12.742  0.1968 -0.8340 -1.9291
 2063TIP3    H227605   1.135   0.126  12.752  0.9249 -0.3309  3.3840
 2064TIP3   OH227606   4.000   5.056  11.827 -0.1067 -0.5578 -0.4974
 2064TIP3    H127607   4.056   4.995  11.874  1.6689  2.1130  1.1247
 2064TIP3    H227608   4.052   5.082  11.751 -0.2478 -0.0243 -0.4141
 2065TIP3   OH227609   3.756   0.573   5.251 -0.3200  0.2937  0.2080
 2065TIP3    H127610   3.801   0.599   5.170 -0.7623 -0.7007 -0.3709
 2065TIP3    H227611   3.679   0.629   5.255 -1.3383 -0.9366 -1.0999
 2066TIP3   OH227612   4.414   2.127   4.995  0.0556  0.4932 -0.3125
 2066TIP3    H127613   4.455   2.160   5.075  0.8065  0.7553 -0.7931
 2066TIP3    H227614   4.417   2.032   5.005  1.3630  0.4852 -0.6059
 2067TIP3   OH227615   5.601   1.774   1.162 -0.2217 -0.0275 -0.0322
 2067TIP3    H127616   5.522   1.737   1.202  1.1550 -1.9487  1.0611
 2067TIP3    H227617   5.672   1.719   1.194  1.3287  0.1913 -2.8166
 2068TIP3   OH227618   5.442   3.251   6.296 -0.1387  0.2813 -0.4396
 2068TIP3    H127619   5.364   3.201   6.275 -1.5446  2.3052 -0.3133
 2068TIP3    H227620   5.455   3.310   6.222  0.1060  1.2842  0.3603
 2069TIP3   OH227621   3.328   5.971   1.192 -0.0485  0.2337 -0.1660
 2069TIP3    H127622   3.297   6.057   1.221  0.9597  0.1436  1.3252
 2069TIP3    H227623   3.333   5.978   1.097 -0.5753  1.6094 -0.1219
 2070TIP3   OH227624   2.720   6.091  12.337  0.5668 -0.5398  0.5192
 2070TIP3    H127625   2.774   6.136  12.272  0.4678 -1.2625 -0.0723
 2070TIP3    H227626   2.776   6.083  12.414  0.8811 -0.2005  0.3297
 2071TIP3   OH227627   4.148   4.533  15.334 -0.0387 -0.1671 -0.1569
 2071TIP3    H127628   4.066   4.485  15.349  0.2609 -1.0041 -1.1374
 2071TIP3    H227629   4.122   4.625  15.338 -1.1319 -0.4240 -0.9773
 2072TIP3   OH227630   2.174   4.379  14.454 -0.4757 -0.9532  0.3043
 2072TIP3    H127631   2.229   4.339  14.522 -1.1232 -1.0089  0.8129
 2072TIP3    H227632   2.086   4.376  14.491 -0.4183  2.1004  0.9505
 2073TIP3   OH227633   2.190   1.596   0.683 -0.6076  0.4501 -0.1564
 2073TIP3    H127634   2.246   1.596   0.761  1.2203  0.1935 -1.3927
 2073TIP3    H227635   2.119   1.656   0.704  0.3158  1.0564  1.3923
 2074TIP3   OH227636   6.526   4.964   6.084  0.0158  0.0943  0.1857
 2074TIP3    H127637   6.479   5.007   6.155  0.0813  1.0985 -0.3648
 2074TIP3    H227638   6.476   4.985   6.005 -0.7843 -2.0641  0.0459
 2075TIP3   OH227639   1.462   1.522  16.851 -0.3449  0.3743  0.3322
 2075TIP3    H127640   1.539   1.492  16.803 -0.1136  0.1536  0.8345
 2075TIP3    H227641   1.480   1.615  16.868  1.6388 -0.4509  3.7588
 2076TIP3   OH227642   2.261   2.878  11.864 -0.3204 -0.4296 -0.1293
 2076TIP3    H127643   2.245   2.835  11.948 -1.0713  0.1553  0.0280
 2076TIP3    H227644   2.176   2.880  11.821  0.1733 -1.2922 -1.1861
 2077TIP3   OH227645   1.378   2.344   4.493  0.0300  0.2447  0.1361
 2077TIP3    H127646   1.470   2.331   4.516  0.3625  1.0039 -0.7158
 2077TIP3    H227647   1.356   2.430   4.531 -0.5478 -0.2490  0.9611
 2078TIP3   OH227648   3.805   1.485  10.564 -0.1401  0.2056 -0.1100
 2078TIP3    H127649   3.779   1.514  10.652 -1.5020 -0.1019 -0.3932
 2078TIP3    H227650   3.801   1.390  10.568  0.7874  0.1543 -0.2304
 2079TIP3   OH227651   2.559   0.563  12.901 -0.4570 -0.5456 -0.3464
 2079TIP3    H127652   2.497   0.522  12.961 -0.2791 -0.4701 -0.1094
 2079TIP3    H227653   2.533   0.531  12.815 -0.6000 -0.7999 -0.2118
 2080TIP3   OH227654   6.481   0.745   2.022 -0.1941 -0.1213  0.0411
 2080TIP3    H127655   6.522   0.807   1.961  2.2998 -0.3113  1.3758
 2080TIP3    H227656   6.505   0.659   1.988  1.1002 -0.2290  1.1255
 2081TIP3   OH227657   2.421   1.521  15.841 -0.1279  0.2159 -0.0882
 2081TIP3    H127658   2.473   1.588  15.797 -0.1694  0.5952  0.4361
 2081TIP3    H227659   2.465   1.506  15.924  0.0025 -0.5699 -0.2870
 2082TIP3   OH227660   5.181   6.267  12.059 -0.4727  0.2126 -0.6185
 2082TIP3    H127661   5.150   6.179  12.039 -0.3841 -0.1276  0.6734
 2082TIP3    H227662   5.144   6.287  12.145  1.0799  0.6596 -0.0210
 2083TIP3   OH227663   3.171   5.154   0.039 -0.1393  0.0132  0.0955
 2083TIP3    H127664   3.234   5.129   0.106  0.8589 -0.3474 -0.9636
 2083TIP3    H227665   3.107   5.208   0.086  0.5224 -0.2496  1.3359
 2084TIP3   OH227666   4.343   0.011  13.852  0.5174  0.0982 -0.2253
 2084TIP3    H127667   4.356   0.028  13.759  0.6786  0.8123 -0.0788
 2084TIP3    H227668   4.248   0.007  13.862  0.5023 -2.1370 -0.7789
 2085TIP3   OH227669   1.893   6.617  10.869 -0.6406  0.6600 -0.7314
 2085TIP3    H127670   1.917   6.605  10.961  0.8558  2.3140 -0.8295
 2085TIP3    H227671   1.825   6.685  10.871 -2.6716 -1.2532 -0.7297
 2086TIP3   OH227672   5.838   3.542   3.969  0.2952 -0.5517  0.1173
 2086TIP3    H127673   5.760   3.525   3.916 -0.1499  0.2790  0.4876
 2086TIP3    H227674   5.804   3.570   4.054  0.9380  1.7790 -0.3197
 2087TIP3   OH227675   4.715   0.089  13.804  0.3591 -0.4913 -0.1007
 2087TIP3    H127676   4.755   0.176  13.807 -0.0251 -0.3338  0.6935
 2087TIP3    H227677   4.659   0.091  13.727 -0.2878  0.2621  0.3751
 2088TIP3   OH227678   1.509   5.720  11.092  0.1356 -0.1016  0.1107
 2088TIP3    H127679   1.593   5.764  11.078 -0.8380  1.6044 -0.6730
 2088TIP3    H227680   1.458   5.782  11.144 -1.5912  0.1417 -1.7350
 2089TIP3   OH227681   3.439   5.193  14.042  0.3233 -0.6533 -0.3981
 2089TIP3    H127682   3.421   5.141  14.120  2.8278  1.4903  1.7970
 2089TIP3    H227683   3.523   5.160  14.010 -0.0510 -0.6255 -1.4701
 2090TIP3   OH227684   1.741   2.299   1.337  0.3586  0.0716 -0.0222
 2090TIP3    H127685   1.694   2.258   1.410  0.6695 -0.4460 -0.1136
 2090TIP3    H227686   1.694   2.382   1.323  0.8233  0.6066  1.3294
 2091TIP3   OH227687   1.353   0.093  10.820 -0.4150  0.2557  0.4457
 2091TIP3    H127688   1.284   0.156  10.799  0.7156  1.1952 -0.6395
 2091TIP3    H227689   1.315   0.007  10.800 -1.0680  0.7970 -0.7238
 2092TIP3   OH227690   1.478   3.296  12.575  0.0960 -0.3260  0.7779
 2092TIP3    H127691   1.405   3.346  12.541  1.0830  2.0507  1.9518
 2092TIP3    H227692   1.445   3.259  12.658 -0.1644 -0.3509  0.6643
 2093TIP3   OH227693   0.158   2.292  14.115  0.4314 -0.4778 -0.4436
 2093TIP3    H127694   0.194   2.210  14.147  0.4963  0.0073  0.7988
 2093TIP3    H227695   0.065   2.276  14.104  0.1188 -0.2513  1.5216
 2094TIP3   OH227696   1.906   3.076  12.590  0.0140  0.1531 -0.1249
 2094TIP3    H127697   1.949   3.158  12.613  0.6708  0.2538 -1.5908
 2094TIP3    H227698   1.854   3.096  12.512  0.2009 -0.8135 -0.5224
 2095TIP3   OH227699   1.728   6.663   1.462  0.0511  0.3858  0.4294
 2095TIP3    H127700   1.822   6.663   1.476 -0.0361  1.0368  1.0536
 2095TIP3    H227701   1.691   6.682   1.548 -0.7689 -2.4585  0.8267
 2096TIP3   OH227702   2.574   3.448  12.420 -0.0604  0.1232 -0.3473
 2096TIP3    H127703   2.545   3.493  12.340  0.4088  1.1048  0.0180
 2096TIP3    H227704   2.518   3.371  12.425  0.6901 -0.5946 -2.2504
 2097TIP3   OH227705   0.802   2.322   3.410  0.5447 -0.5204 -0.0410
 2097TIP3    H127706   0.832   2.249   3.356 -0.5670 -1.1648  0.1834
 2097TIP3    H227707   0.728   2.359   3.362 -0.5184 -1.1613  1.0583
 2098TIP3   OH227708   0.695   2.486   6.017  0.2076 -0.4348  0.1588
 2098TIP3    H127709   0.757   2.552   6.048 -0.6560 -0.0822  1.1876
 2098TIP3    H227710   0.641   2.465   6.094 -2.7813  1.2844 -1.3049
 2099TIP3   OH227711   0.355   4.786  11.849  0.1134  0.3642 -0.2004
 2099TIP3    H127712   0.316   4.853  11.793  0.5387 -0.6415 -1.7877
 2099TIP3    H227713   0.347   4.705  11.798  0.4079 -0.6428  1.2751
 2100TIP3   OH227714   2.226   0.192   0.435 -0.1046  0.0165 -0.1264
 2100TIP3    H127715   2.228   0.264   0.372 -2.2572 -0.1241 -0.4299
 2100TIP3    H227716   2.241   0.234   0.519  1.5996  0.3694 -0.5569
 2101TIP3   OH227717   6.617   5.587  15.311  0.1559  0.2295 -0.7980
 2101TIP3    H127718   6.569   5.616  15.233 -1.7667 -0.5598  0.0221
 2101TIP3    H227719   6.602   5.493  15.315 -0.6626  0.3958  1.0538
 2102TIP3   OH227720   1.164   1.040   4.882  0.0888 -0.1238 -0.6728
 2102TIP3    H127721   1.226   1.096   4.835  0.0693  0.4097 -0.0767
 2102TIP3    H227722   1.197   1.038   4.972  0.6420 -1.8778 -0.8832
 2103TIP3   OH227723   2.960   5.951  12.150 -0.1007 -0.6068  0.2606
 2103TIP3    H127724   3.047   5.969  12.187  0.3123 -0.4329 -0.7641
 2103TIP3    H227725   2.971   5.871  12.100 -0.4213 -0.3571 -0.2207
 2104TIP3   OH227726   1.822   3.662  15.267 -0.2504 -0.0985  0.0846
 2104TIP3    H127727   1.807   3.611  15.347  0.6299  1.0805  1.0381
 2104TIP3    H227728   1.735   3.689  15.238 -0.8130 -2.5145 -0.7504
 2105TIP3   OH227729   3.988   0.696  16.580 -0.7354  0.1036 -0.2760
 2105TIP3    H127730   3.911   0.674  16.632 -1.6213  0.7707 -1.2516
 2105TIP3    H227731   3.974   0.788  16.555  0.6254  0.3857 -0.0635
 2106TIP3   OH227732   3.493   3.419  12.335 -0.3816  0.1798 -0.4773
 2106TIP3    H127733   3.553   3.481  12.293  0.7619 -0.6190 -0.0873
 2106TIP3    H227734   3.542   3.385  12.410 -0.8875 -1.3224 -0.7862
 2107TIP3   OH227735   2.384   4.359   1.410  0.0832 -0.4052 -0.1079
 2107TIP3    H127736   2.295   4.353   1.374 -0.2344 -0.0856  0.6104
 2107TIP3    H227737   2.379   4.315   1.495  1.1182 -2.2279 -0.9135
 2108TIP3   OH227738   4.781   0.387   1.610 -0.0714  0.2188  0.2634
 2108TIP3    H127739   4.777   0.297   1.577  0.7520  0.0934  0.4922
 2108TIP3    H227740   4.852   0.387   1.674 -0.1502  1.0024  0.3678
 2109TIP3   OH227741   3.594   2.364  14.394  0.3971  0.2886  0.3763
 2109TIP3    H127742   3.637   2.336  14.313 -0.0778 -0.7567  0.4829
 2109TIP3    H227743   3.558   2.450  14.373 -0.9628 -0.5793 -0.9875
 2110TIP3   OH227744   4.692   3.344   5.815  0.3952  0.1484 -0.7260
 2110TIP3    H127745   4.670   3.259   5.853 -0.0737  1.3482  1.8779
 2110TIP3    H227746   4.608   3.381   5.790  0.6027 -0.1101 -1.8750
 2111TIP3   OH227747   0.677   4.061   4.501  0.0791  0.0206  0.2987
 2111TIP3    H127748   0.663   4.151   4.531  1.6852  0.8629 -1.2399
 2111TIP3    H227749   0.748   4.069   4.437  0.6505 -2.4442  0.5435
 2112TIP3   OH227750   3.819   5.091  16.683 -0.0350 -0.0305 -0.3464
 2112TIP3    H127751   3.767   5.065  16.607 -0.2684  1.7281 -0.8527
 2112TIP3    H227752   3.908   5.102  16.648  0.1854 -0.7575 -0.0107
 2113TIP3   OH227753   1.729   2.355  12.422  0.3815  0.3259  0.6386
 2113TIP3    H127754   1.792   2.402  12.476  0.5369  0.7576  0.0934
 2113TIP3    H227755   1.779   2.285  12.381  0.1155 -0.4298  1.5754
 2114TIP3   OH227756   3.926   3.031   4.773  0.5514 -0.1507  0.1977
 2114TIP3    H127757   3.919   3.126   4.787  1.1849 -0.2609  1.4632
 2114TIP3    H227758   3.954   2.997   4.858 -0.8561 -1.6253  0.1060
 2115TIP3   OH227759   6.292   2.420   1.659 -0.5992  0.3343 -0.1871
 2115TIP3    H127760   6.349   2.492   1.631 -0.4535 -0.2685 -1.5097
 2115TIP3    H227761   6.352   2.351   1.688 -0.6439 -0.1523 -1.2104
 2116TIP3   OH227762   0.094   1.154   3.854 -0.1133  0.0718  0.7737
 2116TIP3    H127763   0.022   1.095   3.876  0.3629  0.2471  2.9852
 2116TIP3    H227764   0.172   1.099   3.856 -0.0333  0.0837 -0.6758
 2117TIP3   OH227765   1.864   4.355   3.997 -0.2094  0.3786 -0.0640
 2117TIP3    H127766   1.871   4.281   3.937 -0.4414 -0.1376  0.5380
 2117TIP3    H227767   1.778   4.392   3.980 -1.2907 -1.2005  1.5379
 2118TIP3   OH227768   3.642   4.465   1.067 -0.0059  0.0792  0.2526
 2118TIP3    H127769   3.563   4.418   1.094 -0.5778  1.6595  1.5297
 2118TIP3    H227770   3.677   4.500   1.149  2.2322 -0.8255 -0.2351
 2119TIP3   OH227771   3.581   3.642  14.130  0.3589  0.0277  0.4925
 2119TIP3    H127772   3.505   3.595  14.095  0.8561 -1.4912  1.3407
 2119TIP3    H227773   3.559   3.734  14.120 -1.2563 -0.3743  0.0075
 2120TIP3   OH227774   1.290   0.764   0.049 -0.1850 -0.5591 -0.3136
 2120TIP3    H127775   1.207   0.791   0.011 -0.1255 -0.6608 -0.5178
 2120TIP3    H227776   1.266   0.726   0.134 -0.3043 -0.2100 -0.1885
 2121TIP3   OH227777   3.751   2.456   4.549 -0.3491 -0.0010 -0.7216
 2121TIP3    H127778   3.671   2.407   4.569 -1.0891  0.6630 -1.9068
 2121TIP3    H227779   3.746   2.471   4.454  1.2057  0.0336 -0.8140
 2122TIP3   OH227780   4.436   0.441  11.901 -0.0911 -0.4085 -0.6598
 2122TIP3    H127781   4.423   0.353  11.864 -0.6102 -0.6219  0.0177
 2122TIP3    H227782   4.530   0.457  11.891 -0.0490 -0.8950 -1.1145
 2123TIP3   OH227783   4.077   0.214  13.122 -0.1844 -0.0544  0.4407
 2123TIP3    H127784   4.148   0.277  13.133 -0.3069  0.2769 -0.5846
 2123TIP3    H227785   3.997   0.267  13.125 -0.2155  0.2982 -3.0392
 2124TIP3   OH227786   4.480   2.246  12.147 -0.0421  0.1651  0.2806
 2124TIP3    H127787   4.569   2.258  12.112 -0.3621 -0.5890 -0.8434
 2124TIP3    H227788   4.494   2.216  12.237  0.8694 -0.7098 -0.1343
 2125TIP3   OH227789   3.349   3.199   1.893  0.1416  0.2251  0.3036
 2125TIP3    H127790   3.367   3.133   1.960 -0.7336  0.5009  0.8291
 2125TIP3    H227791   3.253   3.198   1.884  0.2399  0.1142 -1.0259
 2126TIP3   OH227792   1.260   0.443  14.153  0.3771 -0.1839  0.7564
 2126TIP3    H127793   1.206   0.450  14.231 -1.3004 -1.2821 -0.2328
 2126TIP3    H227794   1.234   0.518  14.099 -0.8746 -1.1714 -0.0860
 2127TIP3   OH227795   0.781   1.190   4.173 -0.1024  0.4552 -0.4914
 2127TIP3    H127796   0.719   1.137   4.222 -0.3947  1.5891  0.4073
 2127TIP3    H227797   0.843   1.222   4.238  0.0206  1.2780 -0.9978
 2128TIP3   OH227798   3.845   3.907   3.310  0.2871 -0.5765 -0.1300
 2128TIP3    H127799   3.782   3.848   3.269  0.3392 -2.2028  1.9285
 2128TIP3    H227800   3.815   3.995   3.287 -3.2416 -1.2296  1.3263
 2129TIP3   OH227801   5.832   2.567   1.527 -0.2249 -0.8073 -0.5707
 2129TIP3    H127802   5.774   2.516   1.583  1.1233 -0.3928  1.3024
 2129TIP3    H227803   5.918   2.526   1.537  0.0810 -0.6924 -2.3553
 2130TIP3   OH227804   0.816   3.994  17.099  0.0087 -0.1124  0.0395
 2130TIP3    H127805   0.850   4.074  17.061 -0.6659  0.3277  0.3514
 2130TIP3    H227806   0.883   3.968  17.163  0.5735 -0.2059 -0.5779
 2131TIP3   OH227807   4.414   5.258   4.364 -0.2944 -0.0705  0.2603
 2131TIP3    H127808   4.431   5.293   4.451 -0.0007 -0.7345  0.4738
 2131TIP3    H227809   4.480   5.191   4.352 -2.3954 -2.4053  0.9436
 2132TIP3   OH227810   0.372   5.361   1.828  0.0993 -0.5431 -0.0794
 2132TIP3    H127811   0.292   5.310   1.816 -0.1407 -1.1686  3.1162
 2132TIP3    H227812   0.404   5.335   1.915  3.3942  0.2475 -0.9144
 2133TIP3   OH227813   1.158   0.589   2.072 -0.2118  0.2178  0.1742
 2133TIP3    H127814   1.176   0.498   2.051 -1.1155  0.5792 -2.4846
 2133TIP3    H227815   1.087   0.615   2.013  0.0970  2.6840  0.7445
 2134TIP3   OH227816   0.998   5.902  15.072 -0.0242  0.2238  0.1196
 2134TIP3    H127817   1.037   5.890  14.986 -0.4868 -0.6002  0.0191
 2134TIP3    H227818   1.055   5.852  15.131  0.5366  1.1298  0.3696
 2135TIP3   OH227819   3.854   5.154   0.350  0.1595  0.4611 -0.4997
 2135TIP3    H127820   3.936   5.113   0.376  0.0460  0.9321  0.6068
 2135TIP3    H227821   3.852   5.144   0.254  0.6701 -1.1072 -0.3776
 2136TIP3   OH227822   3.192   5.539  16.922  0.4715 -0.0967 -0.0274
 2136TIP3    H127823   3.148   5.560  16.839  1.6646 -1.7444 -1.1411
 2136TIP3    H227824   3.199   5.444  16.921 -0.0101 -0.2147  2.2908
 2137TIP3   OH227825   1.197   2.719  13.089  0.1327  0.2168 -0.3278
 2137TIP3    H127826   1.188   2.703  12.995  0.2855  1.2191 -0.5244
 2137TIP3    H227827   1.273   2.778  13.096 -0.0971  0.4401  0.3947
 2138TIP3   OH227828   1.206   6.266  14.384 -0.3361 -0.0733 -0.0314
 2138TIP3    H127829   1.189   6.172  14.393  1.2551 -0.3760 -0.0330
 2138TIP3    H227830   1.217   6.279  14.290 -0.0627  0.0266  0.0143
 2139TIP3   OH227831   2.298   2.022   3.767 -0.3259 -0.1978 -0.7223
 2139TIP3    H127832   2.227   2.071   3.808  0.0575 -0.3293  0.1310
 2139TIP3    H227833   2.358   2.089   3.733  0.7737  0.0073  1.4328
 2140TIP3   OH227834   4.535   4.426   1.256  0.0223 -0.9904 -0.2261
 2140TIP3    H127835   4.445   4.393   1.256 -0.7846  1.0215 -1.0786
 2140TIP3    H227836   4.564   4.414   1.166  1.0976 -2.7140  0.3000
 2141TIP3   OH227837   4.077   1.542   2.873  0.0872  0.1718 -0.3032
 2141TIP3    H127838   4.086   1.611   2.807  1.3309  0.3060 -0.0159
 2141TIP3    H227839   3.983   1.539   2.892 -0.0772  1.2528 -0.8810
 2142TIP3   OH227840   1.193   2.127  14.676  0.5238 -0.0187 -0.0200
 2142TIP3    H127841   1.144   2.184  14.617  1.1078  0.7877  0.2591
 2142TIP3    H227842   1.283   2.130  14.643  0.6753 -0.3197  0.3527
 2143TIP3   OH227843   5.908   5.438  16.183  0.2557 -0.4077 -0.1826
 2143TIP3    H127844   5.841   5.500  16.212 -0.6607 -0.8931 -1.1955
 2143TIP3    H227845   5.969   5.433  16.257 -1.0323 -0.2702  0.9310
 2144TIP3   OH227846   3.086   6.760   4.935 -0.3053  0.3334 -0.1150
 2144TIP3    H127847   3.180   6.753   4.954 -0.5343 -0.6779  0.8245
 2144TIP3    H227848   3.081   6.793   4.846  0.9932 -1.6707 -1.0073
 2145TIP3   OH227849   2.342   6.368  13.141 -0.3326 -0.2545  0.5036
 2145TIP3    H127850   2.366   6.305  13.208  3.4167  0.0431 -0.3222
 2145TIP3    H227851   2.411   6.435  13.145 -0.0528 -0.0700 -3.3736
 2146TIP3   OH227852   3.530   5.069  15.660  0.0950 -0.1603  0.2804
 2146TIP3    H127853   3.521   5.117  15.743 -2.4602  0.7305 -0.4247
 2146TIP3    H227854   3.524   4.977  15.684 -2.4251  0.1170  0.9992
 2147TIP3   OH227855   5.432   0.990   6.053  0.3924 -0.1128 -0.3110
 2147TIP3    H127856   5.360   0.948   6.006  1.3771 -1.8152 -0.3768
 2147TIP3    H227857   5.428   0.952   6.140  0.1302  1.1498  0.2498
 2148TIP3   OH227858   6.155   6.219  16.980 -0.1137 -0.0736  0.1623
 2148TIP3    H127859   6.076   6.230  16.927  0.0780 -0.8789 -0.3120
 2148TIP3    H227860   6.222   6.191  16.918  0.2923 -0.3642  0.7184
 2149TIP3   OH227861   6.184   1.317   2.043  0.0496  0.6382  0.3974
 2149TIP3    H127862   6.126   1.247   2.073 -1.5789  1.3298 -0.9710
 2149TIP3    H227863   6.172   1.387   2.106 -1.6855  1.2756 -0.5844
 2150TIP3   OH227864   2.689   2.817  16.741  0.5929 -0.2274 -0.1419
 2150TIP3    H127865   2.740   2.856  16.811  1.9449  0.0070 -1.2149
 2150TIP3    H227866   2.602   2.855  16.750  0.7263 -0.2551  1.4173
 2151TIP3   OH227867   2.622   0.070  16.164 -0.3458  0.6755  0.4924
 2151TIP3    H127868   2.717   0.082  16.155 -0.5715  1.3704 -1.7705
 2151TIP3    H227869   2.611   0.017  16.242  2.0027 -0.5838  0.0474
 2152TIP3   OH227870   5.069   5.381   5.432 -0.4376  0.6665 -0.5609
 2152TIP3    H127871   5.099   5.356   5.345 -2.0285 -1.0771 -0.6589
 2152TIP3    H227872   5.143   5.429   5.470  0.8810  0.0662 -2.2588
 2153TIP3   OH227873   1.896   2.070  15.838 -0.1766  0.5843 -0.6451
 2153TIP3    H127874   1.830   2.054  15.770 -1.0226 -0.7192  0.4465
 2153TIP3    H227875   1.975   2.094  15.789 -0.8554  0.0249 -2.0763
 2154TIP3   OH227876   4.819   3.791   6.734 -0.2623  0.7715 -0.4641
 2154TIP3    H127877   4.805   3.821   6.644 -0.6767  0.4436 -0.5129
 2154TIP3    H227878   4.843   3.699   6.725 -3.4060 -0.2197 -0.1210
 2155TIP3   OH227879   2.904   1.198   0.249  0.6535 -0.5767  0.1414
 2155TIP3    H127880   2.840   1.136   0.216  2.2403 -1.8524 -0.7138
 2155TIP3    H227881   2.919   1.259   0.176  0.8513 -0.6563  0.1141
 2156TIP3   OH227882   2.341   3.106  13.188 -0.2292  0.2190  1.0784
 2156TIP3    H127883   2.339   3.016  13.155 -2.3679 -0.5806  3.1494
 2156TIP3    H227884   2.331   3.160  13.109  1.8927 -1.2567 -0.3040
 2157TIP3   OH227885   3.189   2.347   0.271 -0.1144  0.5631  0.0623
 2157TIP3    H127886   3.253   2.350   0.343 -0.5270  2.7226  0.3811
 2157TIP3    H227887   3.124   2.413   0.293 -1.5132 -0.3219 -1.1860
 2158TIP3   OH227888   2.997   4.728   6.443 -0.4541 -0.6543 -0.1745
 2158TIP3    H127889   2.913   4.774   6.447  0.2683  0.6065  1.9906
 2158TIP3    H227890   3.031   4.730   6.532  2.9532  0.9765 -1.3145
 2159TIP3   OH227891   3.386   1.039   0.126 -0.1958 -0.2041 -0.0954
 2159TIP3    H127892   3.310   1.024   0.182  0.3870 -0.1619  0.7377
 2159TIP3    H227893   3.352   1.087   0.051 -1.1460 -1.0181 -0.1909
 2160TIP3   OH227894   2.212   5.388  15.396  0.3485  0.4921 -0.1195
 2160TIP3    H127895   2.294   5.352  15.362 -0.7656 -0.9350 -1.4433
 2160TIP3    H227896   2.179   5.444  15.326 -0.6647 -0.3689 -0.3575
 2161TIP3   OH227897   1.878   1.321   3.226  0.3789 -0.3130 -0.0467
 2161TIP3    H127898   1.953   1.262   3.215 -1.2680 -3.2283  2.6768
 2161TIP3    H227899   1.864   1.324   3.321 -2.1998  1.1528 -0.3950
 2162TIP3   OH227900   5.287   6.041  14.613  0.1679  0.1054  0.3932
 2162TIP3    H127901   5.347   6.044  14.538 -0.6214 -0.6155 -0.2894
 2162TIP3    H227902   5.221   5.976  14.588 -0.4129  0.2532  1.4941
 2163TIP3   OH227903   4.946   5.119   4.057 -0.6277 -0.9921 -0.6347
 2163TIP3    H127904   4.932   5.036   4.104 -1.4310 -0.2206  0.5420
 2163TIP3    H227905   4.860   5.144   4.025 -0.6906  0.1446  0.3501
 2164TIP3   OH227906   2.187   5.157  11.448 -0.4206  0.5517 -0.2986
 2164TIP3    H127907   2.102   5.201  11.448 -0.4923  0.6170  2.6496
 2164TIP3    H227908   2.167   5.066  11.428 -1.1388  0.6458 -0.0356
 2165TIP3   OH227909   4.501   2.805   2.029 -0.1400  0.0992  0.0037
 2165TIP3    H127910   4.573   2.765   2.078  0.5570  1.8041  0.4398
 2165TIP3    H227911   4.494   2.751   1.950  0.8456 -0.7817  0.4899
 2166TIP3   OH227912   1.552   4.900  15.054  0.3357  0.0074  0.8356
 2166TIP3    H127913   1.601   4.896  15.136  1.8470  1.7797  0.0923
 2166TIP3    H227914   1.524   4.992  15.048 -1.7626 -0.6086  0.4536
 2167TIP3   OH227915   3.518   4.852  12.996  0.0322 -0.2420  0.3873
 2167TIP3    H127916   3.428   4.877  13.014 -0.0490 -0.3655  0.1499
 2167TIP3    H227917   3.523   4.760  13.022 -0.2556 -0.6078 -0.8076
 2168TIP3   OH227918   0.563   4.613   2.148  0.6732  0.3837  0.0304
 2168TIP3    H127919   0.547   4.518   2.148  1.7436  0.1116 -2.8192
 2168TIP3    H227920   0.645   4.624   2.196 -0.1928  0.0847  1.6415
 2169TIP3   OH227921   0.091   3.046   5.416 -0.3100 -0.1178 -0.4158
 2169TIP3    H127922   0.096   3.111   5.485 -0.1345  1.1343 -1.5745
 2169TIP3    H227923   0.170   2.993   5.428 -0.3469  0.0030  0.4061
 2170TIP3   OH227924   5.841   5.173   3.305  0.5047  0.2280  0.3270
 2170TIP3    H127925   5.749   5.161   3.326  0.2434  0.2072 -0.7713
 2170TIP3    H227926   5.873   5.085   3.283  0.3707  0.4478 -0.8317
 2171TIP3   OH227927   5.157   4.473  13.393 -0.0421  0.2241  0.0912
 2171TIP3    H127928   5.091   4.448  13.457 -0.4229 -3.2062 -1.4207
 2171TIP3    H227929   5.108   4.490  13.313  0.7557 -1.0423 -0.7002
 2172TIP3   OH227930   2.746   0.070   3.770 -0.4543  0.1751 -0.3787
 2172TIP3    H127931   2.792   0.153   3.773 -0.3751  0.3369 -3.1662
 2172TIP3    H227932   2.655   0.092   3.792 -0.3910  0.9804 -0.8711
 2173TIP3   OH227933   1.526   3.781  13.752 -0.0215  0.2889  0.3763
 2173TIP3    H127934   1.537   3.690  13.779  1.1317  0.6730  1.2871
 2173TIP3    H227935   1.511   3.777  13.657 -1.3592 -0.9133  0.6118
 2174TIP3   OH227936   6.698   6.562  13.087  0.1227  0.0365  0.1888
 2174TIP3    H127937   6.609   6.595  13.074 -0.3102 -1.8011 -2.3189
 2174TIP3    H227938   6.688   6.467  13.085  2.0614 -0.2073  0.7277
 2175TIP3   OH227939   3.977   5.590  11.058  0.2576  0.1397  0.4387
 2175TIP3    H127940   3.943   5.628  11.139  0.9842  1.1979  0.2770
 2175TIP3    H227941   3.968   5.660  10.994  1.0690 -0.1656 -0.0265
 2176TIP3   OH227942   6.203   4.323  16.568  0.5609 -0.4308  0.1401
 2176TIP3    H127943   6.175   4.410  16.539 -1.0119 -1.1103 -0.5007
 2176TIP3    H227944   6.179   4.265  16.496  0.9522 -1.5007  0.8463
 2177TIP3   OH227945   1.126   3.872  15.644  0.1379 -0.1284  0.5636
 2177TIP3    H127946   1.068   3.918  15.705 -1.9428 -1.3645 -0.3749
 2177TIP3    H227947   1.137   3.933  15.571  1.3221  0.7104  1.3993
 2178TIP3   OH227948   2.803   3.940  15.384  0.0272  0.0615  0.1718
 2178TIP3    H127949   2.776   4.017  15.434 -1.1955  0.8542 -1.6173
 2178TIP3    H227950   2.868   3.974  15.322 -1.2599 -0.0770 -1.3186
 2179TIP3   OH227951   4.896   3.549  14.087  0.1258 -0.1979 -0.4384
 2179TIP3    H127952   4.904   3.602  14.007  2.7661  0.3273  0.0494
 2179TIP3    H227953   4.930   3.463  14.062 -2.1061 -1.0612 -0.6624
 2180TIP3   OH227954   5.317   1.786   5.411 -0.1507  0.0026  0.5969
 2180TIP3    H127955   5.309   1.834   5.329  0.4737 -0.2174  0.4055
 2180TIP3    H227956   5.284   1.699   5.392 -0.2987  0.0438  0.6631
 2181TIP3   OH227957   3.737   5.755   2.344  0.3210  0.6509 -0.0798
 2181TIP3    H127958   3.734   5.851   2.345  0.6297  0.6622 -0.1578
 2181TIP3    H227959   3.684   5.729   2.419 -0.8447  0.8507 -0.8041
 2182TIP3   OH227960   0.836   4.001  13.899  0.6088 -0.2539 -0.0419
 2182TIP3    H127961   0.868   4.066  13.961 -0.1780  0.4752 -0.3943
 2182TIP3    H227962   0.766   4.045  13.851  0.8649 -0.9667 -1.1074
 2183TIP3   OH227963   4.288   6.751  17.204 -0.3384 -0.6052  0.5686
 2183TIP3    H127964   4.194   6.738  17.188 -0.1346 -0.9549 -0.3587
 2183TIP3    H227965   4.291   6.821  17.269 -1.2415 -0.5166  0.5302
 2184TIP3   OH227966   3.458   4.742  16.935  0.6386 -0.4753 -0.4698
 2184TIP3    H127967   3.490   4.799  16.866 -0.3160  1.1358  0.3609
 2184TIP3    H227968   3.449   4.656  16.893  2.5173 -0.1484 -1.6333
 2185TIP3   OH227969   0.275   1.601  13.745  0.0260 -0.1978  0.2999
 2185TIP3    H127970   0.329   1.590  13.667  0.9084  0.7391  0.7459
 2185TIP3    H227971   0.327   1.563  13.816 -0.7926 -1.1007  0.4350
 2186TIP3   OH227972   3.483   6.560   1.877  0.1088  0.4654 -0.3301
 2186TIP3    H127973   3.578   6.550   1.885  0.1457 -0.8798 -1.9724
 2186TIP3    H227974   3.451   6.562   1.967  1.4024 -2.3562  0.2924
 2187TIP3   OH227975   1.654   2.982   4.867  0.4255 -0.0534  0.1111
 2187TIP3    H127976   1.615   3.068   4.854  2.3009  0.7325 -0.7222
 2187TIP3    H227977   1.629   2.957   4.955 -1.3230  0.6940 -0.1430
 2188TIP3   OH227978   1.922   2.049   0.139 -0.1968  0.0694 -0.4830
 2188TIP3    H127979   1.948   1.991   0.210 -1.5326 -1.4470 -1.1511
 2188TIP3    H227980   1.927   1.994   0.061  1.8765  1.8521 -1.7472
 2189TIP3   OH227981   0.739   1.065  15.896  0.3572  0.1472  0.5372
 2189TIP3    H127982   0.661   1.050  15.843  0.6067 -0.4711  0.3298
 2189TIP3    H227983   0.708   1.067  15.986  0.1871 -0.8303  0.5139
 2190TIP3   OH227984   1.936   3.909  15.326 -0.3366 -0.4669 -0.0998
 2190TIP3    H127985   1.926   3.955  15.243 -2.1935 -0.0790  0.2937
 2190TIP3    H227986   1.896   3.823  15.311  1.5716 -1.3499 -0.3232
 2191TIP3   OH227987   6.168   6.445  12.141 -0.5669 -0.3092  0.1433
 2191TIP3    H127988   6.109   6.433  12.216  0.7085  1.8756  1.6051
 2191TIP3    H227989   6.157   6.537  12.116  1.2492 -0.2031 -0.3923
 2192TIP3   OH227990   2.134   0.878  12.451  0.1643  0.1566 -0.3201
 2192TIP3    H127991   2.062   0.815  12.451  1.2684 -1.2484 -2.4499
 2192TIP3    H227992   2.195   0.846  12.517  0.5673 -0.8576 -1.1685
 2193TIP3   OH227993   0.619   0.802  13.370  0.1043  0.1342  0.0143
 2193TIP3    H127994   0.581   0.746  13.438 -1.3314 -0.1216 -0.9495
 2193TIP3    H227995   0.703   0.761  13.348  0.2840 -0.1340  1.1677
 2194TIP3   OH227996   5.356   0.001   6.090  0.4212 -0.0445 -0.2336
 2194TIP3    H127997   5.366  -0.087   6.127 -1.4498 -0.1608  0.1182
 2194TIP3    H227998   5.324   0.054   6.162  0.5664  0.6952 -0.7016
 2195TIP3   OH227999   3.452   4.347   4.958  0.0709 -0.6563 -0.3441
 2195TIP3    H128000   3.464   4.442   4.968 -1.0054 -0.4350 -1.0569
 2195TIP3    H228001   3.434   4.316   5.047 -0.3395 -0.0796 -0.2198
 2196TIP3   OH228002   6.253   0.318   4.323 -0.7583 -0.1300  0.0168
 2196TIP3    H128003   6.186   0.250   4.331 -1.0859  0.1775 -0.0991
 2196TIP3    H228004   6.204   0.399   4.309 -0.3596  0.0873 -0.1454
 2197TIP3   OH228005   4.635   0.426  16.515 -0.2079  0.5518 -0.5344
 2197TIP3    H128006   4.599   0.392  16.597 -1.6147 -1.3198 -1.8605
 2197TIP3    H228007   4.722   0.385  16.509 -0.9562 -1.0247 -0.9804
 2198TIP3   OH228008   6.456   1.965   5.129 -0.1435  0.1954 -0.5726
 2198TIP3    H128009   6.381   2.008   5.088 -0.9723  0.1377  0.8268
 2198TIP3    H228010   6.473   2.015   5.208 -0.0425 -1.0105  0.2008
 2199TIP3   OH228011   4.652   3.263   4.192  0.9693 -1.1947 -0.0516
 2199TIP3    H128012   4.719   3.313   4.146 -0.6476  0.1487 -1.0679
 2199TIP3    H228013   4.582   3.326   4.209  0.2755 -2.3445  1.7281
 2200TIP3   OH228014   4.559   3.006   6.510 -0.5328 -0.2226  0.2307
 2200TIP3    H128015   4.610   2.935   6.473 -0.3778 -1.4312  2.5816
 2200TIP3    H228016   4.623   3.070   6.539 -0.1989 -1.7591  3.2216
 2201TIP3   OH228017   1.041   3.756  13.323 -0.1084 -0.1649  0.0726
 2201TIP3    H128018   1.032   3.820  13.394  1.6144  0.4039 -0.1869
 2201TIP3    H228019   1.126   3.775  13.284 -0.3523 -1.4729 -1.1719
 2202TIP3   OH228020   3.666   2.968  13.221 -0.5434 -0.2221 -0.3728
 2202TIP3    H128021   3.578   2.962  13.259 -0.6955 -0.8229 -0.8025
 2202TIP3    H228022   3.665   2.908  13.147 -0.0331  0.4232 -0.9183
 2203TIP3   OH228023   6.350   2.354  17.007 -0.1331  0.1456  0.0574
 2203TIP3    H128024   6.331   2.283  17.068  1.6907  0.3658  0.9463
 2203TIP3    H228025   6.351   2.311  16.921 -2.4888 -0.2063  0.1387
 2204TIP3   OH228026   0.425   1.554  16.938  0.3599  0.3797 -0.2230
 2204TIP3    H128027   0.359   1.603  16.889  1.0626 -0.1169 -1.7226
 2204TIP3    H228028   0.477   1.509  16.871 -0.0713 -2.2087  1.0581
 2205TIP3   OH228029   1.185   0.601  15.597 -0.1014 -0.8373 -0.1555
 2205TIP3    H128030   1.248   0.530  15.609 -0.0927 -0.4585  3.1258
 2205TIP3    H228031   1.235   0.670  15.552  0.9174 -1.6434 -0.2943
 2206TIP3   OH228032   6.536   4.692   0.755 -0.3866 -0.3084  0.2407
 2206TIP3    H128033   6.511   4.617   0.701  0.4643 -1.0037  0.7690
 2206TIP3    H228034   6.486   4.765   0.720 -0.9148 -1.0360 -0.5678
 2207TIP3   OH228035   1.916   4.635  12.172  0.3581 -0.0850  0.1816
 2207TIP3    H128036   1.970   4.563  12.203 -1.3774 -1.8877 -0.7150
 2207TIP3    H228037   1.940   4.646  12.080  3.1100  2.9773  1.1006
 2208TIP3   OH228038   1.416   5.912  13.345 -0.0776 -0.2233  0.4042
 2208TIP3    H128039   1.333   5.870  13.322  0.1426 -0.0990 -0.6550
 2208TIP3    H228040   1.474   5.839  13.369 -0.1612 -0.4051  0.0599
 2209TIP3   OH228041   5.651   0.697   3.257  0.2028 -0.0858 -0.1213
 2209TIP3    H128042   5.684   0.672   3.171  1.2293  2.0519 -0.4228
 2209TIP3    H228043   5.727   0.735   3.302 -1.1485  2.5767  0.1389
 2210TIP3   OH228044   6.739   0.340  12.870  0.0357 -0.5943 -0.4898
 2210TIP3    H128045   6.777   0.367  12.954  3.1583 -0.4071 -1.7924
 2210TIP3    H228046   6.646   0.361  12.877  0.5071  1.0691  2.2530
 2211TIP3   OH228047   2.749   0.192  14.567  0.3212 -0.0794  0.4266
 2211TIP3    H128048   2.723   0.274  14.608 -2.5184 -1.6592  2.1342
 2211TIP3    H228049   2.804   0.148  14.632 -2.6803 -1.7832  2.0301
 2212TIP3   OH228050   4.697   3.981  12.748  0.2528 -0.6167 -0.1443
 2212TIP3    H128051   4.688   3.963  12.655  1.6943 -0.5448 -0.3164
 2212TIP3    H228052   4.777   3.936  12.774  0.0004 -0.4473  1.0241
 2213TIP3   OH228053   5.690   6.635   2.987 -0.8896 -0.0984 -0.4147
 2213TIP3    H128054   5.700   6.547   3.024 -1.4327  0.9306  2.5004
 2213TIP3    H228055   5.636   6.682   3.052  1.0740  2.9446 -0.7805
 2214TIP3   OH228056   0.557   2.881  13.862  0.1284  0.4140  0.6131
 2214TIP3    H128057   0.627   2.918  13.916  0.3213 -0.3580  0.9040
 2214TIP3    H228058   0.510   2.821  13.920 -0.7043  0.8211  0.3845
 2215TIP3   OH228059   3.054   3.552   2.384  0.5116  0.3442 -0.2878
 2215TIP3    H128060   3.147   3.575   2.385  0.8129 -0.2316 -3.4216
 2215TIP3    H228061   3.045   3.483   2.449  2.3026  0.3394 -0.0086
 2216TIP3   OH228062   0.421   4.004  13.884 -0.2359  0.4922  0.4020
 2216TIP3    H128063   0.333   3.970  13.898 -0.3091 -0.0555 -1.1754
 2216TIP3    H228064   0.473   3.926  13.861 -0.4191  1.3438 -3.4182
 2217TIP3   OH228065   2.386   0.623   2.493  1.3645  0.6166 -0.3321
 2217TIP3    H128066   2.383   0.545   2.550  1.6506 -0.9949 -2.4098
 2217TIP3    H228067   2.347   0.692   2.546 -1.4792 -1.5682  0.7027
 2218TIP3   OH228068   2.337   0.950  13.828  0.5088 -0.5767  0.1980
 2218TIP3    H128069   2.409   0.897  13.794  2.1054  2.2989 -1.3039
 2218TIP3    H228070   2.373   0.993  13.905  0.3680  0.6913 -0.4124
 2219TIP3   OH228071   2.957   2.893   4.928  0.1004 -0.2679  0.6458
 2219TIP3    H128072   2.960   2.832   4.854 -0.3594 -0.4931  0.8082
 2219TIP3    H228073   2.957   2.837   5.005  1.2191 -0.0178  0.8446
 2220TIP3   OH228074   5.930   3.292   2.638 -0.7272 -0.0208 -0.3096
 2220TIP3    H128075   5.891   3.305   2.551  0.1405  1.2488 -0.5393
 2220TIP3    H228076   5.858   3.304   2.699 -0.8287  1.9721 -0.7424
 2221TIP3   OH228077   6.343   0.173  11.522  0.0655  0.1854 -0.0808
 2221TIP3    H128078   6.402   0.101  11.499 -0.7889 -0.2388 -1.0578
 2221TIP3    H228079   6.391   0.252  11.499  0.8547 -0.0898  0.6111
 2222TIP3   OH228080   3.368   5.401   0.914  1.1908 -0.3787  0.2319
 2222TIP3    H128081   3.438   5.369   0.858 -0.0496 -2.0187 -0.4560
 2222TIP3    H228082   3.317   5.323   0.936  0.1418  0.6173  1.5253
 2223TIP3   OH228083   1.129   3.332  12.552  0.1974  0.2609  0.0342
 2223TIP3    H128084   1.090   3.414  12.583  0.9911  1.1651 -1.2887
 2223TIP3    H228085   1.180   3.356  12.475  0.0044 -1.5837 -0.7268
 2224TIP3   OH228086   5.750   0.857   0.519 -0.2956  0.2220 -0.0334
 2224TIP3    H128087   5.712   0.927   0.573 -0.1736 -0.4752  0.9998
 2224TIP3    H228088   5.843   0.862   0.537 -0.4827 -1.5129  1.7218
 2225TIP3   OH228089   1.043   4.767  12.380  0.3060  0.2027  0.2644
 2225TIP3    H128090   0.992   4.810  12.449  0.2523  1.1357 -0.3320
 2225TIP3    H228091   1.067   4.682  12.416 -0.1497  0.4788  1.2365
 2226TIP3   OH228092   5.264   3.671   1.672  0.1755 -0.7568  0.2695
 2226TIP3    H128093   5.197   3.681   1.604  0.5232  1.0563  0.1397
 2226TIP3    H228094   5.345   3.653   1.624  0.9671  2.9838 -0.1723
 2227TIP3   OH228095   1.768   4.116   6.214  1.2359 -0.5831 -0.4567
 2227TIP3    H128096   1.785   4.059   6.140 -0.2362 -1.6600 -0.0086
 2227TIP3    H228097   1.674   4.133   6.211  1.6144  1.8759 -0.5866
 2228TIP3   OH228098   2.457   0.349   0.897 -0.3842 -0.1086 -0.3322
 2228TIP3    H128099   2.383   0.339   0.837 -0.7870  3.3407 -0.5978
 2228TIP3    H228100   2.420   0.387   0.976  0.7661 -0.7596  0.5574
 2229TIP3   OH228101   5.831   5.444  11.104 -0.3015  0.2376  0.3158
 2229TIP3    H128102   5.907   5.446  11.046  0.2599  0.6760  1.0373
 2229TIP3    H228103   5.789   5.360  11.087  0.2033  0.1029 -0.2781
 2230TIP3   OH228104   0.418   2.192  15.703 -0.0561 -0.3540 -0.1817
 2230TIP3    H128105   0.406   2.170  15.611  0.0851 -2.2985  0.2143
 2230TIP3    H228106   0.342   2.246  15.724  0.9412  1.8629 -1.8910
 2231TIP3   OH228107   2.779   1.159   3.572 -0.5177  0.2092  0.4616
 2231TIP3    H128108   2.860   1.123   3.608  0.0031  0.1174 -0.7348
 2231TIP3    H228109   2.709   1.121   3.625 -0.0343 -2.8343 -0.8601
 2232TIP3   OH228110   6.345   1.987  13.213  0.2928 -0.2836  0.2583
 2232TIP3    H128111   6.253   2.013  13.224  0.8754  1.7789  0.6919
 2232TIP3    H228112   6.367   1.942  13.294 -0.2213 -0.4146  0.3281
 2233TIP3   OH228113   1.146   0.083  11.584 -0.2885 -0.4587  0.0193
 2233TIP3    H128114   1.149   0.157  11.523  1.4857 -1.4243 -1.1597
 2233TIP3    H228115   1.062   0.092  11.629 -1.5985  0.4227 -2.4159
 2234TIP3   OH228116   1.253   1.375  13.541 -0.2562 -0.3846  0.1874
 2234TIP3    H128117   1.228   1.468  13.546  0.2166 -0.3051  3.1380
 2234TIP3    H228118   1.201   1.340  13.469  0.0743  2.2982 -1.5046
 2235TIP3   OH228119   4.109   6.126   5.040  0.4596 -0.3611 -0.1353
 2235TIP3    H128120   4.131   6.108   5.132  1.4777  1.5405  0.0525
 2235TIP3    H228121   4.145   6.214   5.024 -2.1012  0.5395 -1.5389
 2236TIP3   OH228122   5.149   4.711  12.049 -0.0231 -0.4301  0.2322
 2236TIP3    H128123   5.202   4.754  12.116  0.3707 -3.2091  1.8821
 2236TIP3    H228124   5.065   4.694  12.092  0.4004 -2.6874  0.2750
 2237TIP3   OH228125   0.026   0.440   1.446 -0.0560  0.4663 -0.1254
 2237TIP3    H128126   0.113   0.402   1.442 -0.3074 -0.0336 -1.8321
 2237TIP3    H228127   0.011   0.458   1.539  1.8298  0.5346  0.2011
 2238TIP3   OH228128   3.774   4.414   5.400 -0.4720  0.4298  0.4666
 2238TIP3    H128129   3.824   4.391   5.322 -0.3007  0.3190  0.6058
 2238TIP3    H228130   3.735   4.331   5.428  0.3649  0.2331  1.1245
 2239TIP3   OH228131   5.390   5.062  16.677  0.4265 -0.1467 -0.2247
 2239TIP3    H128132   5.356   5.138  16.723  0.9278  0.4312 -0.7922
 2239TIP3    H228133   5.333   4.990  16.705 -0.6274  0.6018 -0.3769
 2240TIP3   OH228134   6.359   4.422  14.623  0.0561  0.1071  1.0052
 2240TIP3    H128135   6.440   4.464  14.650  0.3663  0.2980 -0.1582
 2240TIP3    H228136   6.291   4.488  14.639  0.3375  0.5032  0.6126
 2241TIP3   OH228137   2.833   6.484  11.947 -0.1459  0.0466  0.7282
 2241TIP3    H128138   2.763   6.506  11.885  0.6079 -3.6176 -1.7550
 2241TIP3    H228139   2.805   6.402  11.986  2.1707 -0.9173  0.5270
 2242TIP3   OH228140   0.765   4.664   4.112  0.3189 -0.4040 -0.1063
 2242TIP3    H128141   0.811   4.584   4.085  0.9705  0.6470 -2.2820
 2242TIP3    H228142   0.685   4.664   4.061 -1.0410 -0.9748  1.8858
 2243TIP3   OH228143   2.976   3.454  11.537 -0.0492  0.3646 -0.0266
 2243TIP3    H128144   3.026   3.530  11.508  0.7308  0.0240  0.3811
 2243TIP3    H228145   2.945   3.477  11.624 -0.6802  0.6013 -0.3056
 2244TIP3   OH228146   3.296   2.979   1.501  0.3840 -0.6728 -0.1427
 2244TIP3    H128147   3.314   3.015   1.588  0.7248  0.4474 -0.6526
 2244TIP3    H228148   3.366   3.013   1.446 -1.8518  1.8770 -1.6681
 2245TIP3   OH228149   4.076   2.612  14.415  0.0448 -0.0935 -0.4072
 2245TIP3    H128150   4.077   2.625  14.320 -0.0840  3.5221 -0.0233
 2245TIP3    H228151   3.989   2.641  14.442  0.7283  0.7221  1.0105
 2246TIP3   OH228152   6.067   4.309   1.149  0.0262 -1.0017  0.4331
 2246TIP3    H128153   6.124   4.304   1.226  0.3744 -0.0964  0.2495
 2246TIP3    H228154   5.979   4.300   1.184  0.2621 -2.5110  0.7138
 2247TIP3   OH228155   2.750   6.313  14.532 -0.0680 -1.1387  0.2613
 2247TIP3    H128156   2.762   6.235  14.477  1.7279  0.2431 -1.4897
 2247TIP3    H228157   2.821   6.372  14.504 -0.3717  0.4791  2.6690
 2248TIP3   OH228158   6.754   5.925  16.411 -0.0122  0.2448 -0.5007
 2248TIP3    H128159   6.676   5.967  16.375  0.2826  1.3765  0.1183
 2248TIP3    H228160   6.783   5.984  16.481  1.1636 -0.3548 -0.4495
 2249TIP3   OH228161   4.962   5.335  12.966 -0.6998  0.6629  0.2003
 2249TIP3    H128162   5.013   5.256  12.952  0.8303  1.2064  2.2675
 2249TIP3    H228163   4.928   5.357  12.879  0.0732 -1.4078 -0.6800
 2250TIP3   OH228164   1.829   4.002   0.175  0.1870 -0.4119 -0.0436
 2250TIP3    H128165   1.889   3.987   0.248 -0.1783 -0.4211  0.2579
 2250TIP3    H228166   1.857   4.085   0.137  0.2182 -0.2847  0.2610
 2251TIP3   OH228167   4.863   2.927  16.340  0.4756  0.1214  0.5902
 2251TIP3    H128168   4.801   2.888  16.400  0.3526 -0.6293 -0.0101
 2251TIP3    H228169   4.842   2.888  16.255  2.3864 -0.8929  0.5389
 2252TIP3   OH228170   0.035   4.732  15.786  0.0978 -0.0418  0.5146
 2252TIP3    H128171   0.007   4.720  15.877 -2.0375  1.5020  0.1456
 2252TIP3    H228172   0.031   4.644  15.748 -0.9953 -0.4139  1.4150
 2253TIP3   OH228173   5.307   6.628  13.770  0.5293  0.6663 -0.2801
 2253TIP3    H128174   5.386   6.639  13.823 -0.7581  0.9977  1.6407
 2253TIP3    H228175   5.258   6.710  13.781 -2.0650 -1.0385  2.0448
 2254TIP3   OH228176   3.987   3.975   4.654  0.3274 -0.2762 -0.4704
 2254TIP3    H128177   4.032   3.891   4.655 -1.7520 -1.4676 -0.4922
 2254TIP3    H228178   3.895   3.954   4.672 -0.4394  1.8755 -1.4147
 2255TIP3   OH228179   4.404   0.102  12.574  0.2154  0.3787 -0.0071
 2255TIP3    H128180   4.310   0.084  12.571  0.2003  0.3860  0.3441
 2255TIP3    H228181   4.443   0.031  12.522 -0.0800  1.1968 -1.3718
 2256TIP3   OH228182   0.052   3.774  16.416  0.3871  0.6858 -0.4418
 2256TIP3    H128183   0.012   3.756  16.501 -0.5501  0.2040 -0.9721
 2256TIP3    H228184   0.139   3.736  16.421  0.1877  0.3076  0.1668
 2257TIP3   OH228185   4.296   5.753   0.238  0.7337  0.5877 -0.2119
 2257TIP3    H128186   4.244   5.832   0.249  1.5816  1.1696 -0.2508
 2257TIP3    H228187   4.362   5.758   0.307 -0.6337 -1.3071  1.3452
 2258TIP3   OH228188   4.932   3.876  12.886 -0.1717  0.3563 -0.6618
 2258TIP3    H128189   5.001   3.816  12.915 -1.0325  0.3680  1.5378
 2258TIP3    H228190   4.954   3.960  12.927 -1.0658  0.5654 -0.5934
 2259TIP3   OH228191   4.042   0.857  15.134 -0.6075 -0.1203  0.7014
 2259TIP3    H128192   4.123   0.840  15.085 -0.8488  0.6309  0.0230
 2259TIP3    H228193   3.973   0.851  15.068 -0.8559  1.8601  0.7112
 2260TIP3   OH228194   2.150   4.663  16.744  0.1315 -0.1309 -0.2224
 2260TIP3    H128195   2.245   4.655  16.735  0.2154  1.1082 -0.6402
 2260TIP3    H228196   2.115   4.600  16.680  0.7232  2.7500 -3.7273
 2261TIP3   OH228197   5.806   6.041  15.661  0.1991  0.1921 -0.0112
 2261TIP3    H128198   5.808   5.947  15.642  0.6269 -0.0965  1.3199
 2261TIP3    H228199   5.729   6.073  15.614 -1.4776 -1.3219  1.5187
 2262TIP3   OH228200   6.627   0.219   1.398 -0.1493 -0.0885  0.0019
 2262TIP3    H128201   6.535   0.243   1.386 -0.3350 -0.2323  1.0831
 2262TIP3    H228202   6.667   0.296   1.437 -0.1905 -0.6245  1.1243
 2263TIP3   OH228203   6.084   1.697   0.335 -0.2680 -0.5541 -0.1582
 2263TIP3    H128204   6.029   1.769   0.305 -0.6057 -0.1243  1.4164
 2263TIP3    H228205   6.174   1.729   0.323 -0.3187 -0.9742 -2.0293
 2264TIP3   OH228206   4.289   5.518  14.654  0.1404 -0.1217  0.1539
 2264TIP3    H128207   4.266   5.426  14.641 -1.2007  0.4248 -1.7288
 2264TIP3    H228208   4.356   5.516  14.723 -1.3567 -2.3125  1.7020
 2265TIP3   OH228209   6.466   1.370   0.041  0.3348  0.4464 -0.0615
 2265TIP3    H128210   6.540   1.408  -0.006  1.0418  0.5758  1.0982
 2265TIP3    H228211   6.472   1.408   0.129 -1.4798  0.9387 -0.1012
 2266TIP3   OH228212   6.752   5.167   0.031  0.0104  0.5493 -0.0825
 2266TIP3    H128213   6.781   5.083  -0.005  0.2201 -0.6061  2.4886
 2266TIP3    H228214   6.833   5.209   0.061 -0.1582  1.4266 -0.8213
 2267TIP3   OH228215   6.356   3.014   5.208  0.3567  0.5341 -0.6505
 2267TIP3    H128216   6.441   2.986   5.241  0.6160  1.0643 -0.8760
 2267TIP3    H228217   6.314   3.057   5.282  0.0764 -0.1636 -0.3903
 2268TIP3   OH228218   0.632   5.192   5.519 -0.1749 -0.2910  0.2134
 2268TIP3    H128219   0.679   5.273   5.499 -0.9349 -0.1100 -0.9191
 2268TIP3    H228220   0.657   5.132   5.449  0.2441 -1.0070  0.9463
 2269TIP3   OH228221   0.795   3.901  11.009 -0.1819  0.8062  1.0615
 2269TIP3    H128222   0.811   3.892  10.915  0.3448  0.1246  1.2082
 2269TIP3    H228223   0.752   3.820  11.034 -0.2693  0.9600  1.4237
 2270TIP3   OH228224   6.638   3.362   1.158  0.1578  0.2421  0.0183
 2270TIP3    H128225   6.604   3.407   1.081  0.5297  1.1581  0.3713
 2270TIP3    H228226   6.560   3.344   1.211  0.0694  1.1394  0.2116
 2271TIP3   OH228227   3.682   3.477  12.871  0.1472  0.4623 -0.0621
 2271TIP3    H128228   3.736   3.540  12.824 -0.1064  0.0694 -0.9022
 2271TIP3    H228229   3.675   3.512  12.960 -0.6203  2.0186 -0.7064
 2272TIP3   OH228230   6.438   4.347   1.183  0.8210  0.2035 -0.4170
 2272TIP3    H128231   6.474   4.430   1.214 -1.3336  1.2386 -0.5492
 2272TIP3    H228232   6.436   4.355   1.087  1.0158 -0.1885 -0.4576
 2273TIP3   OH228233   0.300   2.126   2.578 -0.0770 -0.5161  0.2282
 2273TIP3    H128234   0.343   2.106   2.495 -1.0144 -1.4157 -0.0676
 2273TIP3    H228235   0.325   2.054   2.636  2.2882  1.1542  1.4480
 2274TIP3   OH228236   4.847   6.409   4.595  0.5453 -0.6582 -0.0998
 2274TIP3    H128237   4.849   6.494   4.551  2.1460  0.5280  2.0136
 2274TIP3    H228238   4.923   6.362   4.561  0.4436 -0.6883 -0.2851
 2275TIP3   OH228239   2.251   5.307  11.703 -0.5288 -0.3609  0.9170
 2275TIP3    H128240   2.208   5.260  11.631 -0.3052 -0.5501  0.9038
 2275TIP3    H228241   2.181   5.358  11.743 -1.2613 -2.2842  2.2393
 2276TIP3   OH228242   2.667   2.318  13.075 -0.0806 -0.2434  0.5005
 2276TIP3    H128243   2.627   2.231  13.080  0.1914 -0.5700 -1.8060
 2276TIP3    H228244   2.684   2.331  12.982 -1.3016  2.8304  0.5945
 2277TIP3   OH228245   3.894   2.637   2.802 -0.0293 -0.2698  0.2365
 2277TIP3    H128246   3.841   2.686   2.865 -0.0473 -0.2660  0.2186
 2277TIP3    H228247   3.977   2.621   2.848  0.4926  0.9465 -0.2426
 2278TIP3   OH228248   3.906   5.350   4.040 -0.7776 -0.1869 -0.1945
 2278TIP3    H128249   3.871   5.276   3.990 -0.7800  0.7326 -1.6066
 2278TIP3    H228250   3.993   5.366   4.002  0.0221 -0.6206  1.3466
 2279TIP3   OH228251   6.071   0.656   0.774 -0.1416 -0.2924 -0.3652
 2279TIP3    H128252   6.000   0.696   0.825  0.0742  0.3353 -0.5473
 2279TIP3    H228253   6.030   0.583   0.729 -0.4170 -0.6305  0.4237
 2280TIP3   OH228254   1.315   0.414   4.673  0.4022  0.4091 -0.0687
 2280TIP3    H128255   1.348   0.356   4.604  0.7416  2.1691 -1.4526
 2280TIP3    H228256   1.383   0.412   4.740 -1.0279 -3.2959  1.5597
 2281TIP3   OH228257   4.459   6.014  12.877  0.8821  0.3922 -0.5271
 2281TIP3    H128258   4.510   6.059  12.810  1.9059 -0.8110 -0.5836
 2281TIP3    H228259   4.483   5.921  12.868 -0.8886 -0.1417 -0.1833
 2282TIP3   OH228260   6.125   0.640   1.268 -0.2520  0.2235 -0.6494
 2282TIP3    H128261   6.151   0.731   1.254  0.7087  0.0386 -0.1707
 2282TIP3    H228262   6.124   0.630   1.363  0.6669 -0.5324 -0.6972
 2283TIP3   OH228263   2.049   6.022   5.156  0.0900  0.3714 -0.6096
 2283TIP3    H128264   2.137   6.013   5.119  0.2259  2.5630 -0.9420
 2283TIP3    H228265   2.012   6.098   5.111 -1.4755  0.3145  0.5037
 2284TIP3   OH228266   3.222   2.931  13.722  0.3076 -0.0255 -0.5650
 2284TIP3    H128267   3.195   3.020  13.742  0.9862 -0.0891  0.7403
 2284TIP3    H228268   3.303   2.918  13.773  0.2872 -1.3371 -0.8216
 2285TIP3   OH228269   4.475   1.156   2.742 -0.0790 -0.3565 -0.6624
 2285TIP3    H128270   4.532   1.213   2.690  1.2625  0.6146  1.7381
 2285TIP3    H228271   4.419   1.216   2.791  0.2988 -1.1299  0.7639
 2286TIP3   OH228272   5.248   4.228   0.243 -0.2391 -0.5024  0.7759
 2286TIP3    H128273   5.222   4.317   0.220 -0.3158 -0.4945  0.8890
 2286TIP3    H228274   5.274   4.234   0.335  1.7046 -0.1656  0.2596
 2287TIP3   OH228275   4.532   3.721   0.773 -0.0513  0.1684 -0.8095
 2287TIP3    H128276   4.534   3.769   0.690 -0.7038  0.6458 -0.5589
 2287TIP3    H228277   4.543   3.788   0.840 -0.2480 -0.1259 -0.4803
 2288TIP3   OH228278   5.939   5.883   2.549 -0.3418  0.6832  0.3799
 2288TIP3    H128279   5.926   5.854   2.639  0.6407 -1.3027 -0.0564
 2288TIP3    H228280   5.862   5.852   2.502  0.0786 -0.0495  0.1672
 2289TIP3   OH228281   0.712   5.477   4.282 -0.5041  0.3834  0.2315
 2289TIP3    H128282   0.701   5.410   4.215  2.3324  1.7088 -1.7776
 2289TIP3    H228283   0.778   5.442   4.341 -1.1248  0.2620  0.8651
 2290TIP3   OH228284   4.004   0.034   4.458 -0.6738 -0.6040  0.0440
 2290TIP3    H128285   4.042   0.026   4.370  0.1962 -2.1319  0.5316
 2290TIP3    H228286   3.922  -0.014   4.453 -1.9297  1.4655 -0.5969
 2291TIP3   OH228287   2.621   5.855  16.472 -0.0521  0.6535 -0.5268
 2291TIP3    H128288   2.633   5.765  16.439 -1.0947 -0.1873  1.2531
 2291TIP3    H228289   2.608   5.907  16.393 -1.0283 -1.0328 -1.5453
 2292TIP3   OH228290   2.666   1.394  13.306 -0.0406  0.5140  0.2206
 2292TIP3    H128291   2.713   1.415  13.225  0.4241  1.5968  0.7558
 2292TIP3    H228292   2.647   1.479  13.345  0.0389 -0.0095  1.4287
 2293TIP3   OH228293   1.403   6.525  16.075 -0.1662 -0.1330 -0.6269
 2293TIP3    H128294   1.357   6.452  16.115 -0.1826  0.6921  0.9212
 2293TIP3    H228295   1.467   6.553  16.141 -1.6480  2.6470 -0.2256
 2294TIP3   OH228296   6.083   0.191  10.897  0.5557  0.0225 -0.2724
 2294TIP3    H128297   6.095   0.150  10.811  0.1609 -3.1720  1.0596
 2294TIP3    H228298   6.054   0.120  10.954 -2.2433  2.6108  1.8624
 2295TIP3   OH228299   4.337   2.465  13.846  0.3294 -0.0363  0.0013
 2295TIP3    H128300   4.243   2.447  13.835  0.2266  1.0411 -1.1984
 2295TIP3    H228301   4.366   2.402  13.911 -1.1366 -0.6973  0.0642
 2296TIP3   OH228302   1.651   4.978   4.684 -0.1954  0.0980 -0.3992
 2296TIP3    H128303   1.562   4.992   4.715  0.7008  0.7988  2.0953
 2296TIP3    H228304   1.692   5.064   4.689  0.6031 -0.1978 -1.5932
 2297TIP3   OH228305   4.584   2.983  12.629  1.0937 -0.9312 -0.4576
 2297TIP3    H128306   4.510   2.978  12.690  2.3487 -1.1762  1.1078
 2297TIP3    H228307   4.585   3.074  12.600  1.1183 -0.5399  0.7318
 2298TIP3   OH228308   3.892   1.230  14.138 -0.2436  0.4133 -0.4569
 2298TIP3    H128309   3.802   1.197  14.138 -0.0287 -0.1960 -1.1360
 2298TIP3    H228310   3.900   1.277  14.055  0.0774  0.4460 -0.4074
 2299TIP3   OH228311   0.058   3.751  15.748  0.5678  0.6969 -0.0401
 2299TIP3    H128312   0.027   3.841  15.753  0.1349  0.7068 -2.0542
 2299TIP3    H228313   0.153   3.759  15.740  0.6445  0.9077  1.0277
 2300TIP3   OH228314   0.985   5.413  17.188  0.1992 -0.2018 -0.4391
 2300TIP3    H128315   1.012   5.496  17.228 -3.2784  0.0567  1.7889
 2300TIP3    H228316   0.939   5.438  17.108  1.7619 -0.2962 -1.4174
 2301TIP3   OH228317   0.603   0.871   3.287  0.3505  0.3122  0.1499
 2301TIP3    H128318   0.602   0.781   3.255  2.1519  0.4736 -0.4815
 2301TIP3    H228319   0.512   0.901   3.278 -0.2521 -1.3878  0.2768
 2302TIP3   OH228320   3.075   4.987   0.750  0.3420  0.1534  0.1396
 2302TIP3    H128321   2.994   4.984   0.802 -1.2322  0.5951 -2.1462
 2302TIP3    H228322   3.088   5.080   0.731  0.6021 -0.0434 -0.6733
 2303TIP3   OH228323   0.754   3.527  11.879  0.1711 -0.0684 -0.2114
 2303TIP3    H128324   0.831   3.576  11.849 -0.2750  0.7540 -0.0371
 2303TIP3    H228325   0.679   3.577  11.848 -0.3229 -1.2216 -0.9665
 2304TIP3   OH228326   2.903   4.726  13.369  0.3248 -0.0691  0.5137
 2304TIP3    H128327   2.898   4.750  13.277  1.7465  0.6993  0.6013
 2304TIP3    H228328   2.822   4.760  13.407 -0.6045 -1.0174 -0.5643
 2305TIP3   OH228329   1.421   5.081   3.553 -0.3678  0.4099 -0.7012
 2305TIP3    H128330   1.414   5.016   3.483 -1.9710 -0.8988  0.5696
 2305TIP3    H228331   1.330   5.101   3.576  0.0955  0.6742  1.0892
 2306TIP3   OH228332   1.939   2.885   5.471 -0.1799  0.0143  0.1633
 2306TIP3    H128333   2.008   2.924   5.526 -1.2991  0.2037  1.4754
 2306TIP3    H228334   1.967   2.904   5.381  1.2855  0.4216  0.6751
 2307TIP3   OH228335   2.855   5.521   0.332  0.2546 -0.1733  0.0694
 2307TIP3    H128336   2.796   5.554   0.265 -0.6915 -1.4075  0.2582
 2307TIP3    H228337   2.802   5.517   0.412  0.5154 -1.4478  0.2056
 2308TIP3   OH228338   4.754   3.591   3.892  0.7169  0.7463  0.2956
 2308TIP3    H128339   4.791   3.581   3.805  1.4080  0.0542  0.6569
 2308TIP3    H228340   4.703   3.672   3.888  1.2453  1.0388 -0.5703
 2309TIP3   OH228341   4.523   6.289  17.268  0.8007  0.0256 -0.4592
 2309TIP3    H128342   4.531   6.378  17.302  1.4783  0.0457 -0.6489
 2309TIP3    H228343   4.508   6.235  17.345  1.2060  0.2049 -0.2535
 2310TIP3   OH228344   2.840   5.804  13.344 -0.1283  0.1278  0.2988
 2310TIP3    H128345   2.758   5.849  13.363 -2.0624 -1.8212 -2.5389
 2310TIP3    H228346   2.838   5.725  13.397  0.7855  0.8718  1.4782
 2311TIP3   OH228347   3.364   3.399  13.670  0.4393 -0.2988  0.4870
 2311TIP3    H128348   3.453   3.364  13.674  0.1977 -1.1190 -0.7996
 2311TIP3    H228349   3.320   3.347  13.604 -0.9819  0.1772  1.0031
 2312TIP3   OH228350   1.323   3.090  15.557 -0.3443  0.1037 -0.3138
 2312TIP3    H128351   1.231   3.110  15.575 -0.5876 -1.5311  0.4235
 2312TIP3    H228352   1.369   3.173  15.573 -1.7480  1.1489 -1.4068
 2313TIP3   OH228353   6.732   1.209   0.079  0.0697  0.0844 -0.5418
 2313TIP3    H128354   6.654   1.256   0.106 -1.3331 -0.9891 -2.5105
 2313TIP3    H228355   6.793   1.277   0.052 -0.6260  0.8801 -0.1442
 2314TIP3   OH228356   0.016   4.153   0.661  0.1214  0.1730 -0.2236
 2314TIP3    H128357  -0.053   4.118   0.605  0.8822  0.1827 -1.1826
 2314TIP3    H228358   0.083   4.084   0.661  0.1463  0.1897  0.6521
 2315TIP3   OH228359   6.086   0.582   5.534  0.0638  0.5371  0.3230
 2315TIP3    H128360   6.176   0.592   5.564  0.6578  1.2080 -1.5544
 2315TIP3    H228361   6.068   0.488   5.543  1.4858  0.1379 -0.6731
 2316TIP3   OH228362   5.296   4.426  14.897  0.1607 -0.2390 -0.2049
 2316TIP3    H128363   5.256   4.340  14.889  0.1199 -0.1070 -1.6121
 2316TIP3    H228364   5.389   4.408  14.916 -0.3846 -0.5425  2.6327
 2317TIP3   OH228365   1.686   3.519  16.715  0.6468  0.3056  0.2206
 2317TIP3    H128366   1.771   3.560  16.701  1.1191 -0.6335  0.2881
 2317TIP3    H228367   1.698   3.428  16.688  0.0709 -0.2050  1.5979
 2318TIP3   OH228368   3.843   4.296   5.826 -0.5789  0.2426 -0.0607
 2318TIP3    H128369   3.863   4.362   5.893  0.6401 -0.3194  0.1581
 2318TIP3    H228370   3.748   4.295   5.821 -0.6718  0.7420  1.2276
 2319TIP3   OH228371   6.418   4.173   4.566  0.3360  0.8145 -1.4489
 2319TIP3    H128372   6.477   4.247   4.552  0.5961  0.7605 -0.6865
 2319TIP3    H228373   6.332   4.212   4.576  0.8565  1.3297  1.9120
 2320TIP3   OH228374   6.679   0.654  12.428  0.4192 -0.5249 -0.1406
 2320TIP3    H128375   6.620   0.665  12.354 -0.2871 -0.8022  0.3655
 2320TIP3    H228376   6.730   0.735  12.432 -0.5240  0.0683 -0.0695
 2321TIP3   OH228377   5.684   4.350  12.474 -0.1395  0.3560 -0.2076
 2321TIP3    H128378   5.633   4.401  12.537  0.7707 -1.9386  2.5917
 2321TIP3    H228379   5.662   4.259  12.493  0.1454 -0.4706 -3.3345
 2322TIP3   OH228380   4.011   6.059   5.340  0.0922 -0.2621 -0.2904
 2322TIP3    H128381   4.046   5.970   5.339  1.9557  0.3969 -2.1074
 2322TIP3    H228382   3.918   6.049   5.359  0.7625 -2.3212  2.5052
 2323TIP3   OH228383   4.595   1.254  16.085  0.0346  0.2452 -0.4580
 2323TIP3    H128384   4.506   1.283  16.109  0.7436  2.4114 -0.1863
 2323TIP3    H228385   4.635   1.331  16.045  1.2287 -1.2365 -2.2505
 2324TIP3   OH228386   6.453   0.040   5.633  0.3390 -0.2607 -0.0199
 2324TIP3    H128387   6.414   0.127   5.629  0.8604 -0.0717 -1.2618
 2324TIP3    H228388   6.408  -0.003   5.706 -0.8116  0.6026 -0.2033
 2325TIP3   OH228389   0.202   1.958  11.329  0.2326  0.0493 -0.4935
 2325TIP3    H128390   0.276   1.912  11.367  2.6184  1.9347 -2.4792
 2325TIP3    H228391   0.169   1.900  11.260 -0.4149 -0.9267  0.6023
 2326TIP3   OH228392   4.488   0.136  13.282  0.4997 -0.4965  0.0707
 2326TIP3    H128393   4.533   0.198  13.339  0.6523 -2.2356  1.9349
 2326TIP3    H228394   4.396   0.145  13.305  0.3685 -0.1135 -0.5614
 2327TIP3   OH228395   3.966   5.081   3.509 -0.2193 -0.4029  0.1603
 2327TIP3    H128396   4.005   4.999   3.539 -1.3181 -1.0559 -0.1032
 2327TIP3    H228397   3.978   5.142   3.581  0.1647 -0.9494  0.5655
 2328TIP3   OH228398   6.455   5.910  16.016  0.3519  0.4833 -0.2000
 2328TIP3    H128399   6.535   5.923  16.067  0.3470 -2.5872  0.7843
 2328TIP3    H228400   6.485   5.902  15.925  0.9426  0.9805 -0.0538
 2329TIP3   OH228401   5.817   4.914   4.792  0.1921  0.2690 -0.7333
 2329TIP3    H128402   5.799   4.868   4.710  1.5128 -1.3870 -0.1462
 2329TIP3    H228403   5.731   4.936   4.826 -0.5719 -2.4556 -0.7013
 2330TIP3   OH228404   3.208   5.260  14.718  0.1033  0.0663  0.3966
 2330TIP3    H128405   3.299   5.271  14.745  0.2366 -2.2320  1.0820
 2330TIP3    H228406   3.206   5.177  14.672 -1.9951 -1.0111  2.2132
 2331TIP3   OH228407   0.091   5.706   4.765  0.0018 -0.6755  0.4013
 2331TIP3    H128408   0.130   5.713   4.678  0.1291 -0.1715  0.4949
 2331TIP3    H228409   0.028   5.777   4.769  0.7074 -0.0748  1.0774
 2332TIP3   OH228410   6.610   1.058   5.392  0.8937  0.3861 -0.2285
 2332TIP3    H128411   6.540   1.042   5.328 -0.0319 -0.1280  0.8694
 2332TIP3    H228412   6.689   1.026   5.350 -0.1201 -2.6208 -0.0828
 2333TIP3   OH228413   1.305   3.373   3.971 -0.5996  0.0643  0.6374
 2333TIP3    H128414   1.259   3.395   3.890  1.0645  0.7436 -0.1642
 2333TIP3    H228415   1.343   3.287   3.953 -0.3373  0.1586  0.7478
 2334TIP3   OH228416   3.656   1.396  15.704 -0.9250 -0.0091 -0.9748
 2334TIP3    H128417   3.639   1.314  15.751 -0.5992  0.9825  0.9882
 2334TIP3    H228418   3.723   1.373  15.640  0.7873 -0.8671  1.0047
 2335TIP3   OH228419   1.817   0.241   5.608 -0.0710 -0.5693 -0.2580
 2335TIP3    H128420   1.818   0.182   5.532  0.2741 -2.2162  0.9691
 2335TIP3    H228421   1.901   0.226   5.651 -1.2943 -1.7141  1.9062
 2336TIP3   OH228422   6.126   0.268   1.867  0.3543  0.2469 -0.6091
 2336TIP3    H128423   6.144   0.322   1.944 -0.4487  0.0506 -0.2761
 2336TIP3    H228424   6.155   0.180   1.891 -0.9940 -0.0775 -0.0590
 2337TIP3   OH228425   0.799   4.202  14.113  0.1470  0.3640  0.5116
 2337TIP3    H128426   0.705   4.203  14.095  0.2472 -0.2329 -0.0634
 2337TIP3    H228427   0.832   4.282  14.074  0.0642 -0.0120 -0.3451
 2338TIP3   OH228428   0.148   1.529  16.517 -0.5590 -0.0481  0.5332
 2338TIP3    H128429   0.054   1.537  16.499 -0.6450 -1.6603  0.1126
 2338TIP3    H228430   0.154   1.529  16.613 -0.6692  2.8086  0.6198
 2339TIP3   OH228431   0.969   3.182  16.723 -0.2089  0.0040  0.8067
 2339TIP3    H128432   0.961   3.277  16.726 -0.9695 -0.0576  2.9693
 2339TIP3    H228433   1.060   3.166  16.697 -0.3044  1.2862 -0.4088
 2340TIP3   OH228434   1.902   3.452  12.538 -0.2160 -0.5697 -0.1936
 2340TIP3    H128435   1.958   3.504  12.481  0.0833 -0.2992  0.3433
 2340TIP3    H228436   1.813   3.476  12.512 -0.1462  1.9594  1.5370
 2341TIP3   OH228437   0.081   0.020  13.175  0.1880 -0.0612  0.8645
 2341TIP3    H128438   0.172  -0.008  13.182 -0.1012 -2.2806 -2.1164
 2341TIP3    H228439   0.033  -0.060  13.155 -1.6206  1.6774 -2.6018
 2342TIP3   OH228440   3.182   0.867  14.088  0.0965  0.0634 -0.2557
 2342TIP3    H128441   3.157   0.803  14.155 -1.1569 -0.1514 -0.8953
 2342TIP3    H228442   3.112   0.933  14.091  1.1833  1.2258  0.1453
 2343TIP3   OH228443   0.002   0.650   0.706 -0.4996  0.5125  0.4394
 2343TIP3    H128444  -0.073   0.628   0.761 -1.1370 -1.0406 -0.9544
 2343TIP3    H228445  -0.013   0.741   0.680 -0.3080  1.2080  2.5368
 2344TIP3   OH228446   2.731   3.825   2.289 -0.1076 -0.1397  0.2108
 2344TIP3    H128447   2.681   3.791   2.214 -1.1713  2.5215 -0.3796
 2344TIP3    H228448   2.677   3.895   2.324  0.1652 -1.4971  3.7929
 2345TIP3   OH228449   1.095   0.332  14.395 -0.1468 -0.3331 -0.9292
 2345TIP3    H128450   1.184   0.354  14.423  0.9794 -2.8984 -2.1536
 2345TIP3    H228451   1.046   0.323  14.477  0.7763  0.7314 -0.2204
 2346TIP3   OH228452   1.412   4.013   2.410  0.7234  0.6899 -0.0241
 2346TIP3    H128453   1.370   3.946   2.355  0.4974 -2.2800  3.4137
 2346TIP3    H228454   1.503   4.014   2.382  0.2157  0.9039 -1.8132
 2347TIP3   OH228455   2.073   4.555  13.862 -0.3304 -0.4556  0.1879
 2347TIP3    H128456   2.038   4.615  13.928  2.0087  1.0727  0.1756
 2347TIP3    H228457   2.053   4.597  13.778  2.2040  0.9967  0.2040
 2348TIP3   OH228458   2.120   5.194  17.176 -0.3625 -0.1132 -0.2750
 2348TIP3    H128459   2.192   5.130  17.180 -0.9784 -0.7962  0.0699
 2348TIP3    H228460   2.075   5.185  17.260 -1.5551 -0.5438 -0.9304
 2349TIP3   OH228461   3.776   4.319   0.678 -0.9288 -0.4066 -0.1993
 2349TIP3    H128462   3.749   4.407   0.703  1.9750  0.2085  1.2353
 2349TIP3    H228463   3.809   4.328   0.589  0.9760  0.4236  0.5432
 2350TIP3   OH228464   2.745   3.465  16.062  0.3492 -0.3785  0.4003
 2350TIP3    H128465   2.806   3.396  16.089 -0.5604 -2.2519 -2.0347
 2350TIP3    H228466   2.801   3.530  16.018  1.0440 -0.1510  1.5839
 2351TIP3   OH228467   0.187   2.329   1.958  0.6009  0.6590 -0.5533
 2351TIP3    H128468   0.234   2.368   2.032  0.3737  0.6553 -0.4055
 2351TIP3    H228469   0.255   2.281   1.909  0.0952 -3.5407  2.3280
 2352TIP3   OH228470   3.600   2.916   6.094  0.1023 -0.2051  0.5301
 2352TIP3    H128471   3.668   2.854   6.121  0.0069 -1.0070 -0.9537
 2352TIP3    H228472   3.628   3.000   6.132  0.8491 -0.9114  1.6125
 2353TIP3   OH228473   0.222   2.648  13.794 -0.3982  0.2477  0.4881
 2353TIP3    H128474   0.219   2.742  13.777  0.4650  0.4265  1.2369
 2353TIP3    H228475   0.300   2.618  13.749 -1.0868 -0.2617 -0.3843
 2354TIP3   OH228476   6.371   4.515   5.198 -0.3439 -0.1639 -0.1176
 2354TIP3    H128477   6.327   4.577   5.139  0.8842  0.1284 -0.7755
 2354TIP3    H228478   6.390   4.439   5.143 -0.4650 -0.4849  0.2813
 2355TIP3   OH228479   4.473   3.439  15.011  0.1009 -0.1305 -0.1441
 2355TIP3    H128480   4.441   3.444  14.921  0.6384  0.0825 -0.3263
 2355TIP3    H228481   4.487   3.345  15.026 -0.1475 -0.1813 -0.2246
 2356TIP3   OH228482   1.782   2.271   5.253 -0.4848  0.1392 -0.6417
 2356TIP3    H128483   1.877   2.266   5.241 -0.3680 -0.0308  0.2279
 2356TIP3    H228484   1.747   2.296   5.168  0.6063  3.7187 -0.1766
 2357TIP3   OH228485   3.242   4.386  14.990 -0.4185  0.5455  0.0272
 2357TIP3    H128486   3.218   4.458  15.049  0.2038  0.7893 -0.0150
 2357TIP3    H228487   3.300   4.331  15.042 -2.1979 -0.8483  0.6287
 2358TIP3   OH228488   0.858   2.973   4.779  0.1855 -1.1408 -0.0960
 2358TIP3    H128489   0.882   2.896   4.830  0.3776 -0.7797  0.3699
 2358TIP3    H228490   0.768   2.956   4.750  0.6058 -2.0229 -0.9326
 2359TIP3   OH228491   5.536   4.946  13.814 -0.7050  0.1827 -0.0264
 2359TIP3    H128492   5.495   4.870  13.854 -0.7164  1.4896  2.6865
 2359TIP3    H228493   5.497   4.952  13.727 -2.8420 -1.2451  0.7594
 2360TIP3   OH228494   1.041   1.901   3.850 -0.2484 -0.4881  0.9327
 2360TIP3    H128495   1.075   1.979   3.805  1.5927 -1.2639  0.9023
 2360TIP3    H228496   1.077   1.907   3.938  0.6925 -1.7420  0.6593
 2361TIP3   OH228497   4.534   2.720  15.235  0.1706  0.1732 -0.0885
 2361TIP3    H128498   4.573   2.713  15.322 -0.5103  0.9109  0.2818
 2361TIP3    H228499   4.470   2.649  15.231 -1.4799  1.5437  0.9135
 2362TIP3   OH228500   4.848   2.765  12.068 -0.0183  0.0712  0.0620
 2362TIP3    H128501   4.936   2.788  12.038  0.1587  0.9212  1.1460
 2362TIP3    H228502   4.790   2.829  12.026  0.0128  0.1825  0.1899
 2363TIP3   OH228503   2.802   1.371   5.105 -0.2746 -0.3420 -0.3016
 2363TIP3    H128504   2.773   1.461   5.091 -0.7215 -0.5749 -0.9302
 2363TIP3    H228505   2.739   1.333   5.166  0.1893 -0.0934  0.3433
 2364TIP3   OH228506   3.564   4.315   5.807  0.3433 -0.2129  0.5393
 2364TIP3    H128507   3.540   4.384   5.869 -0.2102 -1.4286  1.7336
 2364TIP3    H228508   3.481   4.277   5.779  0.6489 -0.6327  0.1757
 2365TIP3   OH228509   3.742   2.037  16.414  0.1239 -0.3454  0.2113
 2365TIP3    H128510   3.793   1.957  16.403  1.2370  0.3912 -0.0434
 2365TIP3    H228511   3.709   2.031  16.504 -0.3662 -1.3963 -0.0197
 2366TIP3   OH228512   1.707   4.402  13.736  0.9257 -0.2703  0.5434
 2366TIP3    H128513   1.727   4.396  13.643  0.6060  0.4499  0.4221
 2366TIP3    H228514   1.680   4.313  13.761 -0.7375 -0.0891 -0.4654
 2367TIP3   OH228515   3.869   2.318   3.506 -0.0807 -0.4691  0.0356
 2367TIP3    H128516   3.960   2.328   3.533 -0.2119 -0.4590  0.4777
 2367TIP3    H228517   3.818   2.342   3.583 -0.4837  1.0586 -0.6683
 2368TIP3   OH228518   4.453   1.536  11.811 -0.1426  0.2975 -0.1767
 2368TIP3    H128519   4.439   1.459  11.866 -1.6089  0.1453 -0.7142
 2368TIP3    H228520   4.444   1.611  11.871 -0.4251  0.0939  0.0395
 2369TIP3   OH228521   5.995   5.965  16.461 -0.3080  0.0702 -0.3242
 2369TIP3    H128522   6.012   5.945  16.369 -0.2809  1.3588 -0.6142
 2369TIP3    H228523   6.076   6.007  16.492 -0.8268  0.9345 -0.1099
 2370TIP3   OH228524   5.486   5.457  16.942 -0.3364  0.2905 -0.1135
 2370TIP3    H128525   5.474   5.432  16.851 -1.4997 -2.6751  0.7500
 2370TIP3    H228526   5.487   5.375  16.990 -0.4636  1.7837  2.6537
 2371TIP3   OH228527   6.027   0.227   0.742  0.2836  0.0840  0.7630
 2371TIP3    H128528   5.960   0.278   0.788 -1.5166  0.4367 -2.0265
 2371TIP3    H228529   6.091   0.292   0.713 -0.8216  0.5248 -0.8185
 2372TIP3   OH228530   0.424   0.277   2.115  0.3694  0.0732 -0.1169
 2372TIP3    H128531   0.510   0.312   2.092  0.3707 -0.6655 -1.3032
 2372TIP3    H228532   0.386   0.250   2.032 -0.4449 -0.8911  0.5467
 2373TIP3   OH228533   2.495   5.405   4.918  0.5122  0.0204  0.4915
 2373TIP3    H128534   2.475   5.315   4.945  1.6245 -0.0573  1.1445
 2373TIP3    H228535   2.503   5.400   4.823 -0.7374 -0.2867  0.3849
 2374TIP3   OH228536   2.181   4.966   1.996 -0.3093  0.0809  0.4117
 2374TIP3    H128537   2.180   5.045   2.049  0.3598 -0.0219  0.5745
 2374TIP3    H228538   2.270   4.933   2.002  0.2985  0.9744 -2.1098
 2375TIP3   OH228539   3.691   5.481   4.757  0.7211 -0.7418 -0.3650
 2375TIP3    H128540   3.758   5.545   4.781  0.5456 -0.3962 -0.7931
 2375TIP3    H228541   3.694   5.477   4.662 -1.0560  0.5943 -0.5256
 2376TIP3   OH228542   4.853   1.853  14.943  0.3694  0.2968  0.1311
 2376TIP3    H128543   4.906   1.895  15.010 -0.1434  2.0101 -0.4968
 2376TIP3    H228544   4.894   1.766  14.932  1.6503  0.7187  1.2314
 2377TIP3   OH228545   6.392   3.735  17.205 -0.5539 -0.2260 -0.4470
 2377TIP3    H128546   6.332   3.803  17.176 -1.3556 -0.5561  0.3971
 2377TIP3    H228547   6.347   3.653  17.186  0.4549 -0.5483 -1.5626
 2378TIP3   OH228548   5.168   0.445   3.159  0.0614  0.1840  0.1759
 2378TIP3    H128549   5.177   0.540   3.168 -1.6409  0.4138 -0.2472
 2378TIP3    H228550   5.244   0.418   3.108  0.0459  1.4565 -0.5485
 2379TIP3   OH228551   5.491   3.058  13.864 -0.0111  0.3946 -0.4043
 2379TIP3    H128552   5.573   3.095  13.828 -0.4199  1.6932 -0.0675
 2379TIP3    H228553   5.423   3.088  13.803 -0.5055  1.2129  0.5291
 2380TIP3   OH228554   6.007   4.057  13.957 -0.2820 -0.2464  0.2967
 2380TIP3    H128555   6.095   4.090  13.939 -0.1541  0.7798  2.5039
 2380TIP3    H228556   6.003   4.050  14.052 -2.5840 -0.3192  0.2493
 2381TIP3   OH228557   6.189   1.038   4.021 -0.2182 -0.0907  0.5839
 2381TIP3    H128558   6.096   1.038   4.043  0.0998 -2.7762  2.3667
 2381TIP3    H228559   6.230   1.087   4.093 -0.2388  1.8383 -0.6343
 2382TIP3   OH228560   3.457   5.792   4.615  0.6580 -0.1595 -0.0249
 2382TIP3    H128561   3.391   5.815   4.550  1.6693  0.5081 -0.8282
 2382TIP3    H228562   3.451   5.696   4.622  0.7642 -0.2724 -1.3339
 2383TIP3   OH228563   1.930   5.504   3.946 -0.2821  0.0007  0.0639
 2383TIP3    H128564   1.862   5.473   4.006 -0.5194 -0.0576 -0.2381
 2383TIP3    H228565   1.901   5.591   3.919  0.3760  0.5055  0.8999
 2384TIP3   OH228566   6.659   1.475  17.254  0.1363  0.2240 -0.1812
 2384TIP3    H128567   6.661   1.411  17.183  0.4998 -0.9226  0.8324
 2384TIP3    H228568   6.598   1.542  17.223  0.0372 -0.3997 -1.4300
 2385TIP3   OH228569   3.817   2.598   0.729  0.4572 -0.3575 -0.8978
 2385TIP3    H128570   3.794   2.506   0.714 -1.0559 -0.0747 -0.5118
 2385TIP3    H228571   3.906   2.607   0.695  0.4543 -1.8543 -1.3557
 2386TIP3   OH228572   1.878   5.521   1.751 -0.0538 -0.0771 -0.3594
 2386TIP3    H128573   1.841   5.523   1.662 -0.0286  0.4790 -0.3610
 2386TIP3    H228574   1.973   5.521   1.737  0.0314  2.7210 -0.3405
 2387TIP3   OH228575   5.468   6.031  16.714 -0.5167 -0.2359 -0.2090
 2387TIP3    H128576   5.539   5.990  16.763 -0.8360 -0.3055  0.2040
 2387TIP3    H228577   5.508   6.108  16.674  0.2824 -1.3423 -1.6234
 2388TIP3   OH228578   3.746   4.965  13.595  0.4114 -0.2385 -0.0020
 2388TIP3    H128579   3.766   5.017  13.517 -1.5255 -1.8605 -1.7119
 2388TIP3    H228580   3.651   4.956  13.594  0.5838 -3.3317  0.4213
 2389TIP3   OH228581   4.753   6.050   2.480 -0.2270  0.3120 -0.4551
 2389TIP3    H128582   4.736   6.011   2.566 -0.6617 -0.5425 -0.9172
 2389TIP3    H228583   4.844   6.080   2.485 -1.1711  3.3663  1.4679
 2390TIP3   OH228584   2.021   2.186   0.881  0.6496 -0.0846 -0.2004
 2390TIP3    H128585   1.986   2.105   0.918  1.6624  0.6172  2.5174
 2390TIP3    H228586   1.944   2.236   0.856 -0.0359 -1.1257 -0.2600
 2391TIP3   OH228587   4.359   3.523  11.639  0.7671  0.9568 -0.2036
 2391TIP3    H128588   4.303   3.589  11.680  0.5605 -0.9437  2.9029
 2391TIP3    H228589   4.429   3.508  11.703  1.1330 -1.3553 -1.0476
 2392TIP3   OH228590   1.892   5.482   3.269  0.4994  0.5475 -0.2562
 2392TIP3    H128591   1.821   5.526   3.222 -1.2630  0.3521  2.0404
 2392TIP3    H228592   1.928   5.420   3.206 -0.5682  1.5048 -1.8718
 2393TIP3   OH228593   3.257   1.967   4.854  0.1762 -0.8735  0.0605
 2393TIP3    H128594   3.278   1.973   4.947  0.6590  2.6313 -0.1527
 2393TIP3    H228595   3.161   1.977   4.851  0.0229 -2.1390  0.1975
 2394TIP3   OH228596   3.073   6.135   4.010 -0.5358 -0.0134 -0.6121
 2394TIP3    H128597   3.117   6.071   3.954  1.7006  0.7181  0.1961
 2394TIP3    H228598   3.044   6.085   4.086  0.4070 -0.2528 -0.3974
 2395TIP3   OH228599   5.631   5.061  14.705  0.0133 -0.7812  0.0396
 2395TIP3    H128600   5.551   5.086  14.751 -1.2929 -1.0456 -1.9385
 2395TIP3    H228601   5.634   4.966  14.711 -1.7290 -1.1173 -2.6365
 2396TIP3   OH228602   5.321   1.125   1.994 -0.4867 -0.2367  0.1682
 2396TIP3    H128603   5.326   1.217   1.970  0.7015 -0.4194 -0.3509
 2396TIP3    H228604   5.330   1.078   1.911  0.6952 -0.8306  0.6141
 2397TIP3   OH228605   5.528   1.748  13.125  0.8807  0.0585  0.1440
 2397TIP3    H128606   5.453   1.773  13.179  1.5766  1.9852  0.2967
 2397TIP3    H228607   5.496   1.757  13.035  0.3561 -1.1119  0.1879
 2398TIP3   OH228608   2.422   3.231   1.207  0.6992 -0.2896  0.6532
 2398TIP3    H128609   2.464   3.162   1.258  0.5034 -0.9651 -0.0778
 2398TIP3    H228610   2.380   3.185   1.134  1.2739  0.6729 -0.3273
 2399TIP3   OH228611   4.154   3.964  12.840 -0.2766  0.7878 -0.5061
 2399TIP3    H128612   4.212   4.021  12.791 -2.2209  0.6327 -3.2268
 2399TIP3    H228613   4.082   4.021  12.868 -1.2590  0.1268 -1.5679
 2400TIP3   OH228614   2.441   5.515   0.217  0.0252  0.0918 -0.1406
 2400TIP3    H128615   2.512   5.566   0.255  1.2473 -1.1992 -0.6156
 2400TIP3    H228616   2.475   5.486   0.132 -0.8095 -1.0854 -0.0967
 2401TIP3   OH228617   3.155   3.810  12.574  0.3013 -0.3630 -0.7065
 2401TIP3    H128618   3.094   3.758  12.625 -1.5316  0.5307 -1.8723
 2401TIP3    H228619   3.217   3.747  12.538 -0.1901 -1.3584  0.1659
 2402TIP3   OH228620   2.425   3.680  12.646 -0.3477  0.2814 -0.1034
 2402TIP3    H128621   2.488   3.748  12.671  0.0062  0.6988 -1.9453
 2402TIP3    H228622   2.475   3.599  12.649  0.3537  0.6180 -1.6111
 2403TIP3   OH228623   2.784   3.250   3.635  0.3328  0.3488  0.0516
 2403TIP3    H128624   2.697   3.223   3.666  1.0293  0.0046  1.8692
 2403TIP3    H228625   2.841   3.176   3.659  1.0841  0.4257 -1.4089
 2404TIP3   OH228626   2.767   0.463  14.345  0.1060  0.3582 -0.2559
 2404TIP3    H128627   2.800   0.493  14.430  0.3398  1.3073 -0.6635
 2404TIP3    H228628   2.710   0.533  14.315  0.1246  0.0943 -0.9378
 2405TIP3   OH228629   0.646   2.847   5.910 -0.3446  0.2418  0.1166
 2405TIP3    H128630   0.613   2.937   5.906  2.5041  1.3472 -1.3989
 2405TIP3    H228631   0.711   2.842   5.841 -1.2752 -3.4649 -0.7010
 2406TIP3   OH228632   5.008   6.403   3.516  0.1849 -0.1884 -0.0791
 2406TIP3    H128633   5.028   6.309   3.514  0.5145 -0.1206 -0.0697
 2406TIP3    H228634   4.973   6.422   3.429 -0.9003 -0.5378  0.2757
 2407TIP3   OH228635   4.446   6.374   2.362 -0.0422 -0.0916  0.1895
 2407TIP3    H128636   4.372   6.314   2.374  1.2218 -1.6151  0.8497
 2407TIP3    H228637   4.444   6.397   2.270 -2.5674  1.6478  0.5828
 2408TIP3   OH228638   0.350   3.987   0.896  0.0046  0.0573 -0.2847
 2408TIP3    H128639   0.319   3.939   0.819  0.2391  1.2110 -1.1364
 2408TIP3    H228640   0.288   4.060   0.905  0.2865  0.2325  0.3043
 2409TIP3   OH228641   1.789   1.024   4.029 -0.1748 -0.2325 -0.3697
 2409TIP3    H128642   1.875   1.033   4.069 -0.2207 -1.1732 -0.0249
 2409TIP3    H228643   1.805   1.034   3.935  0.3252 -0.4693 -0.3121
 2410TIP3   OH228644   1.088   6.408   2.591 -0.9081  0.5630 -0.0835
 2410TIP3    H128645   1.098   6.474   2.522  0.3731  1.5780  1.0119
 2410TIP3    H228646   1.000   6.423   2.625 -1.4252  0.2780 -1.2510
 2411TIP3   OH228647   5.073   6.675  16.422  0.4468 -0.3080 -0.2631
 2411TIP3    H128648   5.069   6.672  16.518 -0.5299  1.9688 -0.1546
 2411TIP3    H228649   5.007   6.740  16.398  1.3312 -0.1418 -2.4251
 2412TIP3   OH228650   2.280   1.380   6.210  0.2900  0.1542 -0.0632
 2412TIP3    H128651   2.260   1.427   6.291 -1.0125  0.3907 -0.4983
 2412TIP3    H228652   2.283   1.448   6.143  0.4441 -0.1535 -0.3723
 2413TIP3   OH228653   1.283   4.715   2.674 -0.7345  0.0835 -0.0880
 2413TIP3    H128654   1.242   4.733   2.759 -0.0941 -0.9760  0.4641
 2413TIP3    H228655   1.219   4.662   2.627 -0.1857 -1.2235  0.6149
 2414TIP3   OH228656   4.951   5.135  13.625  0.1539  0.4893 -0.4876
 2414TIP3    H128657   4.918   5.057  13.580 -1.6006  0.2656  1.0372
 2414TIP3    H228658   5.045   5.118  13.637  0.2940 -0.2451 -2.3375
 2415TIP3   OH228659   0.554   6.204  13.203 -0.1867  0.1289  0.1158
 2415TIP3    H128660   0.481   6.144  13.222 -3.1324  2.4133 -2.7033
 2415TIP3    H228661   0.584   6.178  13.116  0.9795  0.5224  0.3860
 2416TIP3   OH228662   3.326   6.518  16.219  0.3011 -0.2973  0.2152
 2416TIP3    H128663   3.284   6.468  16.289 -1.9933 -1.1272 -1.6571
 2416TIP3    H228664   3.420   6.514  16.240 -0.2099 -1.4531  2.5870
 2417TIP3   OH228665   3.775   4.649  16.689 -0.0218 -0.2073 -1.0825
 2417TIP3    H128666   3.845   4.599  16.731 -0.3804  0.1999  0.0358
 2417TIP3    H228667   3.705   4.585  16.676 -0.2791 -0.1249 -0.1456
 2418TIP3   OH228668   6.095   1.569  10.923 -0.2713 -0.0597  0.3309
 2418TIP3    H128669   6.052   1.585  11.007 -0.4811 -0.2667  0.2632
 2418TIP3    H228670   6.104   1.656  10.884  0.1139  0.0716  0.7060
 2419TIP3   OH228671   1.893   3.304   0.349 -0.0453 -0.4384 -0.0622
 2419TIP3    H128672   1.854   3.330   0.266  0.5310  1.6562  0.2534
 2419TIP3    H228673   1.818   3.277   0.403 -0.6895  0.3888 -0.5187
 2420TIP3   OH228674   5.631   3.124  14.951  0.3170 -0.0348  0.3940
 2420TIP3    H128675   5.717   3.157  14.976  0.8272 -0.6211 -0.5589
 2420TIP3    H228676   5.641   3.095  14.861 -0.0547 -2.8724  1.1594
 2421TIP3   OH228677   4.329   6.549  12.046  0.2608 -0.4193  0.0175
 2421TIP3    H128678   4.395   6.617  12.052  1.4275 -1.5716  0.9194
 2421TIP3    H228679   4.249   6.594  12.020  0.9707  1.2865  0.6994
 2422TIP3   OH228680   5.477   1.823  16.603 -0.3085  0.1485 -0.5849
 2422TIP3    H128681   5.383   1.818  16.586 -0.8954 -3.1843  2.3494
 2422TIP3    H228682   5.486   1.883  16.677 -0.2910 -0.4045 -0.1340
 2423TIP3   OH228683   4.275   1.359   2.908  0.5907  0.5306 -0.0802
 2423TIP3    H128684   4.325   1.382   2.986  0.4405  1.0515 -0.1354
 2423TIP3    H228685   4.195   1.412   2.913  0.3395  0.1824 -0.3205
 2424TIP3   OH228686   0.152   4.790   2.991  0.5663  0.2782  0.1965
 2424TIP3    H128687   0.187   4.821   3.074  0.9686  0.9743 -0.2269
 2424TIP3    H228688   0.057   4.802   2.999  0.7211  1.6823  0.0205
 2425TIP3   OH228689   1.692   5.618  12.881 -0.3010 -0.2123  0.6433
 2425TIP3    H128690   1.653   5.533  12.859 -2.4182  1.0264 -0.7699
 2425TIP3    H228691   1.779   5.616  12.840 -0.9364 -1.1420 -0.7438
 2426TIP3   OH228692   3.670   1.057  17.301  0.1048  0.2040  0.4726
 2426TIP3    H128693   3.671   0.971  17.259 -1.9776  0.2477  0.2254
 2426TIP3    H228694   3.744   1.055  17.362  0.6873 -1.3824 -0.2400
 2427TIP3   OH228695   1.009   0.573  15.083  0.0610  0.1062 -0.4045
 2427TIP3    H128696   1.073   0.576  15.011  1.6504 -0.7108  0.8918
 2427TIP3    H228697   1.063   0.567  15.162 -1.6420 -0.2352  0.7803
 2428TIP3   OH228698   2.215   4.959   0.881  0.0064 -0.2952 -0.0425
 2428TIP3    H128699   2.307   4.930   0.876  0.4496  1.2223 -1.4208
 2428TIP3    H228700   2.166   4.893   0.833  0.0084 -2.2213  2.3700
 2429TIP3   OH228701   2.998   0.832   4.930  0.4387 -0.3789 -0.1403
 2429TIP3    H128702   2.952   0.855   4.850  1.9037  0.1248 -0.8644
 2429TIP3    H228703   2.937   0.857   5.000 -0.8316 -0.7707 -1.0634
 2430TIP3   OH228704   0.310   5.673   6.061 -0.3087 -0.4229  0.2784
 2430TIP3    H128705   0.309   5.767   6.044  0.4641 -0.0491  2.0558
 2430TIP3    H228706   0.218   5.647   6.059 -0.4032 -0.1192 -2.4503
 2431TIP3   OH228707   0.576   1.341   1.359  0.2233 -0.2227  0.0327
 2431TIP3    H128708   0.558   1.408   1.293  1.6883 -0.0882 -0.2655
 2431TIP3    H228709   0.609   1.267   1.309 -1.6904 -1.3220  0.3282
 2432TIP3   OH228710   4.476   4.525  14.984  0.5811 -0.0090  0.2715
 2432TIP3    H128711   4.561   4.544  15.024  0.5629  1.1883 -0.2303
 2432TIP3    H228712   4.430   4.474  15.050  1.1537  0.5556  1.1314
 2433TIP3   OH228713   1.655   1.735   4.957  0.6528  0.3656  0.4083
 2433TIP3    H128714   1.625   1.813   5.003 -0.8467  0.2298 -0.2633
 2433TIP3    H228715   1.588   1.719   4.890  2.3309  0.0935 -1.3015
 2434TIP3   OH228716   5.577   1.739  13.779  0.0390  0.0648 -0.7510
 2434TIP3    H128717   5.651   1.787  13.816 -1.1577 -0.0189  1.9533
 2434TIP3    H228718   5.575   1.656  13.827 -1.1233 -0.4265 -1.5927
 2435TIP3   OH228719   5.297   4.608   5.533 -0.1493 -0.1322 -0.3502
 2435TIP3    H128720   5.380   4.643   5.501 -0.4703  0.6466 -0.3674
 2435TIP3    H228721   5.242   4.686   5.547 -1.0005 -0.6562 -0.6999
 2436TIP3   OH228722   3.712   5.565   2.097  0.2522  0.2320  0.4554
 2436TIP3    H128723   3.637   5.598   2.048  0.2658  0.1610  0.3868
 2436TIP3    H228724   3.730   5.633   2.162 -0.2194 -0.0015  0.8377
 2437TIP3   OH228725   2.575   2.907  15.195 -0.7346 -0.6194  0.2251
 2437TIP3    H128726   2.622   2.826  15.175 -0.0554  0.2057 -1.7504
 2437TIP3    H228727   2.531   2.930  15.113 -1.1642  0.8526  0.8339
 2438TIP3   OH228728   6.227   2.002   3.282 -0.2462 -0.0348 -0.1395
 2438TIP3    H128729   6.176   1.931   3.321  1.0964 -1.0762 -0.2323
 2438TIP3    H228730   6.318   1.973   3.288  0.2845  1.4392 -0.6832
 2439TIP3   OH228731   2.688   3.620   0.773 -0.6714  0.4944 -0.1880
 2439TIP3    H128732   2.782   3.630   0.758 -0.8268  0.7581 -1.0547
 2439TIP3    H228733   2.670   3.672   0.851 -0.1501  0.7348 -0.2261
 2440TIP3   OH228734   5.753   3.418  14.606  0.0772  0.2133  0.7017
 2440TIP3    H128735   5.792   3.498  14.639  3.5837 -0.9515 -0.0998
 2440TIP3    H228736   5.747   3.431  14.511 -0.5210 -0.0229  0.7009
 2441TIP3   OH228737   1.481   1.994  14.990 -0.3512 -0.1295  0.0884
 2441TIP3    H128738   1.462   1.922  15.049  0.6120 -1.1374 -0.7853
 2441TIP3    H228739   1.565   1.971  14.949 -0.9623  0.5313 -1.6567
 2442TIP3   OH228740   0.222   0.442  15.070  0.3046 -0.4081  0.1179
 2442TIP3    H128741   0.256   0.353  15.054  0.3138 -0.3949  0.0610
 2442TIP3    H228742   0.127   0.431  15.072  0.2221 -0.1884 -1.4312
 2443TIP3   OH228743   6.418   2.782   4.673 -0.2441  0.5583  0.3872
 2443TIP3    H128744   6.436   2.715   4.740 -0.9950 -0.7553 -0.6726
 2443TIP3    H228745   6.336   2.753   4.632 -0.2464  1.7971 -0.5404
 2444TIP3   OH228746   5.049   4.102  13.564  0.8625 -0.3637  0.4913
 2444TIP3    H128747   5.130   4.153  13.554 -1.3209  3.4759  0.4964
 2444TIP3    H228748   5.046   4.080  13.657  1.6711 -0.1190  0.5843
 2445TIP3   OH228749   4.600   2.609   3.254  0.5282  0.3487 -0.6304
 2445TIP3    H128750   4.620   2.697   3.219 -2.5689  1.0676 -0.9013
 2445TIP3    H228751   4.567   2.561   3.178  0.4842 -0.4316 -0.1212
 2446TIP3   OH228752   1.977   5.007  15.406 -0.2924  0.1344 -0.1788
 2446TIP3    H128753   1.974   4.913  15.425 -1.7917  0.3636  0.9201
 2446TIP3    H228754   2.064   5.035  15.436  0.8048 -1.1439 -1.9764
 2447TIP3   OH228755   2.824   3.984   3.223 -0.3308  0.1150 -0.2913
 2447TIP3    H128756   2.796   3.974   3.132  0.5260 -0.4457 -0.4994
 2447TIP3    H228757   2.854   4.075   3.229 -2.6214  0.9071  0.0756
 2448TIP3   OH228758   5.955   1.972   0.991 -0.2259  0.0257 -0.1427
 2448TIP3    H128759   5.891   2.020   1.043  0.9606  1.1241  0.3527
 2448TIP3    H228760   5.909   1.892   0.965 -1.0950 -0.2146  1.9460
 2449TIP3   OH228761   4.013   4.355  15.967 -0.2710  0.6374  0.3188
 2449TIP3    H128762   3.992   4.368  15.874 -1.3062 -0.3000  0.4006
 2449TIP3    H228763   4.108   4.359  15.971 -0.1476 -0.4933 -0.9774
 2450TIP3   OH228764   4.196   2.500  16.842 -0.2235  0.0936 -0.0109
 2450TIP3    H128765   4.173   2.412  16.870 -2.1346  0.4547 -0.3202
 2450TIP3    H228766   4.181   2.555  16.919  0.6782  0.2145  0.0934
 2451TIP3   OH228767   1.786   5.057  16.671 -0.4031 -0.0055  0.1355
 2451TIP3    H128768   1.810   4.993  16.604  0.1770  0.1625  0.1798
 2451TIP3    H228769   1.806   5.013  16.754 -0.8999 -0.1237  0.1980
 2452TIP3   OH228770   3.746   0.512  15.261 -0.0881 -0.3276 -0.2444
 2452TIP3    H128771   3.668   0.473  15.223 -0.4214 -0.1594  0.2539
 2452TIP3    H228772   3.774   0.449  15.328 -0.0495 -0.1869 -0.1267
 2453TIP3   OH228773   1.828   6.675   0.176 -0.5875  0.6462  0.0461
 2453TIP3    H128774   1.880   6.596   0.192 -1.5374  0.1800  0.9043
 2453TIP3    H228775   1.888   6.747   0.198  0.2675  0.1897 -0.6901
 2454TIP3   OH228776   6.412   6.572  12.324  0.8944 -0.8120  1.0281
 2454TIP3    H128777   6.386   6.664  12.323  2.5067 -0.3116  2.3443
 2454TIP3    H228778   6.343   6.528  12.373  0.4415 -0.2085  0.9437
 2455TIP3   OH228779   5.246   4.211   1.388  0.1355  0.1985 -0.0794
 2455TIP3    H128780   5.233   4.256   1.305  0.5658  0.6365  0.0843
 2455TIP3    H228781   5.300   4.271   1.440 -1.5723  0.7447  1.1734
 2456TIP3   OH228782   2.482   2.112   2.246  0.3375  0.2231 -0.5230
 2456TIP3    H128783   2.408   2.167   2.221 -0.2394 -0.9757 -1.5732
 2456TIP3    H228784   2.520   2.156   2.322 -2.1487  0.2842  0.7981
 2457TIP3   OH228785   5.102   1.414  14.864 -0.7035 -0.0455 -0.3441
 2457TIP3    H128786   5.168   1.442  14.928  0.0076 -0.1160 -1.0340
 2457TIP3    H228787   5.153   1.385  14.788 -1.4957 -1.0915 -0.4931
 2458TIP3   OH228788   1.426   5.470  15.379 -0.3905  0.1296 -0.3843
 2458TIP3    H128789   1.426   5.565  15.392 -0.5627  0.0786 -0.0259
 2458TIP3    H228790   1.518   5.444  15.388 -0.1799  0.4042 -1.5298
 2459TIP3   OH228791   4.798   6.081  14.772  0.1434  0.8950 -0.2326
 2459TIP3    H128792   4.734   6.055  14.706  0.0128 -0.4947  0.3999
 2459TIP3    H228793   4.792   6.012  14.839  1.0857  1.6585  0.6574
 2460TIP3   OH228794   3.741   5.304   5.482 -0.0407  0.0805  0.9657
 2460TIP3    H128795   3.647   5.318   5.472 -0.0599 -0.1493  0.8058
 2460TIP3    H228796   3.774   5.305   5.392  0.2442  1.0593  1.0650
 2461TIP3   OH228797   6.036   1.417   3.584 -0.5876 -0.0413  0.1873
 2461TIP3    H128798   6.124   1.396   3.552 -1.2283 -0.6201 -1.3171
 2461TIP3    H228799   5.992   1.332   3.588 -1.7835  0.4462 -1.3990
 2462TIP3   OH228800   6.625   4.251   3.644 -0.7040 -0.1296  0.1469
 2462TIP3    H128801   6.614   4.327   3.701 -0.8573  0.0861 -0.1635
 2462TIP3    H228802   6.674   4.187   3.696 -0.6157  0.1662  0.4232
 2463TIP3   OH228803   4.274   5.977  16.563  0.3294  0.3145 -0.0448
 2463TIP3    H128804   4.259   5.921  16.639 -1.3673  1.5081  0.5493
 2463TIP3    H228805   4.354   6.026  16.583 -0.1601  0.6903  1.0262
 2464TIP3   OH228806   1.292   2.200  15.447  0.5223  0.6873 -0.4379
 2464TIP3    H128807   1.276   2.248  15.528  0.7860  0.6048 -0.3347
 2464TIP3    H228808   1.228   2.235  15.385 -0.2813  0.1286  0.0529
 2465TIP3   OH228809   6.723   1.376  14.149  0.6666 -0.3819 -0.3570
 2465TIP3    H128810   6.673   1.295  14.162 -1.9152  1.4035  2.0522
 2465TIP3    H228811   6.677   1.423  14.080  1.4316 -0.4074 -0.8981
 2466TIP3   OH228812   6.624   5.738  12.168  0.3965  0.3956 -0.4093
 2466TIP3    H128813   6.669   5.822  12.178 -0.0074  0.3813  2.1359
 2466TIP3    H228814   6.535   5.761  12.141 -0.2279  0.9729  1.9562
 2467TIP3   OH228815   5.713   5.447   1.002  0.5293 -0.8124  0.1503
 2467TIP3    H128816   5.789   5.390   0.986  1.9000  1.6502 -3.6431
 2467TIP3    H228817   5.669   5.452   0.917 -0.8913  1.8959  0.9365
 2468TIP3   OH228818   0.449   3.636   3.118 -0.1672  0.7033 -0.2007
 2468TIP3    H128819   0.534   3.631   3.160  0.0422  2.3553 -0.3767
 2468TIP3    H228820   0.434   3.548   3.083  0.7656 -0.0184  1.1372
 2469TIP3   OH228821   6.146   1.718  12.793  0.6964  0.0873  0.2336
 2469TIP3    H128822   6.101   1.634  12.784 -1.5282  1.3128 -1.1979
 2469TIP3    H228823   6.228   1.707  12.745  0.5771 -1.3342  0.3145
 2470TIP3   OH228824   3.301   2.993  14.615  0.4378 -0.0722  0.4199
 2470TIP3    H128825   3.211   2.978  14.587 -0.1050  1.4943  1.2377
 2470TIP3    H228826   3.294   3.047  14.693  2.1022  1.0888 -0.1663
 2471TIP3   OH228827   5.642   0.491  13.781  0.1850 -0.5018  0.3913
 2471TIP3    H128828   5.621   0.445  13.863 -0.4300  0.2312  0.6602
 2471TIP3    H228829   5.557   0.512  13.743  0.4389  0.7978  0.5010
 2472TIP3   OH228830   2.830   5.358  15.185  0.6541 -0.3000  0.2258
 2472TIP3    H128831   2.838   5.380  15.092  0.2510  1.8576  0.6414
 2472TIP3    H228832   2.888   5.283  15.197  0.2707 -1.0053 -1.8677
 2473TIP3   OH228833   6.452   4.745   5.826  0.6641 -0.3982 -0.2794
 2473TIP3    H128834   6.491   4.703   5.903  0.1678 -1.0972 -0.3953
 2473TIP3    H228835   6.524   4.753   5.764  0.4349 -2.7667 -0.9488
 2474TIP3   OH228836   0.045   2.370   2.257  0.9824  0.6894  0.2508
 2474TIP3    H128837   0.050   2.275   2.263  0.4809  0.7481  2.2161
 2474TIP3    H228838  -0.042   2.387   2.221  1.3625  0.4266 -0.8512
 2475TIP3   OH228839   6.200   3.030  13.116 -0.2651  0.2981  0.3381
 2475TIP3    H128840   6.159   3.115  13.099  0.3031  0.6463  0.7105
 2475TIP3    H228841   6.197   2.985  13.031  0.6397  1.2060 -0.1993
 2476TIP3   OH228842   4.784   3.765   2.902  0.1123 -0.4380  0.0504
 2476TIP3    H128843   4.723   3.772   2.829  1.6135 -0.3624 -1.2489
 2476TIP3    H228844   4.853   3.827   2.882  0.1855  0.1675  1.9601
 2477TIP3   OH228845   6.120   2.518  12.896  0.5637  0.7182  0.1270
 2477TIP3    H128846   6.206   2.537  12.858 -0.1327  2.6125 -0.6449
 2477TIP3    H228847   6.059   2.533  12.824 -0.3524 -2.3767  0.1378
 2478TIP3   OH228848   3.354   6.387  11.219 -0.5436 -0.2428 -0.0903
 2478TIP3    H128849   3.374   6.418  11.307 -0.7500 -0.2435 -0.0436
 2478TIP3    H228850   3.258   6.382  11.216 -0.5704  0.4370 -0.5445
 2479TIP3   OH228851   5.200   5.440  17.336 -0.2162 -0.0725  0.4380
 2479TIP3    H128852   5.141   5.366  17.322  0.7042 -0.9618  1.1333
 2479TIP3    H228853   5.287   5.406  17.315  0.2513  0.7473  0.9813
 2480TIP3   OH228854   5.310   5.812   3.464 -1.2157 -0.3270 -0.0937
 2480TIP3    H128855   5.374   5.859   3.517 -1.1912 -0.2169 -0.2218
 2480TIP3    H228856   5.273   5.747   3.523 -1.1364 -0.2509  0.0395
 2481TIP3   OH228857   5.034   5.854  12.375 -0.1892 -0.0628  0.0412
 2481TIP3    H128858   5.091   5.794  12.327  0.2140 -0.9667  1.5688
 2481TIP3    H228859   5.079   5.938  12.371  0.5795 -0.4629  0.0862
 2482TIP3   OH228860   0.340   2.177  15.433 -0.3546 -0.2063  0.7625
 2482TIP3    H128861   0.355   2.208  15.343 -0.8134 -0.5720  0.5575
 2482TIP3    H228862   0.245   2.177  15.443 -0.3505 -1.2006  0.8784
 2483TIP3   OH228863   4.027   6.532   4.118  0.2065 -0.2748 -0.1890
 2483TIP3    H128864   4.000   6.488   4.199  0.4167  1.5901  0.9631
 2483TIP3    H228865   4.078   6.467   4.070  0.5434 -1.2684  1.4554
 2484TIP3   OH228866   4.369   3.441  14.770 -0.0895 -0.1320  0.0873
 2484TIP3    H128867   4.352   3.349  14.750 -2.0366  0.3702 -0.7785
 2484TIP3    H228868   4.387   3.481  14.685 -0.9429  0.5960  0.2356
 2485TIP3   OH228869   4.545   2.559   6.078  0.0007 -0.2721 -0.6200
 2485TIP3    H128870   4.495   2.625   6.126  1.0340  0.6698 -0.8116
 2485TIP3    H228871   4.553   2.486   6.139 -0.3347  0.1522 -0.0581
 2486TIP3   OH228872   1.461   1.273   0.654 -0.0543  0.3243 -0.4980
 2486TIP3    H128873   1.394   1.233   0.709 -1.3768  0.0209 -2.2579
 2486TIP3    H228874   1.517   1.320   0.715 -2.1653  1.0345  0.9903
 2487TIP3   OH228875   0.400   0.386   0.002 -0.8687 -0.5128  0.3684
 2487TIP3    H128876   0.463   0.316   0.020 -2.1150 -1.3323  1.9005
 2487TIP3    H228877   0.444   0.443  -0.060  1.3193 -1.1203  1.2522
 2488TIP3   OH228878   0.597   1.677   6.208  0.2990  0.4341 -0.3058
 2488TIP3    H128879   0.523   1.724   6.169 -0.5555  0.7943  1.6218
 2488TIP3    H228880   0.672   1.735   6.194 -0.7522  2.6095  2.1740
 2489TIP3   OH228881   5.865   3.725   0.456 -0.4441 -0.2219  0.3695
 2489TIP3    H128882   5.948   3.680   0.441 -0.7270 -0.0042 -2.5434
 2489TIP3    H228883   5.803   3.655   0.476  0.0260 -0.6261  0.4415
 2490TIP3   OH228884   4.983   5.966   3.063  0.2088  0.6709 -0.1704
 2490TIP3    H128885   5.054   5.969   3.128  0.2660 -0.0713 -0.1814
 2490TIP3    H228886   4.924   5.898   3.096  1.3759 -1.3474 -1.9876
 2491TIP3   OH228887   4.160   6.591  12.571 -0.0767  0.8720 -0.1382
 2491TIP3    H128888   4.178   6.501  12.600 -0.2603  0.7096 -0.5298
 2491TIP3    H228889   4.229   6.610  12.508  1.1634  1.7268  1.4110
 2492TIP3   OH228890   5.074   6.508  13.358  0.3275  0.1448  0.4442
 2492TIP3    H128891   5.118   6.540  13.437 -1.4846  1.9293  0.8125
 2492TIP3    H228892   5.107   6.564  13.288 -0.5883  0.8633  0.5637
 2493TIP3   OH228893   4.699   0.264   1.241  0.8569  0.1652  0.0590
 2493TIP3    H128894   4.642   0.333   1.275  0.3058 -0.6350  0.8112
 2493TIP3    H228895   4.702   0.199   1.311  1.8041 -0.3246 -0.4189
 2494TIP3   OH228896   2.161   4.714  16.181 -0.0183  0.5512 -0.3831
 2494TIP3    H128897   2.151   4.647  16.114  0.2594  0.4025 -0.2759
 2494TIP3    H228898   2.091   4.695  16.244 -1.2863  1.6400 -1.4178
 2495TIP3   OH228899   5.847   1.304   5.035  0.1147  0.0901  0.0421
 2495TIP3    H128900   5.913   1.239   5.009  2.2927  0.8986  2.9597
 2495TIP3    H228901   5.876   1.385   4.993  2.0878  0.8031  2.5338
 2496TIP3   OH228902   2.376   1.750   1.703 -0.0238 -0.1561  0.2528
 2496TIP3    H128903   2.365   1.839   1.667  0.0596  0.2699  1.2503
 2496TIP3    H228904   2.330   1.694   1.641 -0.1383  0.5930 -0.3634
 2497TIP3   OH228905   4.052   3.949   6.341  0.1024 -0.0251  0.3534
 2497TIP3    H128906   4.090   3.970   6.426  0.2586 -0.7893  0.4730
 2497TIP3    H228907   4.106   3.998   6.278  0.1201  0.3678  0.6711
 2498TIP3   OH228908   4.744   3.588   1.997  0.1823 -0.1585  0.6023
 2498TIP3    H128909   4.693   3.667   2.015  1.2693  0.7593 -0.1590
 2498TIP3    H228910   4.758   3.590   1.902 -0.9131 -2.0000  0.3636
 2499TIP3   OH228911   6.404   5.055  12.791  0.2804 -0.1994  0.3380
 2499TIP3    H128912   6.494   5.082  12.775  0.1700 -0.7201 -1.4179
 2499TIP3    H228913   6.355   5.089  12.715 -0.5743 -1.8338  0.1167
 2500TIP3   OH228914   5.905   5.733   0.392  0.3285 -0.1040  0.0401
 2500TIP3    H128915   5.899   5.788   0.314 -1.2239  1.2597  1.0546
 2500TIP3    H228916   5.817   5.698   0.404  1.0936 -2.2202 -0.0993
 2501TIP3   OH228917   3.049   0.656  15.454  0.8698 -0.2600 -0.0453
 2501TIP3    H128918   3.029   0.569  15.419 -0.2480 -0.0752  0.0839
 2501TIP3    H228919   3.049   0.644  15.549  0.4229 -0.0787 -0.0163
 2502TIP3   OH228920   6.746   1.723   0.676  0.2880 -0.0293  0.8524
 2502TIP3    H128921   6.777   1.813   0.664  0.5855  0.3785  3.8806
 2502TIP3    H228922   6.823   1.676   0.710  0.0763 -1.4222 -0.4900
 2503TIP3   OH228923   4.688   0.798  12.426 -0.5395  0.4966 -0.0351
 2503TIP3    H128924   4.633   0.816  12.502 -0.3525  0.9594 -0.0057
 2503TIP3    H228925   4.714   0.884  12.394  0.0538  0.2891 -0.1320
 2504TIP3   OH228926   1.616   2.954   0.415 -0.1646  0.3262 -0.5444
 2504TIP3    H128927   1.691   2.903   0.444 -0.1150 -0.3213 -1.7349
 2504TIP3    H228928   1.576   2.986   0.496  0.8208 -0.1259  0.1497
 2505TIP3   OH228929   6.750   1.203   1.009 -0.2925 -0.3465 -0.5012
 2505TIP3    H128930   6.672   1.258   1.001 -0.9563 -1.0567  0.7016
 2505TIP3    H228931   6.794   1.236   1.088 -0.8420 -1.6639  0.3959
 2506TIP3   OH228932   2.126   1.769   5.479  0.2634 -0.5494  0.4370
 2506TIP3    H128933   2.110   1.781   5.385 -0.0963 -2.7187  0.1736
 2506TIP3    H228934   2.219   1.789   5.490  0.6793 -1.7049 -0.6846
 2507TIP3   OH228935   3.240   5.864  13.600 -0.0026  0.5372 -0.4959
 2507TIP3    H128936   3.274   5.801  13.663 -0.8196 -0.7391 -1.2734
 2507TIP3    H228937   3.318   5.897  13.555  0.4525  0.0975 -0.0479
 2508TIP3   OH228938   4.682   3.859   1.794  0.3080 -0.6302 -0.9737
 2508TIP3    H128939   4.657   3.807   1.718  2.9072 -0.6111 -1.9488
 2508TIP3    H228940   4.778   3.853   1.797  0.3145 -2.6683  3.7670
 2509TIP3   OH228941   4.489   4.785  12.743 -0.8705  0.1210  0.4743
 2509TIP3    H128942   4.401   4.812  12.768 -0.6466  0.2715  1.1252
 2509TIP3    H228943   4.526   4.746  12.823 -1.1052 -1.9450 -0.3487
 2510TIP3   OH228944   0.187   3.488  15.850  0.1061  0.4831  0.1370
 2510TIP3    H128945   0.214   3.541  15.925  1.0346  0.4516 -0.1610
 2510TIP3    H228946   0.092   3.479  15.859  0.3144 -0.3438  1.8445
 2511TIP3   OH228947   6.592   1.812  12.613 -0.2497  0.1370 -0.4121
 2511TIP3    H128948   6.515   1.771  12.652  0.7846 -1.0736  0.4056
 2511TIP3    H228949   6.610   1.760  12.534  1.4292 -1.4728  0.9533
 2512TIP3   OH228950   4.879   6.146  11.274  0.1764 -0.0642  0.4779
 2512TIP3    H128951   4.913   6.180  11.191  1.4765  0.1774  1.0760
 2512TIP3    H228952   4.957   6.138  11.330 -0.8940  2.0814  2.4773
 2513TIP3   OH228953   3.934   0.434  13.638  0.5957 -0.6344 -0.2267
 2513TIP3    H128954   3.849   0.406  13.672  1.2561 -1.7207  0.6196
 2513TIP3    H228955   3.925   0.528  13.622 -0.9018 -0.8304 -0.6277
 2514TIP3   OH228956   1.677   3.203   3.643  0.4406 -0.4691 -0.1856
 2514TIP3    H128957   1.764   3.168   3.663  1.1078  0.7794 -0.7952
 2514TIP3    H228958   1.677   3.291   3.682 -0.4420 -0.3510 -0.4367
 2515TIP3   OH228959   0.179   2.520   2.803 -0.2119  0.1406  0.0683
 2515TIP3    H128960   0.122   2.591   2.773  0.8136  0.8300 -0.3119
 2515TIP3    H228961   0.119   2.449   2.827 -1.2199  0.8544 -0.2787
 2516TIP3   OH228962   0.829   1.690  11.833  0.0503  0.6912 -0.7844
 2516TIP3    H128963   0.753   1.635  11.849  0.6585 -0.1761 -0.7728
 2516TIP3    H228964   0.882   1.641  11.770 -0.4182  2.2738 -2.4737
 2517TIP3   OH228965   6.099   2.470  10.805 -0.3753 -0.0726  0.0844
 2517TIP3    H128966   6.162   2.529  10.845 -1.1885  0.2282  0.9306
 2517TIP3    H228967   6.154   2.409  10.754  0.5006  1.0200 -0.3264
 2518TIP3   OH228968   6.345   0.503  10.814  0.2810  0.1022 -0.2135
 2518TIP3    H128969   6.351   0.408  10.808  1.1848  0.0502  1.0959
 2518TIP3    H228970   6.423   0.536  10.770 -1.2110  0.3970 -2.8585
 2519TIP3   OH228971   2.748   0.162   2.526 -0.3215  0.1805 -0.0203
 2519TIP3    H128972   2.793   0.132   2.446  0.0218 -1.6044  0.7842
 2519TIP3    H228973   2.786   0.247   2.544  1.7377 -0.6332 -0.1906
 2520TIP3   OH228974   6.122   0.296   4.644  0.1227  0.2107  0.0143
 2520TIP3    H128975   6.158   0.222   4.692 -0.3324  0.0070  0.0465
 2520TIP3    H228976   6.170   0.372   4.677  1.6755 -0.2233 -1.0824
 2521TIP3   OH228977   5.271   2.173   1.912  0.6588  0.0565  0.2382
 2521TIP3    H128978   5.272   2.214   1.825 -2.7928 -3.1921 -1.6291
 2521TIP3    H228979   5.185   2.197   1.948  0.2767 -2.0645  0.8255
 2522TIP3   OH228980   4.368   6.257  16.081  0.0987  0.0842  0.4523
 2522TIP3    H128981   4.414   6.311  16.145 -2.7126  0.4960  2.2796
 2522TIP3    H228982   4.318   6.320  16.029  0.5286 -0.4473 -0.6400
 2523TIP3   OH228983   5.033   5.885   2.315  0.0845 -0.2367 -0.5803
 2523TIP3    H128984   5.077   5.872   2.399 -1.2548 -2.1116 -0.1139
 2523TIP3    H228985   5.019   5.980   2.309 -0.8560 -0.1589  1.8818
 2524TIP3   OH228986   5.628   2.593  16.029  0.6879 -0.3988 -0.0273
 2524TIP3    H128987   5.566   2.534  15.987  1.3215 -1.9505  1.1285
 2524TIP3    H228988   5.573   2.658  16.073 -0.1358 -1.4507  0.5539
 2525TIP3   OH228989   4.540   6.004   4.318 -0.0048 -0.0966  0.1839
 2525TIP3    H128990   4.488   6.073   4.357  1.5255  0.9634  0.4303
 2525TIP3    H228991   4.518   6.007   4.225  0.3479  1.0169  0.1255
 2526TIP3   OH228992   2.362   5.831   0.035 -0.1131  0.3571 -0.0086
 2526TIP3    H128993   2.318   5.883   0.102  1.8743  1.4703  0.5319
 2526TIP3    H228994   2.384   5.893  -0.034 -1.7951 -0.7045 -1.6080
 2527TIP3   OH228995   6.087   6.468  13.371  0.0211  0.4304  0.0042
 2527TIP3    H128996   6.175   6.472  13.333  0.0928  1.7480  0.2484
 2527TIP3    H228997   6.095   6.403  13.441  0.6929  0.2409 -0.2315
 2528TIP3   OH228998   4.152   2.360   3.618  0.0862  0.4292 -0.3118
 2528TIP3    H128999   4.146   2.303   3.541 -0.1067 -2.4571  1.6395
 2528TIP3    H229000   4.245   2.363   3.638  0.1510  1.2978 -0.7239
 2529TIP3   OH229001   6.671   6.130   0.915  0.5486  0.6354  0.0635
 2529TIP3    H129002   6.717   6.103   0.994 -0.0482 -1.3703 -0.2188
 2529TIP3    H229003   6.610   6.197   0.944  0.5831  0.1744  1.2550
 2530TIP3   OH229004   6.323   6.373   3.548  0.1449 -0.5222 -0.0382
 2530TIP3    H129005   6.244   6.327   3.577  0.5745 -0.7755  0.7608
 2530TIP3    H229006   6.330   6.351   3.455 -1.2209  0.2498 -0.3582
 2531TIP3   OH229007   0.165   0.892   2.765 -0.3796 -0.3159 -0.2979
 2531TIP3    H129008   0.080   0.872   2.804 -0.0872 -1.2715 -0.1276
 2531TIP3    H229009   0.212   0.940   2.834  0.2826 -2.3334  0.7453
 2532TIP3   OH229010   6.236   0.823  12.043 -0.2591 -0.6778 -0.4604
 2532TIP3    H129011   6.192   0.769  11.977  0.1703 -2.9505  1.0126
 2532TIP3    H229012   6.190   0.802  12.125  1.0521 -0.1162  0.4469
 2533TIP3   OH229013   5.662   2.785  10.850  0.8933  0.1809  0.0888
 2533TIP3    H129014   5.738   2.775  10.907 -0.1637 -0.6199  1.4508
 2533TIP3    H229015   5.669   2.712  10.788  1.4684  0.3883 -0.0945
 2534TIP3   OH229016   1.836   1.675   3.551 -0.0583  0.2677 -0.2490
 2534TIP3    H129017   1.876   1.762   3.555 -1.9670  1.3164 -1.7526
 2534TIP3    H229018   1.876   1.634   3.474  1.3998 -0.5271  0.9020
 2535TIP3   OH229019   3.996   0.989  11.938  0.0930  0.2214  1.0014
 2535TIP3    H129020   4.010   0.916  11.999  1.3381 -1.6742 -1.3979
 2535TIP3    H229021   4.082   1.031  11.931 -0.1754  0.7660  0.9805
 2536TIP3   OH229022   1.193   4.720  15.827  0.3130 -0.3713  0.5423
 2536TIP3    H129023   1.151   4.634  15.829  0.3536 -0.5622 -2.5921
 2536TIP3    H229024   1.120   4.782  15.836  0.0139 -0.7042  0.4009
 2537TIP3   OH229025   5.445   0.418   2.915  0.2189  0.1657  0.2253
 2537TIP3    H129026   5.406   0.500   2.944  1.1185  0.6084  0.1978
 2537TIP3    H229027   5.417   0.409   2.824  0.1641  0.4697  0.2107
 2538TIP3   OH229028   1.455   6.416  15.174  0.4319 -0.0971  0.2485
 2538TIP3    H129029   1.399   6.360  15.228 -2.2775  2.1284  0.0348
 2538TIP3    H229030   1.436   6.505  15.204  2.2287  0.9375 -1.3990
 2539TIP3   OH229031   5.589   4.048   3.111  0.5563 -0.9340 -0.2381
 2539TIP3    H129032   5.650   3.992   3.160 -1.6468 -2.7988  0.5449
 2539TIP3    H229033   5.593   4.013   3.021  1.2536 -0.4720 -0.3955
 2540TIP3   OH229034   5.764   5.273   6.445 -0.2516 -0.2205  0.8813
 2540TIP3    H129035   5.683   5.222   6.450  0.7215 -1.7540  2.0219
 2540TIP3    H229036   5.756   5.339   6.515 -1.3673  1.0356 -0.3736
 2541TIP3   OH229037   4.898   3.757  15.616  0.4662 -0.3256  0.0642
 2541TIP3    H129038   4.901   3.668  15.581  2.4415 -1.0607  1.8990
 2541TIP3    H229039   4.837   3.751  15.689  0.2108 -0.0357 -0.1228
 2542TIP3   OH229040   0.439   0.355   6.533  0.2911 -0.2069 -0.0984
 2542TIP3    H129041   0.409   0.443   6.557  1.9436  0.0380  1.3287
 2542TIP3    H229042   0.469   0.363   6.443 -1.7787  0.0634 -0.8021
 2543TIP3   OH229043   5.164   4.693   3.633 -0.4595 -0.1879 -0.2523
 2543TIP3    H129044   5.109   4.695   3.711  0.1592 -0.3457  0.2041
 2543TIP3    H229045   5.234   4.631   3.655  0.6265  0.9740 -0.3123
 2544TIP3   OH229046   4.428   6.068  12.119  0.7539  0.4237  0.4114
 2544TIP3    H129047   4.460   6.153  12.091 -1.9473  0.8722 -1.7965
 2544TIP3    H229048   4.466   6.006  12.057  1.3172  0.2687  0.9120
 2545TIP3   OH229049   2.066   1.313   0.216 -0.5258  0.2365  0.0134
 2545TIP3    H129050   2.046   1.343   0.304 -1.8884  0.0402 -0.2128
 2545TIP3    H229051   1.983   1.318   0.169  0.3881  1.4607 -1.5957
 2546TIP3   OH229052   5.615   2.201  16.945  0.5155  0.0881 -0.3811
 2546TIP3    H129053   5.644   2.224  17.033  0.0183 -0.4241 -0.0743
 2546TIP3    H229054   5.662   2.261  16.887  2.5067 -0.9649  0.0594
 2547TIP3   OH229055   5.459   5.952  13.458 -0.4389 -0.7015 -0.0923
 2547TIP3    H129056   5.529   6.010  13.428  0.2570 -0.0004  2.6149
 2547TIP3    H229057   5.496   5.906  13.533 -1.3626 -3.9285 -1.4719
 2548TIP3   OH229058   5.334   4.321  15.214 -0.3675 -0.1656  0.1772
 2548TIP3    H129059   5.257   4.277  15.178 -0.9844  1.5025 -0.6182
 2548TIP3    H229060   5.314   4.334  15.306 -0.7631 -0.2801  0.1087
 2549TIP3   OH229061   1.416   2.672   3.102  0.7648 -0.2647 -0.1398
 2549TIP3    H129062   1.448   2.649   3.190 -3.7290  1.2291  2.1573
 2549TIP3    H229063   1.441   2.763   3.090 -0.3293  0.1419  0.5436
 2550TIP3   OH229064   0.748   3.919  14.327  0.0694 -0.0957  0.2620
 2550TIP3    H129065   0.770   4.010  14.346  0.1866  0.4591 -2.1293
 2550TIP3    H229066   0.656   3.921  14.299 -0.7573 -1.1713  2.6716
 2551TIP3   OH229067   1.314   2.821  14.239  0.0013  0.2113  0.1360
 2551TIP3    H129068   1.408   2.842  14.235 -0.3184  1.6914 -0.1807
 2551TIP3    H229069   1.289   2.843  14.328  0.1498 -1.1889  0.5480
 2552TIP3   OH229070   2.759   4.302  15.374  0.1963 -0.0706  0.2810
 2552TIP3    H129071   2.711   4.263  15.447 -0.5209  0.6839  0.2354
 2552TIP3    H229072   2.708   4.279  15.297  0.1874  0.3031  0.1738
 2553TIP3   OH229073   4.322   2.185   1.448  0.4219  0.1874  0.7465
 2553TIP3    H129074   4.376   2.263   1.430 -0.5095  0.7247  0.2054
 2553TIP3    H229075   4.232   2.213   1.430  0.1595 -1.3087 -0.4999
 2554TIP3   OH229076   0.423   5.486   0.147 -0.3264  0.4205  0.4227
 2554TIP3    H129077   0.517   5.502   0.141 -0.4529  0.9568 -0.2864
 2554TIP3    H229078   0.383   5.563   0.107 -1.0743  0.2525  0.8293
 2555TIP3   OH229079   1.085   0.017   3.660  0.1742 -0.0775 -0.3579
 2555TIP3    H129080   1.136   0.066   3.595  0.4502 -0.4615 -0.4334
 2555TIP3    H229081   0.994   0.033   3.635  0.2747 -0.0745 -0.7281
 2556TIP3   OH229082   2.314   4.906   6.389  0.0726 -0.0286 -0.0835
 2556TIP3    H129083   2.358   4.991   6.381 -2.1956  1.2701  0.4305
 2556TIP3    H229084   2.228   4.918   6.349 -0.6697 -1.8085  0.8329
 2557TIP3   OH229085   5.060   4.448  11.563 -0.0622 -0.0295 -0.0956
 2557TIP3    H129086   5.095   4.493  11.640  0.6861  0.0260 -0.4623
 2557TIP3    H229087   5.114   4.370  11.554 -3.6457 -3.2722  2.8097
 2558TIP3   OH229088   5.153   1.596   0.739  0.0055 -0.2211  0.2588
 2558TIP3    H129089   5.215   1.650   0.789 -0.9441  0.9361  0.2364
 2558TIP3    H229090   5.196   1.512   0.730  0.8539  0.0229  1.7215
 2559TIP3   OH229091   4.856   1.043   3.103 -0.1671 -0.1494 -0.1868
 2559TIP3    H129092   4.835   0.950   3.110 -0.2475 -0.0382  1.2583
 2559TIP3    H229093   4.776   1.083   3.070 -0.5813 -0.4157  0.4788
 2560TIP3   OH229094   4.239   3.003   1.646  0.4161 -0.0684  0.5587
 2560TIP3    H129095   4.193   2.978   1.726  1.1831 -1.5274  0.5778
 2560TIP3    H229096   4.274   2.921   1.612 -3.9026 -0.4581 -3.9778
 2561TIP3   OH229097   1.411   5.673   3.931  0.4035  0.1415 -0.4721
 2561TIP3    H129098   1.322   5.696   3.958  0.4205 -0.2153 -0.1005
 2561TIP3    H229099   1.457   5.757   3.926  0.4594  0.2126  0.8191
 2562TIP3   OH229100   4.502   6.176  15.115 -1.0363  0.0247  0.0426
 2562TIP3    H129101   4.591   6.146  15.132 -1.2081 -0.3402  0.3317
 2562TIP3    H229102   4.475   6.129  15.036 -1.1622 -0.2810  0.2651
 2563TIP3   OH229103   1.439   0.537   4.180  0.0813 -1.1952 -0.1377
 2563TIP3    H129104   1.374   0.467   4.177 -0.5075 -0.6351 -0.9076
 2563TIP3    H229105   1.429   0.582   4.097  0.6088 -0.3426  0.2506
 2564TIP3   OH229106   3.933   1.853  17.016 -0.6960 -0.1863  0.8078
 2564TIP3    H129107   3.841   1.857  16.993 -0.1591  1.0486 -1.4257
 2564TIP3    H229108   3.966   1.773  16.975 -0.3626  0.4786 -0.2670
 2565TIP3   OH229109   0.563   4.974   3.960  0.5307 -0.2897 -0.1922
 2565TIP3    H129110   0.509   4.928   3.895 -1.3639  0.2484  0.9107
 2565TIP3    H229111   0.557   5.066   3.934 -3.2826  0.4970  2.5598
 2566TIP3   OH229112   1.516   5.203   0.156 -0.0872  0.4072  0.3197
 2566TIP3    H129113   1.451   5.227   0.089 -0.2187 -0.0380  0.2826
 2566TIP3    H229114   1.553   5.121   0.125 -2.0505 -1.2880  2.0639
 2567TIP3   OH229115   6.305   4.415  15.067 -0.2671  0.1279 -0.0933
 2567TIP3    H129116   6.237   4.443  15.006 -1.1381 -0.7027  0.4863
 2567TIP3    H229117   6.360   4.354  15.017 -0.4217  0.1716 -0.3150
 2568TIP3   OH229118   3.424   6.710  11.155  0.2841  0.2099 -0.3109
 2568TIP3    H129119   3.400   6.624  11.121 -0.3002  0.3690 -0.3142
 2568TIP3    H229120   3.515   6.723  11.128  1.3327 -1.5681  1.9682
 2569TIP3   OH229121   5.881   5.383  12.004 -0.4287 -0.0258 -0.1970
 2569TIP3    H129122   5.847   5.471  12.019 -0.3816  0.0654 -0.6195
 2569TIP3    H229123   5.847   5.332  12.078  0.2037  0.5200  0.4860
 2570TIP3   OH229124   1.090   0.210  13.801 -0.6312  0.7941 -0.2037
 2570TIP3    H129125   1.029   0.255  13.861 -0.0496 -0.8911  1.7740
 2570TIP3    H229126   1.149   0.279  13.771 -3.2643  2.4648 -2.0282
 2571TIP3   OH229127   3.247   5.657   1.254 -0.3366  0.0314 -0.1806
 2571TIP3    H129128   3.314   5.595   1.228  0.0449 -0.7066  2.2386
 2571TIP3    H229129   3.283   5.743   1.234  0.2309 -0.4408 -1.2191
 2572TIP3   OH229130   1.871   1.140   5.011 -0.1926  0.8856 -0.4889
 2572TIP3    H129131   1.836   1.119   5.098  0.0947  1.5188 -0.2177
 2572TIP3    H229132   1.841   1.067   4.956  1.8060 -0.9344  0.6739
 2573TIP3   OH229133   0.919   0.270  12.488 -0.5036  0.0588  0.4699
 2573TIP3    H129134   0.873   0.211  12.547  0.9577 -1.8735 -0.2200
 2573TIP3    H229135   0.962   0.212  12.425  0.0472  1.9306 -0.9557
 2574TIP3   OH229136   5.877   2.021   5.495  0.0021  0.0031 -0.6825
 2574TIP3    H129137   5.853   1.961   5.565 -0.7204  0.3438 -0.6269
 2574TIP3    H229138   5.832   1.987   5.418 -1.2861  1.0381 -0.4292
 2575TIP3   OH229139   4.114   1.863  11.322 -0.4719 -0.1830 -0.0564
 2575TIP3    H129140   4.101   1.828  11.234  0.4058  1.5162 -0.9125
 2575TIP3    H229141   4.032   1.844  11.368 -0.9147 -1.1632 -1.1915
 2576TIP3   OH229142   5.666   5.626  14.585 -0.2214  0.3408  0.2706
 2576TIP3    H129143   5.617   5.667  14.656 -0.1353  0.3322  0.3341
 2576TIP3    H229144   5.604   5.622  14.513 -0.2499  0.5244  0.2843
 2577TIP3   OH229145   1.141   3.532  12.185  0.3804  0.6604  0.0209
 2577TIP3    H129146   1.166   3.547  12.093 -0.2340 -1.2196 -0.5064
 2577TIP3    H229147   1.051   3.500  12.180  1.1328 -1.8671  1.0208
 2578TIP3   OH229148   5.948   6.305  17.207 -0.3590 -0.2398  1.2487
 2578TIP3    H129149   5.901   6.298  17.290  0.7950  1.6536  2.1560
 2578TIP3    H229150   5.880   6.317  17.141 -1.2641  2.9222  2.5748
 2579TIP3   OH229151   4.233   6.268   5.521 -0.2486  0.3645  0.0199
 2579TIP3    H129152   4.280   6.346   5.551 -0.9511  0.7688  0.0918
 2579TIP3    H229153   4.288   6.233   5.451 -1.0457  2.2805 -1.6704
 2580TIP3   OH229154   0.336   4.391   1.152 -0.1792 -0.5552  0.6652
 2580TIP3    H129155   0.286   4.473   1.155 -0.0018 -0.3889 -0.3777
 2580TIP3    H229156   0.428   4.419   1.153 -0.1193 -0.7517  0.6455
 2581TIP3   OH229157   3.785   4.567   0.100 -0.0213  0.2209 -0.0358
 2581TIP3    H129158   3.754   4.654   0.075  0.3212  0.2435 -0.3908
 2581TIP3    H229159   3.719   4.507   0.068  0.3443  0.2602 -0.8790
 2582TIP3   OH229160   5.057   5.045   5.588 -0.1074  0.4729  0.2527
 2582TIP3    H129161   5.025   5.134   5.571 -1.7214  0.2901  2.0502
 2582TIP3    H229162   5.110   5.053   5.668  1.2620  0.0822 -0.5684
 2583TIP3   OH229163   2.470   2.828   4.964 -0.1171  0.2024  0.6727
 2583TIP3    H129164   2.511   2.743   4.978  2.2146  0.9309 -1.0534
 2583TIP3    H229165   2.485   2.848   4.872 -1.9368  1.8357  0.6625
 2584TIP3   OH229166   4.339   2.715   2.635  0.9732 -0.1193 -0.2529
 2584TIP3    H129167   4.244   2.702   2.634  1.0429 -1.3492  1.8001
 2584TIP3    H229168   4.352   2.791   2.692  1.2357 -0.5935  0.3322
 2585TIP3   OH229169   4.694   3.237   2.870  0.0252  0.2508 -0.2472
 2585TIP3    H129170   4.708   3.323   2.910  0.2790  0.5360 -0.9111
 2585TIP3    H229171   4.683   3.257   2.777  1.6198 -0.5508 -0.6495
 2586TIP3   OH229172   4.195   0.925  12.906  0.1443  0.0448 -0.9525
 2586TIP3    H129173   4.170   0.834  12.891  0.2459 -0.6704  2.4955
 2586TIP3    H229174   4.116   0.975  12.886 -0.3435 -0.9195 -1.5026
 2587TIP3   OH229175   5.119   5.361  15.348 -0.0303  0.0039  0.4991
 2587TIP3    H129176   5.058   5.307  15.297  2.4123 -1.8351 -0.6790
 2587TIP3    H229177   5.113   5.326  15.437 -2.1034  1.2203  0.9099
 2588TIP3   OH229178   1.774   1.874  13.079 -0.2336 -0.5363  0.4375
 2588TIP3    H129179   1.783   1.925  13.159 -0.9277 -0.3820  0.4260
 2588TIP3    H229180   1.734   1.792  13.108 -2.5342  0.3559 -0.0103
 2589TIP3   OH229181   2.730   2.806   0.871 -0.6406 -0.2854  0.4416
 2589TIP3    H129182   2.717   2.745   0.799 -1.4649 -1.2300  1.3601
 2589TIP3    H229183   2.703   2.891   0.836  0.7198 -0.3768 -0.9182
 2590TIP3   OH229184   3.556   5.131  14.751 -0.1462 -0.1247 -0.4995
 2590TIP3    H129185   3.507   5.049  14.760  1.2092 -0.9920 -0.5857
 2590TIP3    H229186   3.515   5.191  14.812 -0.2090 -1.3762  0.7483
 2591TIP3   OH229187   1.659   2.222   4.206  0.1563  0.3766  0.0128
 2591TIP3    H129188   1.737   2.228   4.151 -0.4489  0.8235 -0.8339
 2591TIP3    H229189   1.613   2.305   4.191  0.3352  0.8286  1.7812
 2592TIP3   OH229190   0.722   2.035  12.593  0.0977  0.4042 -0.2276
 2592TIP3    H129191   0.674   1.982  12.656  0.5827  0.2648  0.0246
 2592TIP3    H229192   0.692   2.003  12.507  1.3680 -1.2150 -0.1035
 2593TIP3   OH229193   6.068   2.628  16.085 -0.2099  0.2070 -0.0083
 2593TIP3    H129194   6.161   2.608  16.091 -0.2408  0.4677  1.6719
 2593TIP3    H229195   6.034   2.613  16.173 -1.1309  3.0469  0.2360
 2594TIP3   OH229196   0.747   0.983  15.589 -0.1657 -0.2805  0.0481
 2594TIP3    H129197   0.770   0.892  15.608  0.4400  0.0391  0.8653
 2594TIP3    H229198   0.653   0.988  15.608 -0.1704 -0.7004  0.1397
 2595TIP3   OH229199   5.898   0.924   5.322  0.0449 -0.4167  0.6396
 2595TIP3    H129200   5.902   0.874   5.403  0.7431 -0.3335  0.6647
 2595TIP3    H229201   5.852   0.867   5.261  1.2078 -1.2903  0.5414
 2596TIP3   OH229202   6.720   3.557  15.534  0.8189  0.1346  0.4323
 2596TIP3    H129203   6.768   3.567  15.616  2.0773  1.5174 -0.4303
 2596TIP3    H229204   6.751   3.473  15.499 -0.5803 -1.0522  1.8453
 2597TIP3   OH229205   6.433   1.112   3.739 -0.2349  0.8636 -0.3706
 2597TIP3    H129206   6.341   1.088   3.731  0.0207 -0.6319  0.7758
 2597TIP3    H229207   6.476   1.067   3.666  0.0791 -1.4544  1.1546
 2598TIP3   OH229208   2.323   3.089   0.969  0.2057  0.0037 -0.3136
 2598TIP3    H129209   2.311   3.005   1.014  1.0292  1.4231  2.7854
 2598TIP3    H229210   2.361   3.065   0.884  0.3051 -2.7644  0.4102
 2599TIP3   OH229211   0.134   2.139   4.128  0.3615  0.5450 -0.1778
 2599TIP3    H129212   0.197   2.067   4.119  1.2253  1.4071 -1.2870
 2599TIP3    H229213   0.187   2.215   4.149 -0.3063  1.2858 -1.1157
 2600TIP3   OH229214   5.973   4.787  14.307 -0.3095  0.1711 -0.2319
 2600TIP3    H129215   5.916   4.845  14.256  0.4350 -0.5719 -2.0019
 2600TIP3    H229216   6.056   4.786  14.258 -0.2177 -2.1529 -0.1473
 2601TIP3   OH229217   1.007   0.451  11.642  0.4189 -0.3512 -0.0512
 2601TIP3    H129218   0.937   0.446  11.707 -0.4402  1.1266 -0.8084
 2601TIP3    H229219   0.963   0.480  11.562  2.0770  1.9749 -0.2018
 2602TIP3   OH229220   6.330   4.052   5.919  0.1302  0.4929 -0.5952
 2602TIP3    H129221   6.297   3.981   5.974  1.3133  1.2346  1.1827
 2602TIP3    H229222   6.252   4.103   5.895 -0.4536 -0.0622  0.0919
 2603TIP3   OH229223   4.309   1.112  13.273  0.1192 -0.6218 -0.1361
 2603TIP3    H129224   4.368   1.152  13.336  0.1423 -0.7543 -0.0740
 2603TIP3    H229225   4.334   1.149  13.188 -0.2714 -0.0228  0.0027
 2604TIP3   OH229226   0.040   0.870   0.349 -0.1717 -0.3985  0.2834
 2604TIP3    H129227   0.135   0.886   0.348  0.1477 -1.9244 -2.1115
 2604TIP3    H229228   0.024   0.821   0.268 -3.2180  0.9586 -0.0464
 2605TIP3   OH229229   2.638   4.434  16.244 -0.2262  0.4620 -0.2307
 2605TIP3    H129230   2.636   4.341  16.222  2.2188 -0.1557  1.6364
 2605TIP3    H229231   2.634   4.480  16.160  0.5943 -1.4134 -1.3501
 2606TIP3   OH229232   2.984   1.098   5.152  0.1188 -0.8536  0.2992
 2606TIP3    H129233   3.021   1.038   5.218 -0.1858  1.1044  2.3765
 2606TIP3    H229234   3.031   1.180   5.165 -1.9899  0.4519  0.1011
 2607TIP3   OH229235   0.166   1.324  12.160  0.0160  0.6218 -0.3349
 2607TIP3    H129236   0.202   1.403  12.118  0.5962  0.4798 -0.1033
 2607TIP3    H229237   0.120   1.357  12.237 -0.7612  0.8485 -0.8730
 2608TIP3   OH229238   0.333   0.182   5.889 -0.3565  0.4214  0.2172
 2608TIP3    H129239   0.401   0.192   5.823 -0.3248  2.0523  0.4488
 2608TIP3    H229240   0.254   0.161   5.840 -0.1949  0.9872 -0.2983
 2609TIP3   OH229241   4.910   3.100   4.268 -0.1932  0.2238  0.1837
 2609TIP3    H129242   4.822   3.136   4.252 -1.3682 -2.3938  0.3193
 2609TIP3    H229243   4.903   3.008   4.244  1.9964 -0.5154  2.0475
 2610TIP3   OH229244   3.173   0.223   6.558  0.2587  0.7788 -0.4432
 2610TIP3    H129245   3.220   0.303   6.533 -0.8434  1.3834 -0.6191
 2610TIP3    H229246   3.210   0.199   6.643  2.9463 -0.4128 -1.8004
 2611TIP3   OH229247   2.476   4.786   2.416  0.6186  0.1206  0.1003
 2611TIP3    H129248   2.558   4.773   2.464  0.1528 -1.0391  0.6185
 2611TIP3    H229249   2.437   4.698   2.412 -0.0990  0.4758 -1.0470
 2612TIP3   OH229250   2.158   2.517   2.846 -0.1887 -0.3753  0.1609
 2612TIP3    H129251   2.223   2.521   2.776  0.4731  2.2483  0.8243
 2612TIP3    H229252   2.074   2.523   2.801  0.1254 -0.8883 -0.5143
 2613TIP3   OH229253   0.206   2.745   1.537  0.1697 -0.4966 -0.1166
 2613TIP3    H129254   0.160   2.815   1.490 -0.4381 -1.5922 -1.1904
 2613TIP3    H229255   0.192   2.667   1.484 -0.6468 -1.8229  1.9427
 2614TIP3   OH229256   6.376   6.505   1.261  0.4738  0.0888 -0.6223
 2614TIP3    H129257   6.351   6.414   1.277  1.3892  0.0764  0.9663
 2614TIP3    H229258   6.324   6.531   1.185 -0.2802 -1.5522 -0.7215
 2615TIP3   OH229259   2.358   6.620  15.401  0.1650  0.6431 -0.3742
 2615TIP3    H129260   2.326   6.710  15.391 -1.1404  0.4055  1.2332
 2615TIP3    H229261   2.315   6.572  15.331  0.0191  1.0709 -0.5840
 2616TIP3   OH229262   2.387   3.342   5.109  0.2227  0.1173  0.4428
 2616TIP3    H129263   2.300   3.337   5.070  0.8072 -0.0404 -0.8745
 2616TIP3    H229264   2.419   3.251   5.107  0.9953  0.3961 -0.4573
 2617TIP3   OH229265   2.063   1.547  16.124 -0.5996 -0.6053  0.3182
 2617TIP3    H129266   2.072   1.452  16.132  1.2363 -0.5480 -0.4780
 2617TIP3    H229267   2.150   1.581  16.149 -1.1730  0.8529  0.4207
 2618TIP3   OH229268   2.812   3.543   4.867 -0.5149 -0.2415 -0.1429
 2618TIP3    H129269   2.751   3.613   4.891 -1.5405 -0.1053 -2.7981
 2618TIP3    H229270   2.758   3.464   4.868 -0.1954 -0.4634 -0.4177
 2619TIP3   OH229271   6.284   0.814   0.732  0.2873 -0.4220 -0.6406
 2619TIP3    H129272   6.262   0.882   0.795  3.3392 -0.6862  0.8549
 2619TIP3    H229273   6.215   0.748   0.744 -0.8490  0.8672  0.2382
 2620TIP3   OH229274   4.569   3.298  16.251  0.4129 -0.2150 -0.0509
 2620TIP3    H129275   4.535   3.223  16.298 -0.2482 -0.0791 -0.2959
 2620TIP3    H229276   4.519   3.372  16.284  0.6080  0.0190 -0.2707
 2621TIP3   OH229277   3.144   6.380  15.165  0.4236 -0.2865 -0.3077
 2621TIP3    H129278   3.089   6.341  15.232  0.4586 -1.4726 -0.9468
 2621TIP3    H229279   3.116   6.472  15.161  0.0253 -0.3374  0.8971
 2622TIP3   OH229280   4.827   1.689   1.254  0.2393  0.0548  0.4763
 2622TIP3    H129281   4.744   1.677   1.302  1.5451 -1.0978  2.6067
 2622TIP3    H229282   4.837   1.609   1.204 -1.3568  1.4452 -2.3549
 2623TIP3   OH229283   1.796   3.563  11.041  0.2247 -0.2038 -0.1534
 2623TIP3    H129284   1.775   3.624  10.970 -0.0974  0.3004  0.3743
 2623TIP3    H229285   1.787   3.615  11.121 -0.2590 -0.9934  0.3131
 2624TIP3   OH229286   1.230   0.082   6.257 -0.0688 -0.4920 -0.1140
 2624TIP3    H129287   1.284   0.160   6.246  0.5230 -1.2784 -4.8615
 2624TIP3    H229288   1.142   0.111   6.236 -0.7733 -0.2994  2.6708
 2625TIP3   OH229289   2.135   3.630   1.111 -0.0039 -0.0121 -0.3465
 2625TIP3    H129290   2.081   3.608   1.187 -0.1361 -0.7911 -0.6539
 2625TIP3    H229291   2.151   3.724   1.119  1.6093 -0.3899  1.7006
 2626TIP3   OH229292   5.357   5.914  15.260 -0.0723  0.0508 -0.0901
 2626TIP3    H129293   5.421   5.927  15.330 -1.3038  1.5684  0.8457
 2626TIP3    H229294   5.309   5.835  15.285  1.0846 -0.8081 -0.5396
 2627TIP3   OH229295   2.330   3.643   0.476  0.0221  0.2087  0.5014
 2627TIP3    H129296   2.415   3.682   0.498  0.5446 -1.7198  2.2563
 2627TIP3    H229297   2.292   3.618   0.561 -0.8578 -1.7793 -0.4038
 2628TIP3   OH229298   5.851   1.071   4.416  0.1925  0.1663  0.2978
 2628TIP3    H129299   5.909   1.141   4.447 -0.5378  0.5436  0.8497
 2628TIP3    H229300   5.772   1.080   4.470 -0.7171  0.2076 -1.0108
 2629TIP3   OH229301   5.877   0.663  13.099 -0.8804  0.5468 -0.1964
 2629TIP3    H129302   5.789   0.696  13.117 -0.1875  2.2177  0.2651
 2629TIP3    H229303   5.897   0.695  13.011 -0.9918 -0.4865 -0.6255
 2630TIP3   OH229304   3.270   4.139   0.080 -0.1502 -0.5220 -0.1440
 2630TIP3    H129305   3.201   4.203   0.063 -0.2940 -0.5019  0.4973
 2630TIP3    H229306   3.303   4.161   0.167 -0.0584 -1.1846 -0.0048
 2631TIP3   OH229307   5.572   5.979   0.308  0.3792 -0.1205  0.3131
 2631TIP3    H129308   5.490   5.935   0.329  0.0279  0.3087 -0.1208
 2631TIP3    H229309   5.609   6.002   0.393 -0.4527  0.5707  0.5047
 2632TIP3   OH229310   1.853   1.710   4.662  0.1021  0.0924 -0.0616
 2632TIP3    H129311   1.820   1.624   4.635  0.9712 -1.1990  2.6438
 2632TIP3    H229312   1.786   1.744   4.721  1.0635 -0.1107  1.1915
 2633TIP3   OH229313   3.058   2.167  14.824 -0.3592  1.2707  0.3286
 2633TIP3    H129314   3.105   2.241  14.786 -0.8735  0.6056 -1.6857
 2633TIP3    H229315   2.967   2.179  14.797 -0.3998 -0.2483 -0.3290
 2634TIP3   OH229316   3.359   5.390  15.488  0.1600 -0.4178 -0.4755
 2634TIP3    H129317   3.370   5.402  15.582 -0.1257 -1.2615 -0.3295
 2634TIP3    H229318   3.423   5.451  15.449 -1.5837  1.9873  0.1761
 2635TIP3   OH229319   1.384   5.531   4.759  0.0511 -0.2947 -0.1745
 2635TIP3    H129320   1.340   5.614   4.741  0.7174  0.0154 -0.4342
 2635TIP3    H229321   1.319   5.478   4.805 -0.4482  0.2955 -0.1882
 2636TIP3   OH229322   1.603   5.246  16.003 -0.1079  0.2820  0.8126
 2636TIP3    H129323   1.667   5.314  15.981  0.1743  0.2390  1.4758
 2636TIP3    H229324   1.630   5.170  15.953 -0.7102  0.7898 -0.3188
 2637TIP3   OH229325   0.869   3.792   2.587  0.3291 -0.2094 -0.0364
 2637TIP3    H129326   0.830   3.704   2.590 -0.4815  0.1276 -0.5182
 2637TIP3    H229327   0.962   3.777   2.604 -0.0203 -1.0103  1.3172
 2638TIP3   OH229328   2.121   0.095   2.356  0.0983 -0.5215 -0.2843
 2638TIP3    H129329   2.105   0.032   2.426  0.5978 -0.1327  0.1953
 2638TIP3    H229330   2.066   0.066   2.284  0.2552 -1.4521 -0.0388
 2639TIP3   OH229331   5.221   2.929   4.176  0.2468  0.3541  0.0936
 2639TIP3    H129332   5.196   2.939   4.268 -0.5634 -0.0920 -0.0690
 2639TIP3    H229333   5.317   2.933   4.177  0.3350 -1.1370  1.1689
 2640TIP3   OH229334   2.987   5.336   4.116  0.4073  0.9201  0.0476
 2640TIP3    H129335   3.016   5.252   4.149  0.7984  0.1585 -2.0555
 2640TIP3    H229336   3.066   5.392   4.119  0.7766  0.4590 -0.7747
 2641TIP3   OH229337   2.130   6.261   4.555 -0.1442  0.0579  0.3594
 2641TIP3    H129338   2.112   6.344   4.599 -0.7547  0.3776 -0.4614
 2641TIP3    H229339   2.050   6.210   4.568 -1.4063  1.0897 -2.4172
 2642TIP3   OH229340   0.115   5.859  12.321 -0.0669 -0.0679 -0.8227
 2642TIP3    H129341   0.086   5.920  12.388  1.1127 -1.0352  0.6391
 2642TIP3    H229342   0.089   5.773  12.353 -1.2594 -0.4248 -2.5951
 2643TIP3   OH229343   3.397   2.149   4.428 -0.1147  0.1905 -0.0344
 2643TIP3    H129344   3.322   2.154   4.488 -1.3754 -0.7450 -1.4390
 2643TIP3    H229345   3.381   2.217   4.363  0.8090  0.6587  0.2150
 2644TIP3   OH229346   3.134   4.898   5.377  0.2980  0.3785 -0.1606
 2644TIP3    H129347   3.145   4.857   5.291 -1.0263 -1.7475  0.6021
 2644TIP3    H229348   3.213   4.872   5.426  0.4853  0.5831 -0.3515
 2645TIP3   OH229349   0.867   3.041   5.719 -0.3700 -0.3879 -0.4009
 2645TIP3    H129350   0.859   3.092   5.638  1.2064  0.4406 -0.0758
 2645TIP3    H229351   0.821   3.092   5.785 -0.5062 -0.3942 -0.4908
 2646TIP3   OH229352   0.320   2.954   4.319 -0.1623 -0.2206 -0.2397
 2646TIP3    H129353   0.248   2.931   4.379 -0.3356  0.2717 -0.2601
 2646TIP3    H229354   0.312   2.889   4.248 -1.4138  0.6196 -0.9145
 2647TIP3   OH229355   3.726   4.079   2.637  0.0259 -0.5560  0.5740
 2647TIP3    H129356   3.756   4.119   2.719  3.1063 -0.3892 -0.5412
 2647TIP3    H229357   3.658   4.017   2.665  0.4927 -0.0127  3.1630
 2648TIP3   OH229358   6.110   5.391  14.825 -0.0614 -0.3893  0.0006
 2648TIP3    H129359   6.095   5.366  14.916 -0.5283  0.8472  0.2698
 2648TIP3    H229360   6.024   5.417  14.792 -0.2557 -2.5191 -1.3549
 2649TIP3   OH229361   4.552   0.459  13.935  0.1914  0.5925  0.5092
 2649TIP3    H129362   4.547   0.546  13.897 -2.8084  1.5412  2.6995
 2649TIP3    H229363   4.478   0.412  13.899  0.8621 -0.5520  0.5608
 2650TIP3   OH229364   0.189   0.010   0.658  0.9072  0.0704 -0.1867
 2650TIP3    H129365   0.094   0.014   0.649  0.9880  0.1664 -1.0987
 2650TIP3    H229366   0.204  -0.060   0.721  0.2724 -0.9680 -1.1568
 2651TIP3   OH229367   3.147   2.730   3.543  0.0187 -0.0481  0.1480
 2651TIP3    H129368   3.195   2.796   3.592  0.9061 -0.4556 -0.1605
 2651TIP3    H229369   3.149   2.760   3.452  3.2162 -2.0199 -0.5696
 2652TIP3   OH229370   2.347   2.654  15.433  0.6008 -0.2421  0.1606
 2652TIP3    H129371   2.351   2.559  15.445  2.8166 -0.0855  1.1507
 2652TIP3    H229372   2.343   2.666  15.338 -0.3827 -1.3098  0.0433
 2653TIP3   OH229373   4.575   1.356   3.822 -0.1493 -0.2105  0.2679
 2653TIP3    H129374   4.520   1.434   3.827 -0.1892 -0.1790 -0.5378
 2653TIP3    H229375   4.518   1.288   3.787 -0.7035 -1.1873  2.8488
 2654TIP3   OH229376   5.695   1.279  16.779 -0.2520  0.2026 -0.2076
 2654TIP3    H129377   5.644   1.316  16.850 -0.1417  0.6786 -0.3721
 2654TIP3    H229378   5.786   1.296  16.804 -0.1149 -1.5636  0.5918
 2655TIP3   OH229379   2.892   6.532   1.647  0.7628  0.2537  0.5142
 2655TIP3    H129380   2.832   6.458   1.643 -1.8575  2.2265 -3.2592
 2655TIP3    H229381   2.966   6.506   1.592  0.0713  0.1946 -0.4167
 2656TIP3   OH229382   2.852   2.723  12.078  0.2096 -0.5558 -0.9897
 2656TIP3    H129383   2.900   2.651  12.039 -0.1308  0.2891 -3.0886
 2656TIP3    H229384   2.875   2.800  12.025 -0.7270  0.5563  0.1293
 2657TIP3   OH229385   4.160   0.544  12.383 -0.1563  0.2200 -0.2103
 2657TIP3    H129386   4.240   0.590  12.355 -0.9471  0.4685 -2.2682
 2657TIP3    H229387   4.188   0.453  12.393  0.3787  0.2721 -1.0681
 2658TIP3   OH229388   1.648   0.485   3.590  0.2809 -0.0477  0.1451
 2658TIP3    H129389   1.659   0.562   3.534  0.4534  0.8741  1.4056
 2658TIP3    H229390   1.735   0.443   3.591 -0.0187 -0.7509 -1.2006
 2659TIP3   OH229391   1.427   1.679  15.725 -0.4097 -0.5020  0.1378
 2659TIP3    H129392   1.362   1.610  15.739  0.0241 -0.6653  1.4792
 2659TIP3    H229393   1.509   1.641  15.757 -0.0736  0.4667  0.4515
 2660TIP3   OH229394   6.055   3.052  15.399 -0.0349 -0.2382 -0.6598
 2660TIP3    H129395   5.986   3.119  15.401 -0.8311 -0.9998  1.9368
 2660TIP3    H229396   6.136   3.101  15.389 -0.6891  1.0459  0.0180
 2661TIP3   OH229397   2.632   2.540  16.688 -0.0606 -0.1970 -0.0671
 2661TIP3    H129398   2.543   2.507  16.703  0.7638 -1.7107  1.7927
 2661TIP3    H229399   2.623   2.635  16.691 -1.3217 -0.3395  2.1064
 2662TIP3   OH229400   3.435   2.927  13.857 -0.5356  0.7547  0.0263
 2662TIP3    H129401   3.513   2.874  13.870 -0.8659  0.1355 -0.4469
 2662TIP3    H229402   3.434   2.987  13.932 -0.0848  0.1822  0.5046
 2663TIP3   OH229403   3.718   2.170   4.187  0.1389  0.5827  0.2426
 2663TIP3    H129404   3.668   2.132   4.259 -1.9067  1.7751 -0.4731
 2663TIP3    H229405   3.748   2.254   4.220  0.0911  0.6698  0.0674
 2664TIP3   OH229406   4.426   1.364   1.793 -0.2506 -0.2360 -0.0141
 2664TIP3    H129407   4.347   1.327   1.831 -1.7257  1.6988 -1.0292
 2664TIP3    H229408   4.448   1.305   1.721 -1.3254 -0.2933 -0.3086
 2665TIP3   OH229409   3.313   0.241  13.369  0.3929 -0.1048 -0.6054
 2665TIP3    H129410   3.274   0.327  13.387  0.2996 -0.3022  0.1460
 2665TIP3    H229411   3.238   0.182  13.359  0.4479 -0.0566 -1.3998
 2666TIP3   OH229412   1.585   1.503  13.637 -0.2757 -0.2765 -0.2885
 2666TIP3    H129413   1.534   1.423  13.648 -0.4191 -0.3190 -1.1670
 2666TIP3    H229414   1.640   1.485  13.560  1.3087 -0.3619  0.8171
 2667TIP3   OH229415   0.190   5.713  16.844  0.7716 -0.3951 -0.5595
 2667TIP3    H129416   0.161   5.792  16.799  1.1107 -0.1151 -0.2937
 2667TIP3    H229417   0.284   5.727  16.859  0.6366 -0.3974  0.3880
 2668TIP3   OH229418   5.254   1.353  13.034 -0.5944  0.2402  0.0998
 2668TIP3    H129419   5.330   1.383  13.084 -0.3736  1.5859 -1.0054
 2668TIP3    H229420   5.180   1.397  13.075 -0.5334  0.5504 -0.1233
 2669TIP3   OH229421   4.222   5.704  10.912  0.3471 -0.2811 -0.2065
 2669TIP3    H129422   4.142   5.749  10.885  1.0710  1.2355  0.0151
 2669TIP3    H229423   4.238   5.640  10.843  0.2072  1.0383 -1.5206
 2670TIP3   OH229424   2.555   1.651  15.265 -0.1131 -0.3143 -0.6624
 2670TIP3    H129425   2.508   1.584  15.214  0.3007 -1.6206  0.5988
 2670TIP3    H229426   2.647   1.626  15.256 -0.0078 -0.3054  0.3497
 2671TIP3   OH229427   0.468   1.736   5.591  0.6078 -0.3502 -0.2394
 2671TIP3    H129428   0.445   1.817   5.544  0.5871 -0.8881 -1.1698
 2671TIP3    H229429   0.559   1.720   5.567  1.4326  0.7226  1.9177
 2672TIP3   OH229430   6.250   5.738  14.629  0.0669 -0.0370  0.2485
 2672TIP3    H129431   6.228   5.827  14.599  1.9896 -0.3970 -2.6088
 2672TIP3    H229432   6.193   5.681  14.577  0.6923 -0.5624  0.1352
 2673TIP3   OH229433   3.914   0.377   3.498  0.2088  0.2794  0.4640
 2673TIP3    H129434   3.852   0.450   3.493  0.2267  0.3126  0.7203
 2673TIP3    H229435   3.985   0.402   3.439 -0.2465  0.0206 -0.2004
 2674TIP3   OH229436   3.474   1.144  15.561  0.7137  0.3337  0.0146
 2674TIP3    H129437   3.560   1.183  15.547  1.1560  0.1812  2.0888
 2674TIP3    H229438   3.486   1.083  15.633 -1.0569  0.0028  0.0824
 2675TIP3   OH229439   0.912   3.788   1.494  0.0986  0.3358 -0.0273
 2675TIP3    H129440   0.857   3.809   1.569  0.9089  0.0059  0.6750
 2675TIP3    H229441   0.850   3.773   1.422 -0.6684  1.0226  0.4709
 2676TIP3   OH229442   2.737   3.752  13.341 -0.0798  0.2037 -0.0604
 2676TIP3    H129443   2.786   3.762  13.259 -1.8631  0.8675 -1.1235
 2676TIP3    H229444   2.719   3.658  13.346  0.0486  0.1557 -0.4276
 2677TIP3   OH229445   0.107   2.382   2.528 -0.4394  0.2517  0.0652
 2677TIP3    H129446   0.093   2.367   2.434  0.1050 -0.3118  0.0699
 2677TIP3    H229447   0.147   2.469   2.531  0.1446  0.0063 -0.2868
 2678TIP3   OH229448   3.349   5.935  11.724 -0.1623  0.0512 -0.1646
 2678TIP3    H129449   3.303   6.002  11.675  0.7184 -0.8284 -2.2843
 2678TIP3    H229450   3.364   5.864  11.661  1.3823 -0.9664  1.2550
 2679TIP3   OH229451   2.051   2.962   0.023  0.2494  0.5458  0.6016
 2679TIP3    H129452   2.074   2.931   0.111 -0.0304  2.2611  1.3153
 2679TIP3    H229453   2.123   3.018  -0.003 -0.8778  2.1868  0.8860
 2680TIP3   OH229454   5.044   2.099   6.770  0.1416 -0.4446 -0.0469
 2680TIP3    H129455   5.027   2.010   6.738  0.8354 -0.3977 -0.5866
 2680TIP3    H229456   5.059   2.088   6.864 -0.7384 -0.7577  0.0636
 2681TIP3   OH229457   4.285   1.312  15.504  0.0590  0.5276  0.0986
 2681TIP3    H129458   4.305   1.239  15.563 -0.0289  0.9436  0.6598
 2681TIP3    H229459   4.192   1.329  15.518  0.2230  1.1692  0.4684
 2682TIP3   OH229460   1.763   5.263  13.396 -0.0526  0.2539 -0.3379
 2682TIP3    H129461   1.678   5.219  13.408  0.5949 -0.5744  1.7253
 2682TIP3    H229462   1.752   5.348  13.439 -0.5275  1.1431 -2.1417
 2683TIP3   OH229463   3.410   2.212  15.751 -0.0739  0.5100 -0.7721
 2683TIP3    H129464   3.354   2.150  15.798  2.4620 -1.7889 -0.4993
 2683TIP3    H229465   3.397   2.295  15.796 -2.8610  0.0151 -0.4846
 2684TIP3   OH229466   5.080   6.039   5.497  0.0026 -0.4619 -0.7647
 2684TIP3    H129467   4.986   6.044   5.478 -0.3510 -1.0914  0.7224
 2684TIP3    H229468   5.104   6.128   5.522 -0.6418 -0.6803  0.7184
 2685TIP3   OH229469   6.247   1.187   1.345 -0.0485 -0.0735  0.3772
 2685TIP3    H129470   6.253   1.238   1.264  0.4233 -0.0371  0.4291
 2685TIP3    H229471   6.215   1.249   1.410 -0.6372 -0.1568  0.1776
 2686TIP3   OH229472   3.286   5.826   0.306  0.6673 -0.4885 -0.3923
 2686TIP3    H129473   3.206   5.878   0.303  1.1393  0.2493 -0.4327
 2686TIP3    H229474   3.255   5.735   0.310 -0.1648 -0.2882 -1.5898
 2687TIP3   OH229475   2.781   0.236  15.391 -0.0482  0.3250 -0.6858
 2687TIP3    H129476   2.756   0.145  15.404 -3.1330  0.9232 -1.4800
 2687TIP3    H229477   2.734   0.284  15.460 -0.8664  1.5686 -2.0527
 2688TIP3   OH229478   5.051   6.609   2.457  0.1122  0.4211  0.5839
 2688TIP3    H129479   4.998   6.688   2.468  0.8278  0.7109  2.3126
 2688TIP3    H229480   5.140   6.640   2.446  0.2607 -0.1272  0.1684
 2689TIP3   OH229481   6.641   3.560   3.152  0.2370 -1.0851 -0.4133
 2689TIP3    H129482   6.712   3.613   3.115 -1.5087  2.5349  0.9389
 2689TIP3    H229483   6.676   3.527   3.234  0.6157  0.1049 -0.0769
 2690TIP3   OH229484   4.723   2.998   4.712 -0.2883  0.0107  0.1152
 2690TIP3    H129485   4.740   2.963   4.625  1.2064  0.8963  0.0129
 2690TIP3    H229486   4.717   3.093   4.700 -0.1710  0.1408  0.9571
 2691TIP3   OH229487   5.223   5.274  16.779 -0.2021  0.1896  0.4416
 2691TIP3    H129488   5.285   5.325  16.727  0.7781 -0.9123  0.4894
 2691TIP3    H229489   5.217   5.319  16.863 -0.1250  0.7711  0.1367
 2692TIP3   OH229490   4.910   2.839  10.715 -0.5689  0.3196  0.1055
 2692TIP3    H129491   4.859   2.838  10.796  0.1580  1.6883  0.6297
 2692TIP3    H229492   4.856   2.793  10.651 -1.3340 -0.4446  1.2685
 2693TIP3   OH229493   3.167   2.024   3.841  0.8196  0.0946 -0.7857
 2693TIP3    H129494   3.156   1.961   3.770  1.1842  0.7483 -1.4276
 2693TIP3    H229495   3.260   2.020   3.864  0.3716 -1.5818  1.0589
 2694TIP3   OH229496   2.924   2.133   4.631 -0.4277  0.4384  0.1236
 2694TIP3    H129497   2.888   2.090   4.553 -0.4257 -1.3770  1.0711
 2694TIP3    H229498   2.935   2.062   4.695 -0.3706  1.8571  1.7670
 2695TIP3   OH229499   5.775   0.869   2.804 -0.0189  0.1677  0.3592
 2695TIP3    H129500   5.782   0.877   2.709 -0.8076 -1.1430  0.1675
 2695TIP3    H229501   5.843   0.805   2.827 -0.6426 -0.4567  0.5035
 2696TIP3   OH229502   0.722   2.899  11.237  0.4924 -0.6213  0.3459
 2696TIP3    H129503   0.726   2.841  11.161  0.2500 -2.7649  1.8928
 2696TIP3    H229504   0.813   2.918  11.258  0.5699  1.0713 -1.1607
 2697TIP3   OH229505   5.896   3.310  16.131  0.6320 -0.2256 -0.4140
 2697TIP3    H129506   5.880   3.308  16.037  0.6800 -1.7918 -0.4105
 2697TIP3    H229507   5.810   3.323  16.171  0.5347 -0.1353 -0.6565
 2698TIP3   OH229508   0.424   0.847   2.166  0.1327  0.4595 -0.2644
 2698TIP3    H129509   0.398   0.767   2.211  0.9674  0.5589  0.4139
 2698TIP3    H229510   0.341   0.889   2.142 -0.3156 -0.7721 -0.9510
 2699TIP3   OH229511   0.128   6.310  13.263  0.0626 -0.2090  0.5707
 2699TIP3    H129512   0.125   6.404  13.277 -0.0443 -0.2122  0.5752
 2699TIP3    H229513   0.054   6.292  13.205 -1.0616 -0.5283  2.0369
 2700TIP3   OH229514   5.019   3.641   2.342 -0.3402  0.1956 -0.3435
 2700TIP3    H129515   4.961   3.565   2.351  0.4779 -0.2536  2.2155
 2700TIP3    H229516   5.053   3.635   2.253 -0.9126 -1.9809 -0.4794
 2701TIP3   OH229517   0.363   3.893  16.903 -0.6416  0.4594  0.3611
 2701TIP3    H129518   0.302   3.848  16.844 -1.1959  1.0901  0.4448
 2701TIP3    H229519   0.328   3.878  16.990  1.0392 -1.8493  0.7635
 2702TIP3   OH229520   6.125   3.621  11.399  0.0195 -0.2809  0.4289
 2702TIP3    H129521   6.176   3.558  11.449  0.4041  0.1292  0.5535
 2702TIP3    H229522   6.167   3.705  11.415  1.2035 -0.3553 -1.8936
 2703TIP3   OH229523   5.693   6.075  13.456 -0.1104  0.1152 -0.4107
 2703TIP3    H129524   5.786   6.085  13.473 -0.4446 -2.0723  4.2167
 2703TIP3    H229525   5.652   6.151  13.497 -0.5243  0.7930 -1.9680
 2704TIP3   OH229526   5.352   2.613  12.850  0.2237  0.0361 -0.3193
 2704TIP3    H129527   5.308   2.572  12.924  1.0487  1.2317  0.8686
 2704TIP3    H229528   5.299   2.587  12.774  0.2757 -2.5497  0.4181
 2705TIP3   OH229529   5.470   1.344   6.732 -0.7960  0.1018  0.6769
 2705TIP3    H129530   5.544   1.283   6.740 -0.7502 -0.1226 -1.0901
 2705TIP3    H229531   5.422   1.333   6.814  0.6305 -0.4125  1.4827
 2706TIP3   OH229532   1.409   5.222   4.332  0.3474 -0.5938 -0.7990
 2706TIP3    H129533   1.436   5.152   4.273  2.7646 -1.1818  0.8655
 2706TIP3    H229534   1.462   5.297   4.306  0.7601 -0.5916  0.0133
 2707TIP3   OH229535   2.559   4.598   1.138  0.1959  0.3291 -0.5792
 2707TIP3    H129536   2.467   4.612   1.114 -0.0712 -1.3186 -0.5924
 2707TIP3    H229537   2.571   4.648   1.219 -1.6102 -1.8663  1.1822
 2708TIP3   OH229538   4.864   5.675   4.842  0.3950  0.6877  0.1656
 2708TIP3    H129539   4.768   5.669   4.841  0.3627  1.1613  0.2571
 2708TIP3    H229540   4.894   5.585   4.853 -0.0615  0.6494  1.2048
 2709TIP3   OH229541   3.212   2.716   3.869  0.0557 -0.9576  0.8153
 2709TIP3    H129542   3.225   2.680   3.957 -2.2040 -3.0051  0.4025
 2709TIP3    H229543   3.244   2.647   3.811  1.0078  0.1493 -0.0098
 2710TIP3   OH229544   2.119   6.321  15.424 -0.3363 -0.0638  0.4022
 2710TIP3    H129545   2.039   6.271  15.441 -0.2905 -0.1685  0.3098
 2710TIP3    H229546   2.130   6.317  15.329  0.2345 -0.7479  0.4906
 2711TIP3   OH229547   2.283   1.095   6.261  0.0355  0.2796 -0.5795
 2711TIP3    H129548   2.314   1.096   6.170 -1.2270  0.4419 -1.0277
 2711TIP3    H229549   2.287   1.186   6.290 -0.6761  0.4171 -0.8843
 2712TIP3   OH229550   6.279   5.847   2.758 -0.7850  0.4317 -0.6194
 2712TIP3    H129551   6.261   5.762   2.717  2.5381 -0.5234 -0.4637
 2712TIP3    H229552   6.351   5.883   2.706  1.1820  0.8095  2.1433
 2713TIP3   OH229553   5.143   2.625  11.979 -0.3381 -0.5286  0.0396
 2713TIP3    H129554   5.132   2.601  12.071 -0.9420  0.9911  0.3909
 2713TIP3    H229555   5.214   2.689  11.979 -0.9380  0.1572 -0.4259
 2714TIP3   OH229556   3.309   1.247  11.236 -0.4267  0.6841 -0.0125
 2714TIP3    H129557   3.219   1.278  11.230 -0.8864  0.2664  3.0035
 2714TIP3    H229558   3.301   1.153  11.250  0.7580 -0.1898 -4.1112
 2715TIP3   OH229559   1.980   2.744  13.070  0.1110  0.1221 -0.1257
 2715TIP3    H129560   1.894   2.738  13.028  1.0779 -0.6083 -2.1736
 2715TIP3    H229561   1.961   2.746  13.163 -2.1221 -0.1793 -0.5076
 2716TIP3   OH229562   3.525   0.525  12.730  0.1685  0.0338  0.5860
 2716TIP3    H129563   3.567   0.611  12.733  1.8167 -0.6889 -0.4504
 2716TIP3    H229564   3.454   0.536  12.667 -0.1272  0.8281  1.0435
 2717TIP3   OH229565   0.961   2.775   0.233 -0.5742 -0.4556 -0.2539
 2717TIP3    H129566   0.897   2.838   0.268 -0.2259 -0.3183  0.1513
 2717TIP3    H229567   1.030   2.830   0.194  0.4482 -0.5158  1.3566
 2718TIP3   OH229568   6.601   4.470  13.646 -0.0228  0.1161  0.0906
 2718TIP3    H129569   6.565   4.389  13.682  1.0998 -0.3762  0.1502
 2718TIP3    H229570   6.627   4.521  13.722  0.3661  0.0112  0.0306
 2719TIP3   OH229571   4.395   4.443  11.805  0.3038  0.6175  0.8243
 2719TIP3    H129572   4.326   4.509  11.802 -1.7235 -1.4094 -2.6731
 2719TIP3    H229573   4.476   4.493  11.795 -1.1171  2.6746 -1.5091
 2720TIP3   OH229574   6.455   2.539   4.786  0.1502  0.1870  0.7189
 2720TIP3    H129575   6.487   2.464   4.735 -0.1938  1.5597 -1.6477
 2720TIP3    H229576   6.395   2.500   4.849 -0.4808 -1.5029 -0.8186
 2721TIP3   OH229577   2.978   2.259   2.126  0.1836 -0.0615 -0.1771
 2721TIP3    H129578   2.983   2.230   2.218  0.0011 -1.6304 -0.6203
 2721TIP3    H229579   2.896   2.308   2.121  1.1781  1.8441  0.9262
 2722TIP3   OH229580   6.668   4.320   2.759 -0.0739 -0.1281  0.0472
 2722TIP3    H129581   6.735   4.344   2.824 -1.2834  1.6991  0.7100
 2722TIP3    H229582   6.676   4.387   2.691 -1.3515  0.2497  0.2474
 2723TIP3   OH229583   3.859   1.698  13.667  0.5420  0.5517  0.0371
 2723TIP3    H129584   3.893   1.739  13.747 -0.4936  0.3798  0.5905
 2723TIP3    H229585   3.771   1.735  13.657 -0.2186 -1.1031  0.2539
 2724TIP3   OH229586   6.482   5.327  16.708  0.0791  0.8194 -0.3785
 2724TIP3    H129587   6.548   5.395  16.719 -0.8878  1.6012  0.8529
 2724TIP3    H229588   6.405   5.361  16.752 -0.3703 -1.1775  0.4896
 2725TIP3   OH229589   3.439   1.204  13.865 -0.3174 -0.7580  0.0099
 2725TIP3    H129590   3.488   1.133  13.906 -1.3017 -0.9831  0.8471
 2725TIP3    H229591   3.473   1.209  13.776 -0.6404 -2.6682 -0.2619
 2726TIP3   OH229592   6.237   1.246  12.959 -0.1132  0.1656 -0.1213
 2726TIP3    H129593   6.292   1.190  12.904 -0.0962  0.5490 -0.5046
 2726TIP3    H229594   6.293   1.321  12.980 -0.5780  0.7169 -0.7827
 2727TIP3   OH229595   2.132   5.609   2.040  0.4011 -0.4630 -0.1074
 2727TIP3    H129596   2.079   5.539   2.081  0.0253 -0.9470 -1.3792
 2727TIP3    H229597   2.216   5.604   2.086 -0.0181 -0.9636  0.6395
 2728TIP3   OH229598   5.334   5.165   5.718  0.3462 -0.6456 -0.1831
 2728TIP3    H129599   5.331   5.176   5.814 -0.2044 -0.9016 -0.1663
 2728TIP3    H229600   5.423   5.188   5.694  0.8545 -1.7786  0.5493
 2729TIP3   OH229601   3.581   0.864  14.312 -0.3095  0.1782 -0.4249
 2729TIP3    H129602   3.620   0.948  14.287 -0.2544  0.8672  1.7704
 2729TIP3    H229603   3.622   0.800  14.254  1.5279  1.3486 -0.5008
 2730TIP3   OH229604   5.154   3.976   5.210 -0.6904 -0.2837 -0.0210
 2730TIP3    H129605   5.190   3.942   5.292  1.4598 -0.9783 -1.1568
 2730TIP3    H229606   5.144   4.070   5.225 -0.1439 -0.3690  0.9727
 2731TIP3   OH229607   4.181   4.034   4.022  0.1570 -0.5370  0.0701
 2731TIP3    H129608   4.261   4.065   4.064 -0.2555 -0.6219  0.9420
 2731TIP3    H229609   4.131   4.113   4.002  0.9257 -0.4071 -1.4887
 2732TIP3   OH229610   1.252   0.318   6.600 -0.1209  0.0846 -0.4568
 2732TIP3    H129611   1.348   0.309   6.597 -0.1366 -0.2492 -0.1420
 2732TIP3    H229612   1.221   0.228   6.615 -0.4199  0.3601  0.6657
 2733TIP3   OH229613   4.079   2.505  13.252  0.3153 -0.1767 -0.3064
 2733TIP3    H129614   4.112   2.586  13.212 -0.3668 -0.2268 -0.9869
 2733TIP3    H229615   4.054   2.450  13.178 -2.0880  0.1871  0.1558
 2734TIP3   OH229616   0.417   4.128   3.123 -0.3979 -0.1145 -0.1410
 2734TIP3    H129617   0.402   4.222   3.116 -1.3276 -0.3094 -0.9186
 2734TIP3    H229618   0.455   4.102   3.039  2.7846  0.0314  1.1030
 2735TIP3   OH229619   5.443   2.710  13.162  0.0080  0.0387  0.2356
 2735TIP3    H129620   5.390   2.655  13.105  0.7689 -0.6488  0.1707
 2735TIP3    H229621   5.493   2.648  13.215 -0.5000  0.6634  1.4829
 2736TIP3   OH229622   6.535   4.939   3.715  0.3507  0.5985 -0.0569
 2736TIP3    H129623   6.536   4.897   3.801 -1.2396 -0.2106 -0.3829
 2736TIP3    H229624   6.489   4.876   3.659  0.7347  1.4177 -1.3316
 2737TIP3   OH229625   1.482   1.186   4.350  0.1201 -0.1472  0.5124
 2737TIP3    H129626   1.446   1.106   4.312  0.5882 -0.1720  0.1278
 2737TIP3    H229627   1.515   1.236   4.276 -0.2042  0.4238  0.7457
 2738TIP3   OH229628   2.475   4.149  16.561 -0.6649 -0.6281 -0.0097
 2738TIP3    H129629   2.537   4.198  16.614  0.7143 -1.6402 -0.6141
 2738TIP3    H229630   2.461   4.068  16.609 -1.0631 -0.6571 -0.1700
 2739TIP3   OH229631   5.434   5.507  12.069  0.0137  0.0403  0.5005
 2739TIP3    H129632   5.428   5.600  12.048 -0.4235 -0.8200 -4.1067
 2739TIP3    H229633   5.344   5.480  12.086  0.2314  0.5194  2.6519
 2740TIP3   OH229634   1.120   3.704  17.232 -0.0437 -0.1169  0.3991
 2740TIP3    H129635   1.160   3.699  17.319 -0.2698  0.8332  0.5718
 2740TIP3    H229636   1.059   3.778  17.238 -0.7769 -0.6497 -0.2863
 2741TIP3   OH229637   3.531   2.109   5.831  0.0451  0.3074  0.3188
 2741TIP3    H129638   3.469   2.081   5.898 -0.6422  1.2789  0.1094
 2741TIP3    H229639   3.500   2.195   5.804  1.4275  0.7777  0.1343
 2742TIP3   OH229640   1.719   0.258  13.174 -0.6470  0.2497 -0.2755
 2742TIP3    H129641   1.666   0.178  13.174  0.4169 -0.4781 -0.4376
 2742TIP3    H229642   1.794   0.237  13.229 -0.5566  1.2944  0.0197
 2743TIP3   OH229643   3.668   4.532  14.322 -0.0457 -0.0775 -0.1509
 2743TIP3    H129644   3.758   4.536  14.356  0.3113  0.3397 -1.1125
 2743TIP3    H229645   3.663   4.604  14.259 -0.6303 -0.9267 -1.0963
 2744TIP3   OH229646   0.920   3.355   2.780  0.0355  0.2953 -0.6759
 2744TIP3    H129647   0.863   3.415   2.731 -0.3473  0.4415 -0.0688
 2744TIP3    H229648   0.963   3.411   2.845  1.1993  0.2605 -1.3889
 2745TIP3   OH229649   1.822   0.177   3.393  0.2806 -0.1320 -0.7610
 2745TIP3    H129650   1.840   0.188   3.487  0.6514 -0.9581 -0.7270
 2745TIP3    H229651   1.731   0.146   3.390 -0.3397  1.5552 -0.7916
 2746TIP3   OH229652   4.163   0.581  16.231  0.4799  0.2334 -0.4518
 2746TIP3    H129653   4.170   0.512  16.166 -1.2218  0.3095 -0.7832
 2746TIP3    H229654   4.176   0.662  16.183  3.2542  0.1756  0.0736
 2747TIP3   OH229655   5.209   4.476  13.078 -0.2833 -0.2204 -0.6050
 2747TIP3    H129656   5.207   4.407  13.012  1.8966 -0.2650 -0.6694
 2747TIP3    H229657   5.292   4.464  13.124 -0.8936  0.9770  0.9148
 2748TIP3   OH229658   2.346   6.276  15.860  0.3763  0.3752 -0.3413
 2748TIP3    H129659   2.336   6.254  15.767  0.6538  1.8106 -0.7256
 2748TIP3    H229660   2.412   6.345  15.862 -1.4493  2.1789  0.6693
 2749TIP3   OH229661   5.838   6.735  10.789 -0.6637  0.5901 -0.1567
 2749TIP3    H129662   5.894   6.735  10.867 -1.2944  0.5685  0.3012
 2749TIP3    H229663   5.899   6.727  10.716 -0.1836 -2.1471  0.4312
 2750TIP3   OH229664   6.508   5.252   0.093  0.0017  0.5373 -0.4350
 2750TIP3    H129665   6.599   5.247   0.063 -0.1215  1.6197 -1.0417
 2750TIP3    H229666   6.512   5.305   0.173  0.0016 -0.0960 -0.0135
 2751TIP3   OH229667   2.483   3.908  11.942  0.2827 -0.4023  0.5225
 2751TIP3    H129668   2.421   3.856  11.994  0.9338 -0.6556  1.0714
 2751TIP3    H229669   2.446   3.909  11.854  0.2874 -1.8761  0.4697
 2752TIP3   OH229670   2.003   6.452   2.814 -0.2293 -0.1327  0.2052
 2752TIP3    H129671   1.908   6.461   2.823 -0.4112  0.2945 -1.7493
 2752TIP3    H229672   2.037   6.540   2.830 -0.3651  0.1535 -0.9715
 2753TIP3   OH229673   1.446   6.415   4.728 -0.1739  0.1931  0.2062
 2753TIP3    H129674   1.449   6.358   4.651  0.9463 -0.3535  0.6359
 2753TIP3    H229675   1.436   6.503   4.691 -0.1537 -0.1072 -0.5435
 2754TIP3   OH229676   4.950   5.189  11.280  0.4789  0.0481 -0.3226
 2754TIP3    H129677   4.936   5.164  11.189  0.3000 -1.4343  0.0877
 2754TIP3    H229678   4.930   5.283  11.282  3.9276  1.0162 -2.5211
 2755TIP3   OH229679   2.927   4.753   2.911  0.3215 -0.9001  0.0277
 2755TIP3    H129680   2.934   4.787   3.000  1.0415  0.5858 -0.5627
 2755TIP3    H229681   3.016   4.729   2.887  0.2299 -0.7222 -0.5004
 2756TIP3   OH229682   3.612   0.862   4.286 -0.0592 -0.4491  0.3212
 2756TIP3    H129683   3.641   0.823   4.203  1.6037 -0.0749  0.6787
 2756TIP3    H229684   3.522   0.831   4.298  0.8022 -3.3519  0.0709
 2757TIP3   OH229685   0.653   1.302  17.228  0.4280  0.3888  0.5479
 2757TIP3    H129686   0.738   1.320  17.268  0.4355 -0.3519  0.8915
 2757TIP3    H229687   0.621   1.224  17.274  0.8158 -1.0290 -1.4427
 2758TIP3   OH229688   6.081   2.010  11.652 -0.2230 -0.1586 -0.6476
 2758TIP3    H129689   6.014   1.952  11.689  0.2253 -0.4526 -0.2916
 2758TIP3    H229690   6.149   1.952  11.619  0.5813  0.1610  0.3760
 2759TIP3   OH229691   3.714   5.190   3.925 -0.0897  1.1582  0.7502
 2759TIP3    H129692   3.669   5.113   3.960 -0.0658  1.5678  1.7196
 2759TIP3    H229693   3.681   5.200   3.836  0.3423 -0.3101  0.4102
 2760TIP3   OH229694   5.551   2.328  11.825  0.5581 -0.1472  0.2102
 2760TIP3    H129695   5.630   2.377  11.802  1.0700 -0.2706  1.5856
 2760TIP3    H229696   5.583   2.241  11.848 -0.4696 -1.7370 -3.6016
 2761TIP3   OH229697   0.223   3.856  17.134 -0.1641 -0.3259 -0.2940
 2761TIP3    H129698   0.305   3.828  17.175  0.3111  0.9546 -0.3199
 2761TIP3    H229699   0.218   3.950  17.152 -0.7383 -0.0333 -1.7947
 2762TIP3   OH229700   6.111   1.971   2.685  0.4457  0.0241  0.2040
 2762TIP3    H129701   6.178   1.907   2.708  0.7774  0.3736  0.2266
 2762TIP3    H229702   6.033   1.920   2.670  0.8334 -0.4332 -0.2698
 2763TIP3   OH229703   3.592   1.590   2.797 -0.6139  0.1579  0.4266
 2763TIP3    H129704   3.552   1.613   2.713 -1.0154 -3.6790 -0.6441
 2763TIP3    H229705   3.518   1.568   2.854 -0.2636 -0.1379  0.7791
 2764TIP3   OH229706   3.759   1.345  16.069  0.3083 -0.2047  0.6596
 2764TIP3    H129707   3.751   1.254  16.042 -0.2305 -0.2121  0.8324
 2764TIP3    H229708   3.853   1.362  16.070  0.5009 -1.1952  2.0955
 2765TIP3   OH229709   2.760   3.352   1.285  0.2441 -0.0633  0.4767
 2765TIP3    H129710   2.791   3.270   1.246 -0.2667 -0.0867  0.1150
 2765TIP3    H229711   2.737   3.329   1.375  0.0832 -0.3175  0.3694
 2766TIP3   OH229712   1.179   1.654  13.591  0.5594  0.2836 -0.2216
 2766TIP3    H129713   1.128   1.723  13.634  1.2081  0.8351 -0.3270
 2766TIP3    H229714   1.256   1.642  13.646 -1.0523 -2.6952  1.6419
 2767TIP3   OH229715   4.518   0.795   2.971 -0.0703 -0.4321  0.2255
 2767TIP3    H129716   4.572   0.841   2.907  0.1635 -3.1132 -1.6808
 2767TIP3    H229717   4.460   0.863   3.007  0.6036  1.4148 -1.9523
 2768TIP3   OH229718   2.225   2.870   2.686 -0.3519 -0.2089 -0.1821
 2768TIP3    H129719   2.203   2.868   2.779  0.3494  0.6300  0.0213
 2768TIP3    H229720   2.192   2.787   2.651 -1.9933  0.1396  0.4825
 2769TIP3   OH229721   5.775   0.098  12.694 -0.1163  0.4582 -0.5209
 2769TIP3    H129722   5.701   0.039  12.685 -0.9441  1.2796  0.5876
 2769TIP3    H229723   5.761   0.142  12.778  1.7429  0.4747 -0.1629
 2770TIP3   OH229724   2.172   0.865  14.881 -0.0142 -0.2327 -0.2041
 2770TIP3    H129725   2.242   0.837  14.822  0.9239 -0.0049  0.7632
 2770TIP3    H229726   2.130   0.783  14.909 -0.1081 -0.3740 -0.7506
 2771TIP3   OH229727   2.586   4.430   5.003  0.2361 -0.1932 -0.4603
 2771TIP3    H129728   2.539   4.421   5.085  0.5142 -0.7759 -0.3563
 2771TIP3    H229729   2.630   4.346   4.991  1.7164  0.5233 -0.2644
 2772TIP3   OH229730   4.078   0.640  13.161  0.8561 -0.3025 -0.2164
 2772TIP3    H129731   4.107   0.719  13.206 -2.1294  1.0380 -0.3863
 2772TIP3    H229732   4.016   0.599  13.222 -1.2419  0.1341 -1.9095
 2773TIP3   OH229733   2.327   3.903  12.410  0.3257  0.3299 -0.2285
 2773TIP3    H129734   2.283   3.890  12.494 -2.4853 -0.3645 -1.6836
 2773TIP3    H229735   2.289   3.984  12.375 -0.1089 -0.4679 -1.6862
 2774TIP3   OH229736   5.764   2.119  11.556  0.1341 -0.5839 -0.2872
 2774TIP3    H129737   5.825   2.046  11.569 -0.6516 -0.9000  2.0445
 2774TIP3    H229738   5.765   2.134  11.461  3.0314 -1.2169 -0.4509
 2775TIP3   OH229739   1.872   5.914  12.354 -0.2252  1.0159 -0.1020
 2775TIP3    H129740   1.816   5.891  12.427 -0.5898 -0.7696 -0.8888
 2775TIP3    H229741   1.936   5.843  12.349 -0.9534  0.4136 -2.2187
 2776TIP3   OH229742   3.199   5.591  15.662  0.2226 -0.0807  0.5952
 2776TIP3    H129743   3.131   5.653  15.638  0.3431 -0.3515 -0.5519
 2776TIP3    H229744   3.280   5.630  15.630  0.0304 -1.8910 -2.5553
 2777TIP3   OH229745   4.905   1.313  16.154 -1.0314 -0.3047 -0.5442
 2777TIP3    H129746   4.909   1.268  16.069 -0.7745 -0.5689 -0.3959
 2777TIP3    H229747   4.864   1.249  16.212  1.1912 -1.1841  0.1797
 2778TIP3   OH229748   2.202   4.751  11.598 -0.4276  0.1890  0.1667
 2778TIP3    H129749   2.222   4.822  11.538 -0.2744  0.5041  0.5854
 2778TIP3    H229750   2.106   4.748  11.600 -0.4327  0.0108 -0.2825
 2779TIP3   OH229751   5.200   0.298   4.292 -0.2853 -0.2048  0.1171
 2779TIP3    H129752   5.199   0.285   4.387 -0.7079 -0.3234  0.0983
 2779TIP3    H229753   5.138   0.233   4.259  0.7411 -0.9830 -0.3424
 2780TIP3   OH229754   6.609   1.794  11.706 -0.3092  0.3760 -0.3799
 2780TIP3    H129755   6.686   1.846  11.729  0.4727  0.1820 -2.4018
 2780TIP3    H229756   6.635   1.703  11.724 -0.9332  0.4611  1.1391
 2781TIP3   OH229757   1.175   2.817  12.100 -0.2666  0.3088  0.3990
 2781TIP3    H129758   1.164   2.737  12.152 -0.7905  0.0030 -0.1635
 2781TIP3    H229759   1.135   2.796  12.016  0.3019  0.9029 -0.0266
 2782TIP3   OH229760   2.181   6.638   4.498 -0.1583  0.5314 -0.7754
 2782TIP3    H129761   2.193   6.585   4.576  0.5105  0.9518 -0.5933
 2782TIP3    H229762   2.231   6.718   4.514  2.0584 -0.3823 -2.6164
 2783TIP3   OH229763   3.854   2.029   4.682 -0.3785  0.2528  0.5147
 2783TIP3    H129764   3.771   2.066   4.652  0.0290  0.5432 -0.3002
 2783TIP3    H229765   3.875   1.961   4.617  2.0110  2.8970 -1.7625
 2784TIP3   OH229766   2.533   4.107   4.346  0.8191  0.0279  0.5009
 2784TIP3    H129767   2.476   4.107   4.270  0.3055  1.6718  0.8387
 2784TIP3    H229768   2.603   4.045   4.325 -1.0436 -1.9953  0.0580
 2785TIP3   OH229769   6.130   2.322  14.533 -0.3207  0.0791  0.1170
 2785TIP3    H129770   6.116   2.376  14.610 -1.1440 -1.1574  0.8666
 2785TIP3    H229771   6.137   2.384  14.461  0.1196  1.2378  1.1320
 2786TIP3   OH229772   1.865   2.021  11.873  0.2801  0.3394  0.3371
 2786TIP3    H129773   1.840   2.111  11.895 -1.2355  0.5663 -2.0054
 2786TIP3    H229774   1.782   1.972  11.877  0.5289 -0.2736 -1.3925
 2787TIP3   OH229775   0.859   6.035  14.138 -0.2144  0.0879 -0.2848
 2787TIP3    H129776   0.928   6.074  14.084 -1.7282  0.7509 -1.8568
 2787TIP3    H229777   0.863   5.941  14.121  1.1891 -0.0764  0.7776
 2788TIP3   OH229778   1.061   1.241   0.611 -0.1698  0.1478  0.0332
 2788TIP3    H129779   1.009   1.318   0.586 -1.4963 -0.6732  0.1567
 2788TIP3    H229780   0.997   1.180   0.649  0.7971 -1.1270 -0.3097
 2789TIP3   OH229781   4.318   4.092   1.876 -0.6063  0.1472  0.2498
 2789TIP3    H129782   4.319   4.011   1.825  1.1356 -0.3417  0.9877
 2789TIP3    H229783   4.409   4.123   1.875 -1.2764  2.2696 -0.2575
 2790TIP3   OH229784   3.263   1.774  17.352 -0.2274  0.2042  0.9612
 2790TIP3    H129785   3.181   1.725  17.352 -0.0468 -0.1182  0.1286
 2790TIP3    H229786   3.237   1.866  17.357 -0.6826  0.1500 -0.2377
 2791TIP3   OH229787   4.707   2.803   0.210 -0.4796  0.6293  0.0440
 2791TIP3    H129788   4.740   2.801   0.120 -0.1495 -2.4825  0.1022
 2791TIP3    H229789   4.631   2.860   0.207  0.1267  1.4230 -1.9613
 2792TIP3   OH229790   2.344   5.670  13.996 -0.1225 -0.1569 -0.0080
 2792TIP3    H129791   2.394   5.677  13.914 -3.7083  2.2154 -2.3410
 2792TIP3    H229792   2.331   5.576  14.008  1.0961 -0.6199 -1.8033
 2793TIP3   OH229793   4.724   2.410  13.523  0.2157  0.2134  0.2759
 2793TIP3    H129794   4.687   2.454  13.600 -1.4303  1.7117 -1.2652
 2793TIP3    H229795   4.737   2.480  13.460  3.4545 -0.6587 -0.2057
 2794TIP3   OH229796   5.449   4.425  11.479 -0.6612  0.2255 -0.3474
 2794TIP3    H129797   5.456   4.508  11.432  0.7615  0.6754  0.5917
 2794TIP3    H229798   5.537   4.410  11.515 -1.4060 -0.6209  1.2522
 2795TIP3   OH229799   2.106   5.205   4.769  0.4936 -0.0233  0.3841
 2795TIP3    H129800   2.073   5.165   4.850 -1.5063  0.4493 -0.1424
 2795TIP3    H229801   2.090   5.298   4.780 -0.7452 -0.0472 -0.9239
 2796TIP3   OH229802   5.402   3.175  17.263 -0.1465  0.3999 -0.0326
 2796TIP3    H129803   5.407   3.103  17.200 -1.8652 -0.4560  0.7456
 2796TIP3    H229804   5.490   3.181  17.299  0.5031 -0.0382 -1.4507
 2797TIP3   OH229805   0.000   5.219   2.388 -0.2772  0.2026 -0.2504
 2797TIP3    H129806   0.014   5.285   2.321 -0.6643  0.9480  0.3844
 2797TIP3    H229807  -0.063   5.259   2.448 -1.9099 -1.4230 -0.7961
 2798TIP3   OH229808   5.036   2.224  16.148 -0.3732  0.3712 -0.0889
 2798TIP3    H129809   5.009   2.167  16.220 -1.6523 -1.4626 -1.8883
 2798TIP3    H229810   5.131   2.232  16.158 -0.4544 -0.3147  1.4400
 2799TIP3   OH229811   2.447   0.526  13.477 -0.0762  0.5216 -0.2390
 2799TIP3    H129812   2.522   0.470  13.499  0.7805  1.9078  0.4770
 2799TIP3    H229813   2.377   0.494  13.534  0.4587  0.2998  0.3163
 2800TIP3   OH229814   2.168   4.041  17.258 -0.3689 -0.6469 -0.1005
 2800TIP3    H129815   2.261   4.059  17.272 -0.8302  0.8869  1.3499
 2800TIP3    H229816   2.147   3.970  17.318 -0.4991  0.2063  0.8794
 2801TIP3   OH229817   0.134   5.269   1.240 -0.2196  0.2547  0.5204
 2801TIP3    H129818   0.122   5.330   1.313  2.9020  2.0292 -0.2646
 2801TIP3    H229819   0.171   5.190   1.281 -0.8564  0.2685  1.1409
 2802TIP3   OH229820   1.378   4.210  15.738  0.0390 -0.0394 -0.2846
 2802TIP3    H129821   1.464   4.210  15.696  0.6745 -1.1177  0.9467
 2802TIP3    H229822   1.374   4.293  15.785  0.6737 -0.2504  0.1553
 2803TIP3   OH229823   0.817   3.870  11.394 -0.7839  0.0037 -0.1115
 2803TIP3    H129824   0.820   3.796  11.333  1.5647 -0.7491  0.8305
 2803TIP3    H229825   0.899   3.866  11.441  0.1683  4.1128 -1.0128
 2804TIP3   OH229826   2.311   3.777  12.151  0.3691  0.1811 -0.2364
 2804TIP3    H129827   2.317   3.809  12.241 -0.2628  0.0168 -0.1339
 2804TIP3    H229828   2.221   3.794  12.125  0.6366  0.5388 -0.9620
 2805TIP3   OH229829   0.747   6.604   6.782 -0.0099 -0.1888 -0.5751
 2805TIP3    H129830   0.788   6.680   6.743 -1.3784 -0.4005 -2.5447
 2805TIP3    H229831   0.819   6.556   6.824  1.0653  1.4582 -0.4672
 2806TIP3   OH229832   0.754   3.767  16.340 -0.2889  0.0756  0.2348
 2806TIP3    H129833   0.666   3.803  16.344 -0.3155 -0.0661  1.2153
 2806TIP3    H229834   0.777   3.768  16.247 -0.8378  1.2695  0.1056
 2807TIP3   OH229835   1.884   1.055   6.652 -0.3555 -0.2091 -0.3880
 2807TIP3    H129836   1.890   1.003   6.733 -0.8720 -1.4693 -1.1324
 2807TIP3    H229837   1.970   1.047   6.612 -0.4314 -0.4755 -0.4965
 2808TIP3   OH229838   2.699   4.942  12.546 -0.4763 -0.4939 -0.1467
 2808TIP3    H129839   2.621   4.918  12.597  0.0740  0.6092  1.3017
 2808TIP3    H229840   2.766   4.958  12.613  0.4703  0.3634 -1.2708
 2809TIP3   OH229841   6.595   6.069  12.386 -0.2128 -0.3860 -0.1710
 2809TIP3    H129842   6.528   6.133  12.407 -0.2468 -0.5744  0.3011
 2809TIP3    H229843   6.547   5.986  12.376  0.0097 -0.6304  0.7156
 2810TIP3   OH229844   2.090   4.773  12.798  0.3199  0.3157  0.3532
 2810TIP3    H129845   2.105   4.758  12.705  1.1925  0.6301  0.4379
 2810TIP3    H229846   2.141   4.851  12.819 -0.4241  0.6527  0.9475
 2811TIP3   OH229847   2.102   2.391   2.461  0.1160  0.1940 -0.5802
 2811TIP3    H129848   2.049   2.348   2.394 -0.8947 -1.6450  1.2666
 2811TIP3    H229849   2.095   2.334   2.537  1.7718  1.8270  0.9071
 2812TIP3   OH229850   0.043   3.677  17.197 -0.6567 -0.0406  0.0047
 2812TIP3    H129851   0.038   3.611  17.128  0.7220 -1.4467  1.1527
 2812TIP3    H229852   0.106   3.742  17.164  1.8846 -1.9267  0.7702
 2813TIP3   OH229853   0.449   2.545   1.730  0.3297  0.0168  0.4694
 2813TIP3    H129854   0.475   2.578   1.644  2.0595  0.6832  1.2005
 2813TIP3    H229855   0.493   2.603   1.792  0.4312 -1.4236  1.8029
 2814TIP3   OH229856   5.931   1.841   5.111  0.2810 -0.3906 -0.2675
 2814TIP3    H129857   5.937   1.750   5.085 -0.4406 -0.6466  0.4328
 2814TIP3    H229858   5.985   1.848   5.189 -0.8159 -0.5649  0.5312
 2815TIP3   OH229859   4.924   6.427   2.865  0.7325  0.2679  0.0424
 2815TIP3    H129860   4.832   6.453   2.854  0.0028  0.0159  3.9429
 2815TIP3    H229861   4.922   6.332   2.866  0.8741  0.2616  0.7685
 2816TIP3   OH229862   2.055   2.801  16.925  0.0163  0.0829  0.0230
 2816TIP3    H129863   1.970   2.785  16.885 -0.1223 -1.6290  0.9166
 2816TIP3    H229864   2.042   2.779  17.018  0.4164  3.5009  1.0404
 2817TIP3   OH229865   1.247   1.746   2.040  0.2688  0.2047 -0.1988
 2817TIP3    H129866   1.239   1.651   2.050 -0.8586  0.2137 -0.7986
 2817TIP3    H229867   1.159   1.775   2.016  0.6155  1.3973 -0.1110
 2818TIP3   OH229868   2.122   6.559  13.107  0.3028  0.4187 -0.7092
 2818TIP3    H129869   2.055   6.520  13.050  0.3793  0.9503 -1.1674
 2818TIP3    H229870   2.178   6.486  13.131  0.1639  0.1523 -1.1724
 2819TIP3   OH229871   0.499   0.879  11.643  0.4195  0.0568  0.3794
 2819TIP3    H129872   0.456   0.801  11.680 -0.3054  0.2270 -0.0809
 2819TIP3    H229873   0.465   0.952  11.696  1.6392  0.0103  1.2769
 2820TIP3   OH229874   6.281   4.870   0.791 -0.1083 -0.1625  0.3546
 2820TIP3    H129875   6.250   4.784   0.820  1.6539 -0.6745  0.8598
 2820TIP3    H229876   6.222   4.894   0.719 -1.7966 -0.9104  1.4198
 2821TIP3   OH229877   5.345   6.287  16.079  0.1608 -0.2475 -0.7180
 2821TIP3    H129878   5.317   6.295  16.170 -0.2413 -0.4720 -0.8198
 2821TIP3    H229879   5.264   6.272  16.030  0.5353 -1.8508 -0.9003
 2822TIP3   OH229880   5.020   2.553   4.737  0.3472 -0.0017  0.0185
 2822TIP3    H129881   4.975   2.475   4.705 -1.1433  0.7579  0.1655
 2822TIP3    H229882   4.949   2.614   4.759  1.4165  0.6982  1.7127
 2823TIP3   OH229883   2.379   2.709  11.670  0.1940  0.1531 -0.2925
 2823TIP3    H129884   2.344   2.764  11.740 -0.7007  0.3276 -0.8540
 2823TIP3    H229885   2.328   2.735  11.592  1.8906  0.7524 -1.2622
 2824TIP3   OH229886   6.628   0.998  17.118 -0.4744  0.5550 -0.0037
 2824TIP3    H129887   6.659   1.086  17.140  0.7152  0.5048 -1.2710
 2824TIP3    H229888   6.706   0.954  17.083 -0.8083 -1.3241  1.4515
 2825TIP3   OH229889   5.343   2.938  11.974 -0.2834 -0.4408  0.5170
 2825TIP3    H129890   5.334   3.031  11.995  0.4212 -0.0898 -0.6630
 2825TIP3    H229891   5.390   2.901  12.049 -0.5410  0.1534  0.9818
 2826TIP3   OH229892   5.023   4.889   4.649 -0.1138  0.5741 -0.1256
 2826TIP3    H129893   5.077   4.821   4.690  0.5920  1.2079  0.0295
 2826TIP3    H229894   4.955   4.841   4.602  1.8345 -0.4260 -2.1461
 2827TIP3   OH229895   6.058   0.433   2.335  0.1285  0.6264 -0.4950
 2827TIP3    H129896   5.967   0.401   2.334  0.4903 -0.4263 -0.5526
 2827TIP3    H229897   6.050   0.527   2.353 -0.7916 -0.1218  4.3904
 2828TIP3   OH229898   1.714   1.406  12.075 -0.0579 -1.0783  0.3436
 2828TIP3    H129899   1.649   1.435  12.011 -0.0883 -1.2643  0.2897
 2828TIP3    H229900   1.741   1.486  12.119  0.6529 -0.8095 -0.5497
 2829TIP3   OH229901   3.158   1.277  11.715  0.6165 -0.3226  0.2865
 2829TIP3    H129902   3.192   1.264  11.627 -1.3891  0.1542 -0.6299
 2829TIP3    H229903   3.219   1.229  11.772  0.8059 -2.4860 -1.5674
 2830TIP3   OH229904   1.491   4.398   6.028  0.0713 -0.0666 -0.2755
 2830TIP3    H129905   1.412   4.448   6.008  0.5073  0.1733 -1.4770
 2830TIP3    H229906   1.555   4.427   5.963  1.2710 -0.0028  0.8879
 2831TIP3   OH229907   0.580   6.479   7.110 -0.2092  0.3779 -0.8622
 2831TIP3    H129908   0.565   6.390   7.142  0.6422  0.1820 -0.9628
 2831TIP3    H229909   0.670   6.498   7.136 -0.5625  1.4198 -0.3765
 2832TIP3   OH229910   2.525   6.027  12.652  0.1578  0.1744  0.3907
 2832TIP3    H129911   2.610   6.071  12.646 -0.5594  1.5438 -0.1031
 2832TIP3    H229912   2.525   5.987  12.739  1.1948  0.3865  0.5063
 2833TIP3   OH229913   3.815   4.295   4.744  0.0586 -0.3743  0.2073
 2833TIP3    H129914   3.822   4.390   4.740  0.0175 -0.4072 -2.5574
 2833TIP3    H229915   3.894   4.268   4.791  1.5426  0.9317 -1.3878
 2834TIP3   OH229916   0.651   1.398   1.060 -0.5357  0.1559 -0.5408
 2834TIP3    H129917   0.567   1.443   1.072 -0.9172 -0.5262 -0.5964
 2834TIP3    H229918   0.684   1.432   0.976  0.2867  2.0273  0.4757
 2835TIP3   OH229919   5.772   6.479  13.645  0.0667  0.3750 -0.2062
 2835TIP3    H129920   5.856   6.496  13.603 -0.2208  0.8867 -0.5939
 2835TIP3    H229921   5.726   6.563  13.640 -0.8215 -0.1339 -0.8220
 2836TIP3   OH229922   2.162   1.716   1.347 -0.0065  0.7712 -0.8084
 2836TIP3    H129923   2.166   1.667   1.429  0.8693  2.1944  0.0326
 2836TIP3    H229924   2.123   1.654   1.285  3.3288 -2.0001 -0.4901
 2837TIP3   OH229925   0.620   2.660  16.598  0.0360 -0.2515 -0.6013
 2837TIP3    H129926   0.673   2.635  16.522  1.5703 -0.1358  0.3696
 2837TIP3    H229927   0.584   2.745  16.575 -0.7703 -0.8854 -1.7825
 2838TIP3   OH229928   2.062   1.199  16.464  0.0887  0.1133  0.8623
 2838TIP3    H129929   2.021   1.113  16.463 -0.7382  0.4806 -0.8479
 2838TIP3    H229930   2.007   1.253  16.406  1.8921  1.1409 -0.0062
 2839TIP3   OH229931   6.361   6.559  15.907  0.1558 -0.3931  0.5113
 2839TIP3    H129932   6.345   6.612  15.829 -0.1714  0.8821  1.4288
 2839TIP3    H229933   6.441   6.511  15.886 -0.5673 -0.9923 -1.0686
 2840TIP3   OH229934   3.627   1.366   0.145 -0.4210  0.1233 -0.1765
 2840TIP3    H129935   3.575   1.316   0.207  2.7559 -1.1874  1.6709
 2840TIP3    H229936   3.661   1.439   0.196  0.9217 -0.0461 -0.7956
 2841TIP3   OH229937   1.803   0.629  13.905 -0.0164  0.4547  0.0070
 2841TIP3    H129938   1.721   0.641  13.954  0.6496  0.1881  1.2169
 2841TIP3    H229939   1.858   0.575  13.962  1.2280  1.1126 -0.5256
 2842TIP3   OH229940   4.696   2.545   0.303 -0.1920 -0.1719 -0.2087
 2842TIP3    H129941   4.627   2.482   0.324 -0.2679  0.1279  0.4592
 2842TIP3    H229942   4.648   2.624   0.277 -0.1322  0.4339  1.4183
 2843TIP3   OH229943   6.003   5.822  12.878 -0.4002 -0.0844  0.0808
 2843TIP3    H129944   5.977   5.875  12.954 -1.0788 -0.3589  0.0502
 2843TIP3    H229945   5.992   5.882  12.804  0.4529  0.2461  0.2050
 2844TIP3   OH229946   3.193   4.747   0.654 -0.0273  0.5650 -0.0436
 2844TIP3    H129947   3.134   4.806   0.699 -1.0955 -0.8037  0.4108
 2844TIP3    H229948   3.226   4.688   0.722  1.6252  1.0834 -0.3441
 2845TIP3   OH229949   6.669   4.584  13.919 -0.3516  0.2350  0.2022
 2845TIP3    H129950   6.610   4.537  13.978 -0.1106  1.5850  1.5959
 2845TIP3    H229951   6.734   4.624  13.977  0.0214  1.4503 -1.0012
 2846TIP3   OH229952   3.510   4.099  15.929  0.3665  0.1603 -0.1612
 2846TIP3    H129953   3.587   4.140  15.968  0.2064  0.9422 -0.6332
 2846TIP3    H229954   3.497   4.147  15.847 -0.2473 -0.3855 -0.3876
 2847TIP3   OH229955   3.417   1.703   0.160  0.0550  0.0592 -0.2105
 2847TIP3    H129956   3.374   1.764   0.220 -0.9809  0.0471 -0.9092
 2847TIP3    H229957   3.358   1.698   0.085  1.6568  0.6204 -1.5644
 2848TIP3   OH229958   5.305   6.418  11.380  0.3271  0.5505  0.0922
 2848TIP3    H129959   5.283   6.365  11.304  0.8946  0.4992 -0.0385
 2848TIP3    H229960   5.230   6.408  11.439 -0.3468  1.0026 -0.6713
 2849TIP3   OH229961   2.877   1.705  13.302 -0.4598  0.3165  0.9496
 2849TIP3    H129962   2.827   1.784  13.284  1.3022  1.4383  0.7689
 2849TIP3    H229963   2.823   1.657  13.365 -2.3318  0.8316 -0.1863
 2850TIP3   OH229964   4.472   0.465   5.135 -0.0684 -0.2899  0.1047
 2850TIP3    H129965   4.485   0.456   5.040 -0.1533  2.1470 -0.2089
 2850TIP3    H229966   4.456   0.559   5.148  1.1226 -0.3534  2.6825
 2851TIP3   OH229967   5.724   4.727   4.287  0.5681 -0.4326  0.2882
 2851TIP3    H129968   5.681   4.642   4.292  0.5775 -0.4052  0.9748
 2851TIP3    H229969   5.699   4.762   4.201  1.0306 -1.3682 -0.2400
 2852TIP3   OH229970   3.880   1.455  16.591 -0.5097  0.0282 -0.4497
 2852TIP3    H129971   3.866   1.363  16.615 -2.2047  0.7168  1.5050
 2852TIP3    H229972   3.894   1.500  16.675 -0.9758  1.7380 -1.2511
 2853TIP3   OH229973   0.057   4.486  11.577  0.2178 -0.6748  0.4326
 2853TIP3    H129974   0.062   4.394  11.603  0.9901 -0.8502 -0.3033
 2853TIP3    H229975   0.115   4.493  11.501  1.3861  0.7381  1.3946
 2854TIP3   OH229976   0.453   3.864  16.280  0.1743 -0.1828 -0.5246
 2854TIP3    H129977   0.470   3.906  16.364 -1.4813  0.4212 -0.4416
 2854TIP3    H229978   0.397   3.789  16.302 -0.3188  0.0126 -1.0777
 2855TIP3   OH229979   0.871   5.007   4.547  0.1357  0.0331  0.3553
 2855TIP3    H129980   0.917   5.025   4.629  0.6620  0.7757 -0.0871
 2855TIP3    H229981   0.904   5.073   4.486  0.4181 -1.0575 -0.7097
 2856TIP3   OH229982   3.144   2.094   3.551 -0.4801  0.1135 -0.6453
 2856TIP3    H129983   3.234   2.123   3.564 -0.5532 -0.1445  0.5298
 2856TIP3    H229984   3.094   2.175   3.542  0.1165  0.2778 -3.5048
 2857TIP3   OH229985   0.554   3.363  12.300 -0.2036  0.1110  0.1330
 2857TIP3    H129986   0.559   3.268  12.295  2.0052  0.0979  1.3885
 2857TIP3    H229987   0.545   3.382  12.393  1.4298  1.1368  0.1324
 2858TIP3   OH229988   0.662   0.772  16.600 -0.0539  0.3182 -0.2360
 2858TIP3    H129989   0.723   0.708  16.563 -1.3908 -1.3954  0.3768
 2858TIP3    H229990   0.576   0.742  16.570 -0.7581  1.5312  0.5170
 2859TIP3   OH229991   6.353   0.288   1.700 -0.1540 -0.4852  0.1004
 2859TIP3    H129992   6.278   0.273   1.757 -1.0365  0.1677 -0.8564
 2859TIP3    H229993   6.407   0.210   1.709 -0.3578 -0.4739  1.6845
 2860TIP3   OH229994   3.391   1.001   1.120 -0.3341  0.1950 -0.2370
 2860TIP3    H129995   3.404   0.944   1.045 -0.9322 -0.8063  0.3999
 2860TIP3    H229996   3.477   1.005   1.163 -0.3508 -0.4544 -0.1379
 2861TIP3   OH229997   5.289   2.613   6.209 -0.1184 -0.0715  0.1284
 2861TIP3    H129998   5.237   2.681   6.252 -0.4105  0.2542 -0.7218
 2861TIP3    H229999   5.363   2.660   6.169  1.1435 -0.5899  1.7529
 2862TIP3   OH230000   5.277   0.919   2.169 -0.1883 -0.7093  0.0851
 2862TIP3    H130001   5.285   0.995   2.112 -1.4358 -0.2531  0.4696
 2862TIP3    H230002   5.262   0.956   2.256 -3.6404 -1.2926 -0.1181
 2863TIP3   OH230003   6.584   6.130  14.233  0.2607 -0.3223 -0.2307
 2863TIP3    H130004   6.594   6.086  14.318  0.8108  0.1516 -0.0450
 2863TIP3    H230005   6.674   6.152  14.207  0.0570 -0.0503 -0.7180
 2864TIP3   OH230006   4.685   0.845  14.729  0.4147 -0.2671  0.2086
 2864TIP3    H130007   4.730   0.842  14.644  0.6585  0.6959  0.2909
 2864TIP3    H230008   4.656   0.935  14.738 -1.2878 -0.7894  0.3084
 2865TIP3   OH230009   3.655   2.511  15.918  1.0416  0.0413 -0.3041
 2865TIP3    H130010   3.672   2.501  16.011  0.5484 -0.7799 -0.2976
 2865TIP3    H230011   3.698   2.436  15.877 -0.0175 -0.4320 -0.5784
 2866TIP3   OH230012   6.264   6.246  15.455 -0.2700 -0.4452 -0.5654
 2866TIP3    H130013   6.215   6.218  15.378  1.7715 -1.6987 -1.4755
 2866TIP3    H230014   6.272   6.341  15.445 -0.4798 -0.5271 -1.6285
 2867TIP3   OH230015   0.562   5.364   6.492  0.2161 -0.1828 -0.5816
 2867TIP3    H130016   0.630   5.422   6.526  0.7483 -0.3187 -1.3842
 2867TIP3    H230017   0.577   5.281   6.538 -0.4583  0.2578  0.4637
 2868TIP3   OH230018   5.889   2.194  16.746 -0.5832  0.0550 -0.4346
 2868TIP3    H130019   5.982   2.210  16.728 -0.0122 -0.8775  1.3682
 2868TIP3    H230020   5.844   2.273  16.718  1.2616  2.2524  2.2992
 2869TIP3   OH230021   5.506   6.625   4.324  0.0012  0.4546  0.1390
 2869TIP3    H130022   5.594   6.655   4.345  0.2415 -0.6328  0.7248
 2869TIP3    H230023   5.450   6.666   4.390  0.3305 -0.3593  0.9453
 2870TIP3   OH230024   3.561   5.443  12.034  0.2254  0.3471  0.3901
 2870TIP3    H130025   3.485   5.385  12.032 -0.2503  0.9913 -0.9559
 2870TIP3    H230026   3.555   5.495  11.954  0.5988  2.3284  1.5774
 2871TIP3   OH230027   1.485   5.058  16.600  0.5283 -0.7911 -0.0879
 2871TIP3    H130028   1.491   5.001  16.523  1.3724 -3.5637  1.8633
 2871TIP3    H230029   1.576   5.082  16.619  0.7663 -2.7283  1.7027
 2872TIP3   OH230030   3.623   5.212  17.256 -0.2886  0.1870  0.8237
 2872TIP3    H130031   3.595   5.204  17.347 -1.8765 -0.4337  0.3091
 2872TIP3    H230032   3.648   5.304  17.246  0.9163  0.0291  2.1395
 2873TIP3   OH230033   0.671   2.648   2.884 -0.6151  0.0989  0.1568
 2873TIP3    H130034   0.578   2.651   2.904 -0.7882  1.0542 -0.7280
 2873TIP3    H230035   0.708   2.723   2.932 -0.4459  0.2416 -0.1929
 2874TIP3   OH230036   0.992   0.441  13.119  0.0005  0.4737 -0.3657
 2874TIP3    H130037   1.026   0.354  13.101  0.6545  0.9577 -1.6588
 2874TIP3    H230038   0.919   0.452  13.058  1.3917  1.6511 -1.9162
 2875TIP3   OH230039   4.120   0.306   6.346 -0.2051 -0.0047  0.5080
 2875TIP3    H130040   4.089   0.350   6.425  0.5874 -0.2078  0.9329
 2875TIP3    H230041   4.192   0.360   6.315  0.6646 -0.8999  0.9395
 2876TIP3   OH230042   1.774   4.425  14.151  0.1322  0.2346  0.1504
 2876TIP3    H130043   1.794   4.487  14.221 -1.0936  2.6171 -1.4829
 2876TIP3    H230044   1.679   4.430  14.141  0.3141  0.3829 -2.0115
 2877TIP3   OH230045   0.593   1.472  14.168  0.7885  0.0310 -0.6072
 2877TIP3    H130046   0.519   1.466  14.228  0.9127  2.3689 -0.1297
 2877TIP3    H230047   0.584   1.396  14.111  0.7617 -2.4388  2.4071
 2878TIP3   OH230048   4.904   6.167   2.870  0.1056  0.5311  0.0068
 2878TIP3    H130049   4.873   6.098   2.811 -0.9017 -0.0416  1.1618
 2878TIP3    H230050   4.927   6.120   2.951  0.2693  1.4393  0.4994
 2879TIP3   OH230051   2.830   4.859  16.843  0.0486  0.1840 -0.7313
 2879TIP3    H130052   2.857   4.878  16.933 -1.1825 -0.8565 -0.1049
 2879TIP3    H230053   2.909   4.873  16.790  0.7271  1.0582  0.4615
 2880TIP3   OH230054   3.335   2.920   0.135  0.1331 -0.1959 -0.0700
 2880TIP3    H130055   3.378   2.948   0.054  1.9801 -1.9667  0.2288
 2880TIP3    H230056   3.400   2.935   0.204 -0.5062 -0.9965  0.7285
 2881TIP3   OH230057   0.196   3.914   0.596 -0.4406 -0.4556 -0.2048
 2881TIP3    H130058   0.151   3.830   0.589 -0.7646 -0.3165  0.2129
 2881TIP3    H230059   0.284   3.896   0.561  0.3123 -1.5955  2.0406
 2882TIP3   OH230060   6.735   6.372   3.544  0.6143 -0.1904  0.0353
 2882TIP3    H130061   6.654   6.332   3.513  0.8077  0.4123 -1.3169
 2882TIP3    H230062   6.725   6.466   3.525  1.3047  0.0043  0.5792
 2883TIP3   OH230063   1.498   2.959  15.750  0.6818  0.1775  0.3281
 2883TIP3    H130064   1.482   3.008  15.831 -1.9784 -1.9724  1.2700
 2883TIP3    H230065   1.413   2.958  15.706  1.3666 -1.1347 -1.0582
 2884TIP3   OH230066   0.377   5.524  13.817 -0.2793 -0.5094  0.2952
 2884TIP3    H130067   0.467   5.490  13.820 -0.3418 -0.7762 -0.5061
 2884TIP3    H230068   0.328   5.464  13.873 -0.1707 -1.0832 -0.2041
 2885TIP3   OH230069   1.325   6.125  16.558  0.1974 -0.3231 -0.2905
 2885TIP3    H130070   1.235   6.114  16.588  0.4234  1.0540  1.0193
 2885TIP3    H230071   1.375   6.060  16.606 -0.0106 -0.7674 -0.6634
 2886TIP3   OH230072   2.796   4.897  11.454 -0.2550  0.6579  0.5878
 2886TIP3    H130073   2.732   4.836  11.494  1.9825 -2.2451  0.0772
 2886TIP3    H230074   2.815   4.859  11.369  3.9368 -0.1259  1.6570
 2887TIP3   OH230075   4.734   1.659   5.863 -0.2462 -0.3231  0.1426
 2887TIP3    H130076   4.704   1.573   5.833 -0.6088 -0.0710 -0.2194
 2887TIP3    H230077   4.747   1.648   5.957 -1.1722 -0.5299  0.2589
 2888TIP3   OH230078   3.948   0.172   1.236 -0.3441 -0.0625 -0.4799
 2888TIP3    H130079   3.920   0.260   1.210 -1.1537 -0.4508 -0.9442
 2888TIP3    H230080   3.982   0.133   1.156  0.4229 -0.0345 -0.1823
 2889TIP3   OH230081   1.788   0.181  14.745 -0.3141 -0.3704 -0.0097
 2889TIP3    H130082   1.698   0.170  14.714 -0.3791  0.3547 -0.1111
 2889TIP3    H230083   1.795   0.275  14.763  0.9275 -0.1113 -1.6286
 2890TIP3   OH230084   5.679   4.347   5.244 -1.1856  0.2445  0.2042
 2890TIP3    H130085   5.761   4.349   5.195  0.0152  0.2972  2.0917
 2890TIP3    H230086   5.670   4.255   5.271 -2.0302  0.1366 -0.4140
 2891TIP3   OH230087   5.999   3.793   5.492  0.7757 -0.0312 -0.3913
 2891TIP3    H130088   5.947   3.863   5.533 -2.0006  0.1437 -3.7807
 2891TIP3    H230089   5.974   3.714   5.540  0.3634  0.6344  0.5220
 2892TIP3   OH230090   0.306   3.415  15.351  0.0273  0.3911  0.5274
 2892TIP3    H130091   0.344   3.327  15.348  5.1472  2.2702 -2.6047
 2892TIP3    H230092   0.332   3.449  15.437 -1.0251 -0.6772  1.3058
 2893TIP3   OH230093   2.907   6.144  11.228  0.1738 -0.7492 -0.2446
 2893TIP3    H130094   2.949   6.230  11.223 -1.7275  0.2587  0.2668
 2893TIP3    H230095   2.815   6.163  11.247 -0.6437 -2.8425 -1.7565
 2894TIP3   OH230096   2.747   6.742  15.245 -0.2192 -0.4414  0.1741
 2894TIP3    H130097   2.707   6.665  15.205 -0.4795 -0.6966  0.9115
 2894TIP3    H230098   2.785   6.709  15.327 -2.5194  0.6519  1.7889
 2895TIP3   OH230099   1.945   4.008  13.571  0.1059 -0.5335 -0.0054
 2895TIP3    H130100   1.993   4.047  13.644  0.7892  0.4958 -0.9632
 2895TIP3    H230101   1.878   3.954  13.612 -1.0093  1.7727  1.4272
 2896TIP3   OH230102   6.272   0.267  15.755  0.1661 -0.5723  0.5509
 2896TIP3    H130103   6.191   0.249  15.803 -0.3167  1.3172  0.5150
 2896TIP3    H230104   6.245   0.316  15.678  1.3378  0.1481  0.5652
 2897TIP3   OH230105   5.381   0.072   4.509  0.2981  0.4782  0.3204
 2897TIP3    H130106   5.462   0.121   4.495 -0.1668  1.0570 -0.3818
 2897TIP3    H230107   5.388   0.040   4.599  1.8226 -0.4641 -0.0947
 2898TIP3   OH230108   4.922   0.309   3.483  0.5167  0.1552 -0.0391
 2898TIP3    H130109   4.942   0.231   3.534 -1.4936 -3.0678 -3.5685
 2898TIP3    H230110   4.827   0.320   3.492  0.3959  0.6298 -1.5197
 2899TIP3   OH230111   0.826   4.086  12.216 -0.2357  0.1827  0.4241
 2899TIP3    H130112   0.887   4.036  12.161  0.4993  1.4191  0.0902
 2899TIP3    H230113   0.877   4.109  12.294 -0.7245 -0.0023  0.8065
 2900TIP3   OH230114   6.744   1.116  12.545 -0.2659 -0.1631 -0.3986
 2900TIP3    H130115   6.778   1.036  12.505  1.4577 -0.7976  2.0770
 2900TIP3    H230116   6.804   1.184  12.516  0.1188 -0.3470 -0.0346
 2901TIP3   OH230117   4.161   1.838  11.633  0.3965 -0.1744 -0.3669
 2901TIP3    H130118   4.086   1.829  11.574  0.9900  1.8020 -1.5096
 2901TIP3    H230119   4.124   1.830  11.721 -0.8466 -1.0818 -0.9551
 2902TIP3   OH230120   3.221   3.973   5.775 -0.0250 -0.4208  0.0828
 2902TIP3    H130121   3.307   3.933   5.786  0.0085 -0.6002 -0.7587
 2902TIP3    H230122   3.237   4.067   5.780  0.0451 -0.4747  1.0603
 2903TIP3   OH230123   5.494   0.117   2.828  0.8917  0.0811 -0.0687
 2903TIP3    H130124   5.465   0.049   2.889  0.8231  1.0079  0.9494
 2903TIP3    H230125   5.435   0.191   2.843  0.6840  0.2361 -1.4710
 2904TIP3   OH230126   5.676   2.573   4.911  0.5546 -0.2865 -0.1076
 2904TIP3    H130127   5.736   2.508   4.947  1.4316 -0.4184 -1.7121
 2904TIP3    H230128   5.616   2.594   4.983  2.0133 -0.7557  1.2803
 2905TIP3   OH230129   2.231   1.403   2.172 -0.4110 -0.1112  0.4769
 2905TIP3    H130130   2.301   1.355   2.214  0.0494  0.6695  0.6235
 2905TIP3    H230131   2.267   1.491   2.158 -1.2394  0.2045  0.2546
 2906TIP3   OH230132   2.999   2.390   4.431  0.0868 -0.4958 -0.0975
 2906TIP3    H130133   2.992   2.320   4.496  1.1461 -0.1373  0.4179
 2906TIP3    H230134   3.011   2.344   4.348 -1.3847 -0.9598 -0.0796
 2907TIP3   OH230135   0.112   5.351  12.148  0.5062  0.7089  0.0291
 2907TIP3    H130136   0.148   5.352  12.237 -1.4463 -1.8932  0.9674
 2907TIP3    H230137   0.162   5.284  12.102  0.7395  1.2390 -0.5054
 2908TIP3   OH230138   1.249   0.662  15.886 -0.5684  0.4646  0.4203
 2908TIP3    H130139   1.233   0.642  15.793 -1.7255 -1.2911  0.9500
 2908TIP3    H230140   1.333   0.621  15.906 -1.2582 -0.8950  0.6158
 2909TIP3   OH230141   0.534   0.539  17.159  0.2961 -0.6600 -0.0714
 2909TIP3    H130142   0.592   0.559  17.086 -1.9551 -1.4041 -2.2407
 2909TIP3    H230143   0.449   0.575  17.132 -0.5301 -0.5899  2.4132
 2910TIP3   OH230144   2.931   5.133  15.846  0.7494 -0.0481  0.6217
 2910TIP3    H130145   2.993   5.206  15.834  1.5240 -0.7035  0.5294
 2910TIP3    H230146   2.951   5.073  15.774 -1.6375  0.8195 -0.8512
 2911TIP3   OH230147   5.441   4.384   1.481 -0.3983 -0.2576 -0.1219
 2911TIP3    H130148   5.443   4.437   1.561 -0.7969  1.0358 -0.9450
 2911TIP3    H230149   5.497   4.431   1.420  1.4444 -2.2247 -0.0612
 2912TIP3   OH230150   0.726   3.375  17.055  0.2328 -0.1821  0.1334
 2912TIP3    H130151   0.815   3.367  17.088  0.6715  0.7049 -0.7856
 2912TIP3    H230152   0.698   3.285  17.039  0.4661 -0.5521  1.6681
 2913TIP3   OH230153   4.429   6.235  12.599 -0.3577  0.5679  0.2194
 2913TIP3    H130154   4.433   6.292  12.522 -0.2463  1.4223  0.8454
 2913TIP3    H230155   4.336   6.229  12.620 -0.6758 -1.7957 -1.5073
 2914TIP3   OH230156   3.100   2.169  16.911  0.4504  0.6500  0.6795
 2914TIP3    H130157   3.016   2.188  16.869  0.8198 -1.9994 -1.5470
 2914TIP3    H230158   3.076   2.129  16.995 -0.5688 -0.5563 -0.1558
 2915TIP3   OH230159   2.315   2.700  14.966  0.3005 -0.0070 -0.1936
 2915TIP3    H130160   2.361   2.620  14.939  1.4269  0.8664 -0.9376
 2915TIP3    H230161   2.316   2.756  14.889  1.3317  1.5383  0.8825
 2916TIP3   OH230162   5.842   6.318   1.838  0.4965 -0.0245  0.6157
 2916TIP3    H130163   5.750   6.333   1.856  1.1665  3.1490  2.0980
 2916TIP3    H230164   5.850   6.328   1.743 -0.7288 -0.7629  0.4234
 2917TIP3   OH230165   4.542   4.621   4.167 -0.0060  0.0243 -0.0651
 2917TIP3    H130166   4.561   4.691   4.230  0.2498 -0.0242 -0.0880
 2917TIP3    H230167   4.462   4.649   4.123  1.4027  1.5169 -1.8174
 2918TIP3   OH230168   4.391   1.910  14.636 -0.5913 -0.1014  0.4332
 2918TIP3    H130169   4.392   1.818  14.663 -0.8284  0.3328  2.0126
 2918TIP3    H230170   4.305   1.922  14.596 -0.4401 -0.6340 -0.0719
 2919TIP3   OH230171   5.417   0.520  11.903  0.0069  0.1374 -0.2387
 2919TIP3    H130172   5.505   0.483  11.906 -0.4682 -1.1326 -1.0542
 2919TIP3    H230173   5.396   0.539  11.994  1.0033  0.2053 -0.0069
 2920TIP3   OH230174   1.921   5.142  14.751 -0.2120  0.0485 -0.3659
 2920TIP3    H130175   1.826   5.146  14.758 -0.2174  1.3199 -0.9021
 2920TIP3    H230176   1.951   5.121  14.840 -0.9579  0.1390 -0.0887
 2921TIP3   OH230177   2.412   1.092   0.242 -0.0171 -0.3073  0.1712
 2921TIP3    H130178   2.367   1.055   0.166 -1.1905 -1.1601  1.2615
 2921TIP3    H230179   2.373   1.049   0.317 -0.4405  2.1271  1.4250
 2922TIP3   OH230180   4.076   6.665  13.740  0.2074 -0.1803  0.2221
 2922TIP3    H130181   4.031   6.692  13.820  1.5338  0.0618  0.9168
 2922TIP3    H230182   4.047   6.727  13.673 -2.2659 -1.4221  0.0338
 2923TIP3   OH230183   4.304   2.969  11.117 -0.0096  0.2620 -0.4894
 2923TIP3    H130184   4.263   3.031  11.057 -2.6281 -1.1154 -0.2956
 2923TIP3    H230185   4.379   2.934  11.068 -1.3905  0.0042 -2.5622
 2924TIP3   OH230186   1.933   2.820  13.337  0.0622  0.2807  0.1023
 2924TIP3    H130187   1.848   2.785  13.363  0.7199 -1.3899  0.1052
 2924TIP3    H230188   1.913   2.903  13.292 -1.5027  0.1854  0.5871
 2925TIP3   OH230189   1.031   4.811  17.324  0.3591  0.1079  0.2892
 2925TIP3    H130190   1.068   4.832  17.238 -0.2889  2.6114  0.5259
 2925TIP3    H230191   0.951   4.762  17.304  0.3444  0.4512 -0.5522
 2926TIP3   OH230192   5.891   6.350  15.281  0.0713  0.1073 -0.3702
 2926TIP3    H130193   5.968   6.294  15.288 -0.0519 -0.4222 -2.4759
 2926TIP3    H230194   5.817   6.290  15.287 -0.1921  0.5289  0.9468
 2927TIP3   OH230195   6.118   6.500   4.810 -0.7137 -0.3566 -0.2112
 2927TIP3    H130196   6.137   6.473   4.900 -3.5967 -2.2553 -0.0114
 2927TIP3    H230197   6.128   6.595   4.811  1.2494 -0.5100  1.5573
 2928TIP3   OH230198   2.660   2.262   3.930  0.5178 -0.6591 -1.0554
 2928TIP3    H130199   2.659   2.343   3.981  1.0645  0.0266 -2.0917
 2928TIP3    H230200   2.746   2.224   3.947  0.3997 -0.8366 -0.8535
 2929TIP3   OH230201   3.025   6.018   5.578 -0.0288 -0.0521  0.0688
 2929TIP3    H130202   3.039   6.110   5.601 -1.4231  0.8418 -2.3459
 2929TIP3    H230203   3.111   5.988   5.546 -0.1590  1.2340 -1.6159
 2930TIP3   OH230204   4.258   4.700   0.024 -0.4792  0.0860  0.0854
 2930TIP3    H130205   4.192   4.731   0.087 -0.6162  0.7075 -0.3541
 2930TIP3    H230206   4.212   4.637  -0.031 -1.0000  1.2622 -0.8654
 2931TIP3   OH230207   0.523   4.077  12.290 -0.5661 -0.2362 -0.0466
 2931TIP3    H130208   0.509   4.012  12.358 -1.2209  2.0042  2.1072
 2931TIP3    H230209   0.610   4.113  12.308 -0.9712  0.7645 -0.0193
 2932TIP3   OH230210   5.612   5.353  14.592 -0.7890  0.0778  0.7542
 2932TIP3    H130211   5.669   5.291  14.547 -2.6340 -0.4678 -0.9988
 2932TIP3    H230212   5.662   5.434  14.594  0.1169 -0.4091 -0.5762
 2933TIP3   OH230213   4.999   4.852  10.778 -0.1327 -0.5912 -0.2281
 2933TIP3    H130214   4.976   4.894  10.861 -1.1770  0.4648 -1.0151
 2933TIP3    H230215   4.963   4.911  10.711 -0.2459 -1.9548 -1.4099
 2934TIP3   OH230216   5.366   2.034  16.248 -0.1134 -0.2135  0.2253
 2934TIP3    H130217   5.359   2.045  16.153  1.1039  2.5153  0.3373
 2934TIP3    H230218   5.276   2.033  16.279 -0.5119 -0.1754 -0.8983
 2935TIP3   OH230219   5.319   5.885  12.806  0.0941 -0.3772 -0.4121
 2935TIP3    H130220   5.325   5.888  12.901  0.7414  0.2246 -0.4669
 2935TIP3    H230221   5.242   5.830  12.789  0.5625 -1.3310  0.4425
 2936TIP3   OH230222   1.251   0.126  16.217 -0.4738  0.0401  0.2909
 2936TIP3    H130223   1.269   0.062  16.148 -0.1159 -2.2391  2.3691
 2936TIP3    H230224   1.329   0.181  16.219 -0.0026 -0.5883 -0.3360
 2937TIP3   OH230225   4.293   3.222   0.725 -0.1315  0.5068  0.4512
 2937TIP3    H130226   4.381   3.185   0.714 -0.9011 -0.9706 -1.2989
 2937TIP3    H230227   4.302   3.313   0.699  0.8471  0.3070  0.0486
 2938TIP3   OH230228   2.361   3.225  15.540 -0.6398 -0.5352  0.0459
 2938TIP3    H130229   2.296   3.206  15.608 -1.2583  2.2554  0.3580
 2938TIP3    H230230   2.339   3.166  15.468 -1.9872 -1.3245  1.0618
 2939TIP3   OH230231   3.890   1.767   0.328 -0.0401  0.3191  0.1011
 2939TIP3    H130232   3.961   1.717   0.287  1.2769  1.9620  0.2488
 2939TIP3    H230233   3.935   1.826   0.389 -1.7976 -0.8498  2.7056
 2940TIP3   OH230234   0.924   4.768  16.019 -0.1230  0.0458 -0.2615
 2940TIP3    H130235   0.852   4.801  15.964  0.1997  0.7908 -0.2485
 2940TIP3    H230236   0.990   4.838  16.016  0.2211 -0.2433  0.4515
 2941TIP3   OH230237   2.234   1.424  14.386  0.4706 -0.6534 -0.3863
 2941TIP3    H130238   2.312   1.397  14.434  1.4744 -0.4439 -1.8443
 2941TIP3    H230239   2.165   1.429  14.453  1.1405 -3.0037  0.5881
 2942TIP3   OH230240   5.944   1.704   3.890  0.1311  0.1647  0.1636
 2942TIP3    H130241   5.882   1.774   3.870  1.6048  1.7500  0.9016
 2942TIP3    H230242   5.929   1.684   3.982  1.2681  1.1938  0.6000
 2943TIP3   OH230243   4.785   0.770   3.077 -0.3111 -0.2685  0.4309
 2943TIP3    H130244   4.807   0.690   3.124 -1.4405 -1.7446 -1.3767
 2943TIP3    H230245   4.700   0.752   3.037 -0.7122  1.9376  0.1206
 2944TIP3   OH230246   6.726   4.648   3.720  0.3974  0.1810 -0.1627
 2944TIP3    H130247   6.631   4.645   3.709  0.3908 -0.1114 -0.0256
 2944TIP3    H230248   6.739   4.685   3.807  0.3963 -0.3324  0.0604
 2945TIP3   OH230249   6.024   5.268  16.783 -0.3306 -0.3284  0.1643
 2945TIP3    H130250   5.996   5.184  16.746 -1.5643  0.0309  0.2597
 2945TIP3    H230251   6.076   5.309  16.713 -1.0491 -0.4863 -0.4728
 2946TIP3   OH230252   2.963   5.044   3.623 -0.0912 -0.5941 -0.9086
 2946TIP3    H130253   3.005   5.125   3.654  0.9582 -1.5030  0.1234
 2946TIP3    H230254   2.874   5.071   3.601 -0.8636  0.2943  2.5579
 2947TIP3   OH230255   3.752   5.820   3.695 -0.6037  0.3556 -0.0763
 2947TIP3    H130256   3.842   5.847   3.714 -0.6120 -0.5611  1.5121
 2947TIP3    H230257   3.736   5.848   3.605  1.5174 -0.0998 -0.6418
 2948TIP3   OH230258   5.569   3.871   5.708  0.5934 -0.0112 -0.7625
 2948TIP3    H130259   5.604   3.834   5.789  0.1722 -0.3835 -0.7533
 2948TIP3    H230260   5.556   3.964   5.728  0.3465 -0.1320 -0.3508
 2949TIP3   OH230261   3.768   0.770  11.060  1.1280  0.2047 -0.6168
 2949TIP3    H130262   3.708   0.822  11.007  0.3150 -0.4994 -0.4058
 2949TIP3    H230263   3.811   0.712  10.997  0.5315 -0.2794 -0.5921
 2950TIP3   OH230264   4.236   4.531  12.850 -0.0697  0.1872  0.2767
 2950TIP3    H130265   4.176   4.576  12.790  0.0798  1.7110  1.2227
 2950TIP3    H230266   4.238   4.587  12.928  2.5457  0.1837  0.2892
 2951TIP3   OH230267   0.582   5.645   4.952 -0.2140  0.8012 -1.1753
 2951TIP3    H130268   0.594   5.572   4.891 -1.2855 -0.1035 -0.3330
 2951TIP3    H230269   0.653   5.636   5.015 -1.9943 -1.3854  0.7008
 2952TIP3   OH230270   4.327   0.127   1.669 -0.2403  0.2900  0.0070
 2952TIP3    H130271   4.377   0.147   1.589  1.3334 -1.4593  0.5117
 2952TIP3    H230272   4.236   0.118   1.638  0.5494 -1.9408 -1.9023
 2953TIP3   OH230273   5.189   4.922  14.531  0.0826 -0.5482  0.2804
 2953TIP3    H130274   5.281   4.929  14.557 -0.3195 -0.5764  1.8419
 2953TIP3    H230275   5.140   4.948  14.610 -1.2458 -0.1513 -0.6362
 2954TIP3   OH230276   4.127   0.662  11.930 -0.3135 -0.8416 -0.2111
 2954TIP3    H130277   4.221   0.676  11.922 -0.3561 -0.4535 -0.0463
 2954TIP3    H230278   4.111   0.664  12.024 -0.6897  0.4662 -0.2865
 2955TIP3   OH230279   6.017   0.171   3.219 -0.1439  0.1759  0.2734
 2955TIP3    H130280   6.030   0.203   3.130 -0.6052 -2.9187 -1.0399
 2955TIP3    H230281   6.103   0.140   3.247  0.3010  2.3215  1.5325
 2956TIP3   OH230282   3.250   2.586  10.589 -0.5479  0.3615  0.3283
 2956TIP3    H130283   3.223   2.670  10.551 -2.1734 -0.1532  0.2872
 2956TIP3    H230284   3.252   2.526  10.515  0.4181  0.2955  0.3939
 2957TIP3   OH230285   5.638   4.824   4.047 -0.4058 -0.4103 -0.4574
 2957TIP3    H130286   5.566   4.885   4.059 -1.7204 -2.1946  1.7291
 2957TIP3    H230287   5.596   4.745   4.011  0.0156 -2.0326  2.3110
 2958TIP3   OH230288   4.317   0.101  13.593 -0.1997  0.2997 -0.2105
 2958TIP3    H130289   4.239   0.136  13.549 -1.1380  1.3845  2.1885
 2958TIP3    H230290   4.364   0.179  13.625 -0.3359 -0.4530  1.9528
 2959TIP3   OH230291   4.110   0.393   1.456  0.1141 -0.3261  0.0762
 2959TIP3    H130292   4.108   0.321   1.394  1.7958 -0.7506  0.4533
 2959TIP3    H230293   4.075   0.357   1.537  0.5533 -0.6138  0.1425
 2960TIP3   OH230294   2.249   5.823  17.049  0.2526  0.3484  0.1972
 2960TIP3    H130295   2.260   5.762  17.122  0.6529 -0.8371 -0.8260
 2960TIP3    H230296   2.333   5.823  17.005 -0.6228 -0.8061 -1.6320
 2961TIP3   OH230297   2.727   1.115  15.133  0.3742  0.2107  0.0376
 2961TIP3    H130298   2.633   1.133  15.143  0.7169  1.8371  0.5980
 2961TIP3    H230299   2.733   1.074  15.047 -0.8595  0.0945 -0.0196
 2962TIP3   OH230300   4.584   6.341  11.785 -0.1169  0.4763 -0.5192
 2962TIP3    H130301   4.500   6.384  11.801 -0.7165 -1.2803  1.4751
 2962TIP3    H230302   4.566   6.281  11.713 -0.9448 -0.7327  0.6546
 2963TIP3   OH230303   4.649   1.120  11.586 -0.5935  0.3429  0.4614
 2963TIP3    H130304   4.731   1.120  11.536 -0.3198  1.1127  0.8907
 2963TIP3    H230305   4.581   1.136  11.521 -0.4240 -0.4793  0.0723
 2964TIP3   OH230306   5.014   0.973  13.584 -0.2422  0.1091  0.1588
 2964TIP3    H130307   5.030   1.063  13.614 -0.4927 -0.5024  2.2721
 2964TIP3    H230308   5.097   0.947  13.544  0.4716  0.6529  1.2324
 2965TIP3   OH230309   4.110   6.241  11.142  0.5222  0.4957 -0.4228
 2965TIP3    H130310   4.059   6.167  11.111 -1.1236  1.3080  0.2208
 2965TIP3    H230311   4.099   6.307  11.074 -2.2587  1.9135  1.1951
 2966TIP3   OH230312   3.225   5.539   4.817 -0.1251 -0.0338  0.1698
 2966TIP3    H130313   3.237   5.507   4.907  0.5384 -0.4318 -0.0515
 2966TIP3    H230314   3.184   5.625   4.827 -0.8201 -0.4289  0.8217
 2967TIP3   OH230315   1.218   1.232  11.477  0.6165 -0.5584 -0.2264
 2967TIP3    H130316   1.251   1.144  11.456 -2.4496 -1.6201 -1.2155
 2967TIP3    H230317   1.217   1.278  11.393  0.8275 -0.1089  0.0177
 2968TIP3   OH230318   1.758   1.600  13.838  0.0886 -0.3325  0.1737
 2968TIP3    H130319   1.825   1.644  13.785  0.5660 -0.6006  0.5505
 2968TIP3    H230320   1.701   1.559  13.773 -2.0724  3.1308 -0.3761
 2969TIP3   OH230321   5.640   0.089   2.528 -0.0230 -0.3929 -0.4599
 2969TIP3    H130322   5.681   0.030   2.465 -0.2404 -0.4327 -0.5618
 2969TIP3    H230323   5.567   0.040   2.564  1.0022 -0.9498  0.9526
 2970TIP3   OH230324   1.554   4.798  15.610 -0.0840 -0.3947  0.0527
 2970TIP3    H130325   1.509   4.725  15.569 -1.8364  1.3165 -1.2314
 2970TIP3    H230326   1.485   4.848  15.655  1.0258  0.5559  0.7798
 2971TIP3   OH230327   0.343   2.024   4.374 -0.5349  0.0576 -0.3689
 2971TIP3    H130328   0.259   1.980   4.367  0.0560 -1.0167 -0.9742
 2971TIP3    H230329   0.395   1.988   4.303  1.8638 -2.5452  2.4076
 2972TIP3   OH230330   3.416   1.549   1.971  0.1944 -0.3881 -0.1787
 2972TIP3    H130331   3.480   1.493   2.015 -0.4575 -0.7263  0.3561
 2972TIP3    H230332   3.349   1.489   1.941  1.6334 -0.4919 -3.6386
 2973TIP3   OH230333   4.414   1.818  15.630  0.4618 -0.4720 -0.2984
 2973TIP3    H130334   4.424   1.827  15.724  1.1797 -0.5078 -0.3664
 2973TIP3    H230335   4.427   1.906  15.595 -0.4997 -0.3208 -0.3202
 2974TIP3   OH230336   3.394   3.212   4.787  0.2197 -0.2093  0.4650
 2974TIP3    H130337   3.301   3.188   4.792 -0.1216  0.9269  0.0229
 2974TIP3    H230338   3.414   3.247   4.874  0.1369 -0.1541  0.4623
 2975TIP3   OH230339   2.493   4.347  16.780  0.7504 -0.7661 -0.0631
 2975TIP3    H130340   2.455   4.312  16.861  1.3624  2.2102  1.6694
 2975TIP3    H230341   2.587   4.328  16.788  1.2000  1.5985  1.2319
 2976TIP3   OH230342   1.594   4.197   3.461  0.2112 -0.6744 -0.1636
 2976TIP3    H130343   1.525   4.165   3.403 -0.2487  0.1009 -0.0670
 2976TIP3    H230344   1.547   4.223   3.541  0.8007 -1.5126  0.4838
 2977TIP3   OH230345   5.649   2.011   0.060 -0.2572  0.7069 -0.4532
 2977TIP3    H130346   5.615   1.938   0.112  2.0514  0.9439  1.5573
 2977TIP3    H230347   5.601   2.087   0.092  1.0897  0.8397  1.4332
 2978TIP3   OH230348   4.266   4.176   4.672 -0.0374  0.1904 -0.0551
 2978TIP3    H130349   4.314   4.250   4.711 -0.2487  0.5363 -0.4403
 2978TIP3    H230350   4.226   4.213   4.593  1.2787 -0.7596 -1.2245
 2979TIP3   OH230351   6.351   3.801   3.565  0.3187  0.0060  0.1374
 2979TIP3    H130352   6.358   3.864   3.636 -0.6131 -0.1023  0.3320
 2979TIP3    H230353   6.415   3.831   3.500 -0.5138  1.4999 -0.0393
 2980TIP3   OH230354   1.489   0.271   0.092 -0.1609  0.2295  0.4452
 2980TIP3    H130355   1.528   0.244   0.175 -0.4295  0.8600  0.7799
 2980TIP3    H230356   1.532   0.355   0.072 -0.2366  0.1752  0.0411
 2981TIP3   OH230357   5.810   4.466   3.965  0.0354  0.1104 -0.4178
 2981TIP3    H130358   5.886   4.430   3.919  1.0667 -0.3028  1.4939
 2981TIP3    H230359   5.826   4.560   3.967  1.8625 -0.1511  2.0942
 2982TIP3   OH230360   2.321   3.945   5.849 -0.3450  0.3958  0.9189
 2982TIP3    H130361   2.299   3.861   5.809 -0.8159 -0.3119  2.5816
 2982TIP3    H230362   2.411   3.962   5.823 -1.0146  0.6185 -1.4679
 2983TIP3   OH230363   2.931   3.917   6.163  0.3760 -0.0317 -0.2583
 2983TIP3    H130364   3.019   3.926   6.127 -0.0338  0.8371 -1.0918
 2983TIP3    H230365   2.904   4.006   6.184 -0.7535 -0.1395 -1.1575
 2984TIP3   OH230366   2.509   4.625   0.052 -0.3562  0.1577  0.6358
 2984TIP3    H130367   2.549   4.563   0.113 -1.5066 -0.0034  1.2529
 2984TIP3    H230368   2.431   4.580   0.020  1.0789 -0.5077 -2.3478
 2985TIP3   OH230369   0.918   3.548  14.053  0.0315  0.2841  0.2108
 2985TIP3    H130370   0.897   3.484  14.120  0.3977  0.1882  0.2349
 2985TIP3    H230371   0.894   3.632  14.092 -1.2562  0.1069 -0.1380
 2986TIP3   OH230372   2.974   0.420   1.223  0.5557  0.3646  0.1988
 2986TIP3    H130373   2.887   0.420   1.262  0.7006  1.0045  0.5279
 2986TIP3    H230374   2.960   0.390   1.133 -0.2342  1.9721 -0.2363
 2987TIP3   OH230375   2.161   0.519  11.762  0.3771 -0.4185 -0.0647
 2987TIP3    H130376   2.179   0.479  11.678  2.2784  0.2206 -0.0128
 2987TIP3    H230377   2.147   0.446  11.822 -0.7320 -0.8746 -0.8500
 2988TIP3   OH230378   5.682   5.450  13.290 -0.5597  0.0481  0.0490
 2988TIP3    H130379   5.773   5.437  13.318 -0.3190  0.7021 -0.4039
 2988TIP3    H230380   5.685   5.528  13.234 -1.1466 -0.7397 -1.1311
 2989TIP3   OH230381   5.162   1.053   3.071 -0.4231  0.0520 -0.4653
 2989TIP3    H130382   5.162   1.020   2.981 -0.1683 -1.8245  0.1725
 2989TIP3    H230383   5.084   1.013   3.111 -0.3729  0.6259  0.2201
 2990TIP3   OH230384   3.055   2.878  13.500 -0.3497 -0.5433 -0.2463
 2990TIP3    H130385   2.975   2.881  13.552 -1.3139  0.0166 -1.7045
 2990TIP3    H230386   3.125   2.897  13.562 -1.5962  1.6180  0.5713
 2991TIP3   OH230387   5.640   5.325  12.183 -0.0385 -0.0048 -0.8574
 2991TIP3    H130388   5.588   5.389  12.135  0.4946  0.2973 -1.0371
 2991TIP3    H230389   5.695   5.377  12.241 -0.9272 -0.3676  0.3700
 2992TIP3   OH230390   6.449   0.817   0.325  0.6396 -0.1237  0.0906
 2992TIP3    H130391   6.412   0.905   0.315 -0.0932 -0.2034  1.7703
 2992TIP3    H230392   6.406   0.765   0.257 -1.3974  0.1004  1.1308
 2993TIP3   OH230393   1.187   3.161  17.339  0.6024  0.7829  0.4574
 2993TIP3    H130394   1.143   3.227  17.285 -0.0306  0.4909  0.5980
 2993TIP3    H230395   1.277   3.191  17.345  0.2056  1.9258  0.9693
 2994TIP3   OH230396   0.091   1.495   0.870  0.0456 -0.5038  0.1590
 2994TIP3    H130397   0.083   1.449   0.953  1.1713 -1.3956 -0.1965
 2994TIP3    H230398   0.171   1.547   0.879  0.4966 -1.0460 -0.5468
 2995TIP3   OH230399   0.858   3.340  11.094  0.3785 -0.0388 -0.5344
 2995TIP3    H130400   0.886   3.416  11.044  2.0133  0.2616  0.7676
 2995TIP3    H230401   0.918   3.270  11.068  0.7731 -0.0722  0.4216
 2996TIP3   OH230402   4.992   4.203  13.269 -0.5773 -0.4322 -0.0781
 2996TIP3    H130403   4.974   4.278  13.213  0.7022  0.7224  0.9652
 2996TIP3    H230404   4.959   4.229  13.355  1.4629 -0.2840  0.7110
 2997TIP3   OH230405   3.233   4.829  17.107 -0.3067 -0.4132 -0.0244
 2997TIP3    H130406   3.288   4.882  17.164  1.4963 -2.5948  0.4080
 2997TIP3    H230407   3.275   4.834  17.021  0.3501 -1.6639  0.1897
 2998TIP3   OH230408   2.348   1.929   1.956 -0.0377 -0.5277 -0.3833
 2998TIP3    H130409   2.275   1.897   2.008  0.8688  1.9995  2.7679
 2998TIP3    H230410   2.414   1.860   1.962 -0.7775 -1.2215 -0.0554
 2999TIP3   OH230411   5.430   6.696   0.759 -0.0336  0.0914 -0.0742
 2999TIP3    H130412   5.491   6.677   0.830  0.2854  0.6484 -0.1957
 2999TIP3    H230413   5.442   6.789   0.741  0.2441 -0.1452 -1.1901
 3000TIP3   OH230414   1.148   1.604   0.320  0.1884  0.2349 -0.0321
 3000TIP3    H130415   1.182   1.515   0.311 -1.8361 -0.6125  0.0953
 3000TIP3    H230416   1.062   1.593   0.360 -1.4345  1.9723 -2.7072
 3001TIP3   OH230417   6.665   4.585   1.810  0.1295 -0.0291  0.0275
 3001TIP3    H130418   6.720   4.509   1.792  0.8407  0.6791 -0.8725
 3001TIP3    H230419   6.686   4.609   1.900 -0.0603 -0.8539  0.2998
 3002TIP3   OH230420   0.921   1.333   1.889 -0.2317 -0.5696  0.7178
 3002TIP3    H130421   0.946   1.244   1.913 -0.2395 -0.5777  0.6950
 3002TIP3    H230422   0.840   1.349   1.937 -0.3854 -0.6779  0.4939
 3003TIP3   OH230423   4.737   4.592  16.402 -0.0444  0.1457  0.1615
 3003TIP3    H130424   4.802   4.644  16.448  0.3726 -1.0607  0.9997
 3003TIP3    H230425   4.784   4.554  16.328 -0.1108  0.2288  0.0765
 3004TIP3   OH230426   0.713   0.726  14.577  0.0004  0.4837  0.1055
 3004TIP3    H130427   0.798   0.767  14.563 -0.3727  1.2191 -0.0592
 3004TIP3    H230428   0.730   0.656  14.640  0.8425  0.1998 -0.4212
 3005TIP3   OH230429   5.623   2.531  13.280  0.0761 -0.1741 -0.2226
 3005TIP3    H130430   5.619   2.505  13.372  0.1733 -1.1454 -0.4757
 3005TIP3    H230431   5.628   2.448  13.232  2.0126  0.3473 -1.0117
 3006TIP3   OH230432   1.927   3.063   4.905  0.3023  0.2076  0.2706
 3006TIP3    H130433   1.917   3.112   4.987 -0.9065  1.0170 -0.3325
 3006TIP3    H230434   1.862   2.992   4.912  0.6791 -0.1372  0.3005
 3007TIP3   OH230435   5.655   2.881  16.760  0.5621 -0.5942 -0.4477
 3007TIP3    H130436   5.641   2.963  16.808 -2.0401 -1.8794  1.1794
 3007TIP3    H230437   5.591   2.884  16.689  0.9247 -0.9495 -0.7938
 3008TIP3   OH230438   2.344   2.497  11.828 -0.1212  0.0311 -0.4795
 3008TIP3    H130439   2.343   2.542  11.744  0.0476 -1.8548 -1.5236
 3008TIP3    H230440   2.415   2.433  11.821 -1.1319 -1.2518  0.4915
 3009TIP3   OH230441   0.120   0.047   4.484 -0.0165 -0.1950 -0.1477
 3009TIP3    H130442   0.072   0.058   4.566 -0.2547  1.6991 -0.4852
 3009TIP3    H230443   0.205   0.089   4.500 -0.9444  2.4820 -1.5481
 3010TIP3   OH230444   0.659   4.649   3.420  0.0959  0.2824 -0.0075
 3010TIP3    H130445   0.612   4.568   3.400  1.2393 -0.3207 -0.3322
 3010TIP3    H230446   0.620   4.680   3.502 -0.4939 -0.4734  0.0062
 3011TIP3   OH230447   0.266   3.977  12.164  0.2436  0.4475 -0.0498
 3011TIP3    H130448   0.286   4.014  12.078  0.0660  1.7742  0.4564
 3011TIP3    H230449   0.329   3.906  12.175  0.3631  0.3615 -1.2068
 3012TIP3   OH230450   5.326   3.305   1.782  0.1715  0.9108 -0.2241
 3012TIP3    H130451   5.237   3.339   1.793  0.0778  1.3852 -2.1277
 3012TIP3    H230452   5.339   3.246   1.856 -1.7685  0.7471  0.0186
 3013TIP3   OH230453   1.878   4.796   3.831 -0.4626 -0.4525  0.3143
 3013TIP3    H130454   1.917   4.741   3.900 -0.5107 -0.4223  0.3660
 3013TIP3    H230455   1.833   4.734   3.774 -2.3750 -0.2965  1.5620
 3014TIP3   OH230456   3.401   0.680  11.796  0.2986  0.3237  0.2559
 3014TIP3    H130457   3.335   0.708  11.859  1.6969 -0.7015  2.2726
 3014TIP3    H230458   3.368   0.597  11.761 -1.1427  1.5561 -1.5082
 3015TIP3   OH230459   3.355   5.700   0.980 -0.0099 -0.7712 -0.4888
 3015TIP3    H130460   3.357   5.605   0.989 -2.4815 -0.7803  0.6959
 3015TIP3    H230461   3.282   5.717   0.922 -0.2236  0.4411  0.1042
 3016TIP3   OH230462   6.646   0.938  11.369  0.7760  0.0373 -0.0287
 3016TIP3    H130463   6.678   1.001  11.434  0.4820  1.1965 -0.9812
 3016TIP3    H230464   6.722   0.883  11.350  0.6230 -1.0014  2.0066
 3017TIP3   OH230465   3.795   5.124  16.946  0.2278 -0.3969  0.0572
 3017TIP3    H130466   3.877   5.147  16.990 -1.2580 -1.1108  3.5372
 3017TIP3    H230467   3.821   5.103  16.857  3.6766  0.3462  0.7417
 3018TIP3   OH230468   3.229   3.719  11.126 -0.0230 -0.3812 -0.4121
 3018TIP3    H130469   3.311   3.680  11.097 -0.0177  0.3268 -1.4338
 3018TIP3    H230470   3.174   3.720  11.047 -0.3290  0.8285 -0.2043
 3019TIP3   OH230471   4.763   6.436   5.610  0.2928  0.2382  0.7400
 3019TIP3    H130472   4.737   6.488   5.534  1.6424 -2.7245 -2.0134
 3019TIP3    H230473   4.815   6.496   5.664  0.4273  2.1629 -1.3939
 3020TIP3   OH230474   6.410   4.963   2.083  0.1049  0.3708 -0.3276
 3020TIP3    H130475   6.361   5.001   2.010  0.8646  0.2316 -0.9290
 3020TIP3    H230476   6.347   4.957   2.155 -0.5989  0.7069 -0.9100
 3021TIP3   OH230477   6.712   2.578  11.863  0.7123 -0.0151  0.2682
 3021TIP3    H130478   6.678   2.649  11.917  1.8684  0.5207  0.3123
 3021TIP3    H230479   6.760   2.621  11.793 -1.4506 -0.6566 -1.7617
 3022TIP3   OH230480   0.916   5.609  12.772  0.3704 -0.0943 -0.2762
 3022TIP3    H130481   0.993   5.638  12.724  0.1036  0.7773 -0.1996
 3022TIP3    H230482   0.905   5.673  12.842 -1.0724  0.4651 -0.9666
 3023TIP3   OH230483   1.165   4.156   0.458  0.2706  0.1856  0.3647
 3023TIP3    H130484   1.218   4.234   0.441  0.1871  0.2995  0.6094
 3023TIP3    H230485   1.077   4.191   0.473 -0.1769 -0.1056 -1.3987
 3024TIP3   OH230486   5.601   4.893   3.540  0.3294  0.7270 -0.4253
 3024TIP3    H130487   5.575   4.864   3.452  1.4909 -1.1903 -0.2032
 3024TIP3    H230488   5.566   4.982   3.548 -2.0875 -0.0109 -1.8153
 3025TIP3   OH230489   5.259   5.995   0.359 -0.4864  0.6437 -0.1212
 3025TIP3    H130490   5.170   5.966   0.341  0.2232 -2.0213  0.1209
 3025TIP3    H230491   5.252   6.054   0.434 -1.9783 -0.0937  0.3458
 3026TIP3   OH230492   0.699   6.588   4.972 -0.1662 -0.3244 -0.1285
 3026TIP3    H130493   0.603   6.583   4.980 -0.2373  0.4692 -0.3995
 3026TIP3    H230494   0.716   6.559   4.882 -0.2098  0.1220 -0.2836
 3027TIP3   OH230495   2.194   5.726   4.549 -0.0254 -0.1917  0.0183
 3027TIP3    H130496   2.105   5.737   4.516  0.0931 -1.2271 -0.6946
 3027TIP3    H230497   2.197   5.779   4.629 -2.1380 -2.2820  1.5956
 3028TIP3   OH230498   0.973   6.194  13.898 -0.1942 -0.3631 -0.9008
 3028TIP3    H130499   1.022   6.119  13.930 -0.5224  0.9771  3.2770
 3028TIP3    H230500   1.039   6.250  13.856  0.7805 -1.1559 -0.4571
 3029TIP3   OH230501   6.592   5.675  13.662 -0.3229 -0.2326  0.0974
 3029TIP3    H130502   6.498   5.685  13.653 -0.2853 -0.2247 -0.2914
 3029TIP3    H230503   6.607   5.676  13.757 -1.0471 -3.1577  0.3408
 3030TIP3   OH230504   3.972   4.042   3.052 -0.2434 -0.0556  0.4666
 3030TIP3    H130505   4.025   4.009   2.980  1.4219 -0.5987  1.8752
 3030TIP3    H230506   3.931   3.964   3.089  1.0135 -0.1634  1.7078
 3031TIP3   OH230507   6.321   5.438   5.450 -0.5469 -0.6633  0.2019
 3031TIP3    H130508   6.281   5.366   5.401 -0.0516 -0.1633 -0.9961
 3031TIP3    H230509   6.329   5.406   5.540 -1.0584 -1.7995 -0.1478
 3032TIP3   OH230510   0.596   6.379  16.415  0.5268  0.7664 -0.0693
 3032TIP3    H130511   0.550   6.456  16.449 -2.0969 -0.3897 -0.7631
 3032TIP3    H230512   0.638   6.341  16.491 -0.7044  1.2288  0.8859
 3033TIP3   OH230513   1.268   0.432   1.214 -0.3039  0.2191 -0.3232
 3033TIP3    H130514   1.265   0.387   1.298 -0.4467  1.6517  0.4763
 3033TIP3    H230515   1.186   0.483   1.211 -0.4168  0.0033 -1.4390
 3034TIP3   OH230516   0.896   2.511  15.393  0.1619 -0.3262  0.3058
 3034TIP3    H130517   0.944   2.472  15.466  0.3379  2.4229  1.8024
 3034TIP3    H230518   0.808   2.473  15.399  0.7089 -1.5940  0.6856
 3035TIP3   OH230519   0.056   3.424   5.053  0.1538  0.2617  0.7908
 3035TIP3    H130520   0.091   3.492   5.110  1.5282 -0.2622  0.5928
 3035TIP3    H230521   0.124   3.357   5.051 -0.4893 -0.3812 -0.3184
 3036TIP3   OH230522   1.258   6.385   5.902 -0.5078  0.2763  0.5396
 3036TIP3    H130523   1.201   6.459   5.922  1.7497  1.8743  1.5241
 3036TIP3    H230524   1.331   6.394   5.963  1.7058 -0.5838 -1.7894
 3037TIP3   OH230525   2.085   1.618  11.535 -0.4298  0.0548 -0.1832
 3037TIP3    H130526   2.178   1.629  11.557 -0.0483  0.6269 -1.9651
 3037TIP3    H230527   2.084   1.585  11.445 -1.9609  0.6725 -0.4313
 3038TIP3   OH230528   2.039   3.064  15.188 -0.8898 -0.0448  0.2104
 3038TIP3    H130529   2.040   3.053  15.283 -1.1400 -1.2286  0.0976
 3038TIP3    H230530   2.043   2.974  15.154 -2.0590  0.2975 -0.8814
 3039TIP3   OH230531   2.377   2.539   4.731 -0.0213  0.3245 -0.4073
 3039TIP3    H130532   2.323   2.486   4.790  0.2063 -0.5157 -0.9244
 3039TIP3    H230533   2.438   2.585   4.788 -0.4506  0.2905  0.0832
 3040TIP3   OH230534   5.600   4.201  16.057 -0.5784 -0.0644 -0.1393
 3040TIP3    H130535   5.662   4.228  16.124 -2.2773  2.5257  0.5371
 3040TIP3    H230536   5.648   4.138  16.004  2.1780  0.8399  1.0921
 3041TIP3   OH230537   3.419   6.403  11.732  0.2937  0.3425 -0.0390
 3041TIP3    H130538   3.494   6.426  11.787  0.4741  1.1906 -0.6110
 3041TIP3    H230539   3.382   6.324  11.772  2.4759 -1.0853 -0.7104
 3042TIP3   OH230540   5.456   5.388   2.904  0.0208 -0.0128  0.0781
 3042TIP3    H130541   5.423   5.477   2.915 -0.1216 -0.1225  0.5502
 3042TIP3    H230542   5.449   5.371   2.810 -0.3384  0.3269  0.0438
 3043TIP3   OH230543   5.894   6.315  12.003 -0.5381 -0.2240  0.6182
 3043TIP3    H130544   5.894   6.371  11.925 -0.5091 -1.9192 -0.6566
 3043TIP3    H230545   5.839   6.362  12.066 -1.5021  0.6643 -0.8332
 3044TIP3   OH230546   3.056   0.335   2.911 -0.5511  0.1769  0.2184
 3044TIP3    H130547   3.031   0.263   2.853 -4.2599  1.0523  0.4940
 3044TIP3    H230548   3.083   0.405   2.852 -1.6399  0.1595 -0.3107
 3045TIP3   OH230549   1.708   3.441  14.953 -0.1231  0.9603 -0.6800
 3045TIP3    H130550   1.751   3.424  15.037  1.2945  1.3830 -1.2945
 3045TIP3    H230551   1.625   3.483  14.977 -0.8533 -1.0789  0.5769
 3046TIP3   OH230552   3.233   3.858  13.187  0.3323 -0.3332 -0.0520
 3046TIP3    H130553   3.184   3.847  13.105  1.0708  0.1905 -0.5778
 3046TIP3    H230554   3.197   3.792  13.246  1.7380 -2.7214 -1.6943
 3047TIP3   OH230555   2.359   2.553  16.645 -0.5724  0.8856  0.1755
 3047TIP3    H130556   2.315   2.535  16.729 -2.9535 -2.6349 -1.5858
 3047TIP3    H230557   2.295   2.606  16.596 -1.1581 -0.7319 -0.8886
 3048TIP3   OH230558   4.868   4.172  16.909  0.1030 -0.5228  0.7421
 3048TIP3    H130559   4.774   4.175  16.923 -0.2966  0.0131 -1.5611
 3048TIP3    H230560   4.901   4.256  16.941 -0.2343 -0.5995  1.2932
 3049TIP3   OH230561   4.880   1.703   4.147 -0.1492  0.1654  0.0311
 3049TIP3    H130562   4.920   1.642   4.085 -0.7325  0.4286 -0.6119
 3049TIP3    H230563   4.859   1.780   4.095  0.8463  1.0522  0.8839
 3050TIP3   OH230564   4.099   3.279   2.688 -0.1371  0.5207 -0.1683
 3050TIP3    H130565   4.052   3.287   2.605  1.7415  0.7776 -1.2779
 3050TIP3    H230566   4.080   3.190   2.718  0.8701 -0.4056 -2.0572
 3051TIP3   OH230567   6.444   6.649  14.535 -0.3339  0.1697 -0.3778
 3051TIP3    H130568   6.455   6.558  14.508  1.3910  0.1882  0.1180
 3051TIP3    H230569   6.351   6.658  14.552 -0.6049 -1.3754 -0.8846
 3052TIP3   OH230570   2.294   2.004   3.178 -0.3616 -0.1527 -0.0762
 3052TIP3    H130571   2.303   2.031   3.086  0.0166  0.5290  0.1537
 3052TIP3    H230572   2.367   2.047   3.223 -0.9135  0.0332  0.6588
 3053TIP3   OH230573   0.350   4.071   2.535 -0.1517 -0.6368  0.2528
 3053TIP3    H130574   0.402   3.999   2.499  0.9624  0.7233 -1.0041
 3053TIP3    H230575   0.266   4.031   2.556  0.4160 -2.2960 -0.4120
 3054TIP3   OH230576   4.227   3.806  13.334 -0.4863  0.2283  0.4384
 3054TIP3    H130577   4.273   3.814  13.251 -0.3732  3.2814  0.6729
 3054TIP3    H230578   4.143   3.764  13.312  0.0646 -0.1927 -0.9572
 3055TIP3   OH230579   1.354   3.199  16.176 -0.1117 -0.3083  0.1966
 3055TIP3    H130580   1.273   3.223  16.220  0.6295  1.9832  0.4761
 3055TIP3    H230581   1.420   3.256  16.217  1.3077 -0.9113 -1.1823
 3056TIP3   OH230582   2.316   3.784  15.711 -0.4946  0.3509 -0.6079
 3056TIP3    H130583   2.369   3.733  15.650  0.1384  1.6636 -1.2004
 3056TIP3    H230584   2.332   3.744  15.796 -0.5966 -0.8788 -1.1473
 3057TIP3   OH230585   1.883   2.009  16.941  0.7991 -0.3526 -0.2130
 3057TIP3    H130586   1.969   2.047  16.920  0.0423  0.8228 -1.2958
 3057TIP3    H230587   1.821   2.080  16.928 -0.2903 -0.9332  1.3918
 3058TIP3   OH230588   1.641   4.568  15.187 -0.0379 -0.1545 -0.0110
 3058TIP3    H130589   1.722   4.546  15.140  0.4004  2.8084 -0.8579
 3058TIP3    H230590   1.571   4.544  15.126  0.4697  2.0768 -1.5781
 3059TIP3   OH230591   2.836   4.209  12.664  0.5500 -0.7205 -0.1663
 3059TIP3    H130592   2.848   4.301  12.687 -1.5287  0.3174 -2.6995
 3059TIP3    H230593   2.869   4.203  12.574 -0.4075 -2.1496 -0.4537
 3060TIP3   OH230594   4.500   3.195   1.823 -0.2961 -0.3772 -0.0557
 3060TIP3    H130595   4.466   3.284   1.813  0.5751 -0.0736 -0.4084
 3060TIP3    H230596   4.480   3.152   1.739  0.6130 -0.0443 -0.4537
 3061TIP3   OH230597   2.446   4.335  14.847 -0.3627  0.7454  0.2405
 3061TIP3    H130598   2.474   4.425  14.866 -1.6128  1.1418  0.2559
 3061TIP3    H230599   2.460   4.324  14.753  0.3571  0.7426  0.3416
 3062TIP3   OH230600   6.388   0.208  10.835  0.4564 -0.0315 -0.3281
 3062TIP3    H130601   6.298   0.211  10.868  0.2906  0.0954 -0.7796
 3062TIP3    H230602   6.391   0.126  10.784  0.9828 -0.7027  0.7602
 3063TIP3   OH230603   4.628   2.982   1.596 -0.4579 -0.0055 -0.5061
 3063TIP3    H130604   4.639   2.937   1.512 -1.4783  1.3610 -1.4101
 3063TIP3    H230605   4.536   3.011   1.596 -0.4747  0.0326  1.0809
 3064TIP3   OH230606   5.454   5.938  12.242  0.4533  0.0489  0.6554
 3064TIP3    H130607   5.384   5.999  12.262 -0.1038 -0.7228  1.1270
 3064TIP3    H230608   5.442   5.866  12.304 -0.3574 -1.6769 -1.3672
 3065TIP3   OH230609   4.824   3.022  15.189  0.5686 -0.0247 -0.0846
 3065TIP3    H130610   4.858   2.960  15.124  2.7125  0.8925  0.0980
 3065TIP3    H230611   4.899   3.041  15.245 -0.4879  1.4631  0.8684
 3066TIP3   OH230612   3.735   3.033  17.322 -0.2639 -0.0919  0.1146
 3066TIP3    H130613   3.813   2.989  17.287  1.0793  1.9861  0.3689
 3066TIP3    H230614   3.751   3.037  17.416 -0.5427  0.5857  0.1358
 3067TIP3   OH230615   2.606   6.521  11.828  0.2211  0.7177  0.0491
 3067TIP3    H130616   2.617   6.494  11.737  2.2765  0.9011  0.1904
 3067TIP3    H230617   2.534   6.466  11.861  1.3530 -1.4669 -0.8935
 3068TIP3   OH230618   3.682   0.873   2.088 -0.2916  0.3150  0.3383
 3068TIP3    H130619   3.608   0.909   2.039 -1.3771 -0.7303  1.1370
 3068TIP3    H230620   3.755   0.932   2.069 -1.9370  2.9077  1.5231
 3069TIP3   OH230621   6.638   0.760  15.135  0.1775  0.4870 -0.4008
 3069TIP3    H130622   6.628   0.854  15.118  0.6710  0.6349  0.0936
 3069TIP3    H230623   6.728   0.751  15.168 -0.1913 -0.0101  0.5089
 3070TIP3   OH230624   0.146   4.965  16.480 -0.4270  0.1653  0.4855
 3070TIP3    H130625   0.238   4.966  16.503 -0.1522 -0.0541 -0.5431
 3070TIP3    H230626   0.112   5.049  16.511  0.3177  0.6138  0.1091
 3071TIP3   OH230627   0.581   6.007   5.151  0.0789 -0.5286 -0.3443
 3071TIP3    H130628   0.676   5.995   5.147 -0.1798 -3.0227 -0.7396
 3071TIP3    H230629   0.565   6.048   5.236  1.5437  0.8300 -0.6755
 3072TIP3   OH230630   4.164   2.859   1.898  0.1671 -0.2876  0.1513
 3072TIP3    H130631   4.217   2.783   1.874  0.9477 -0.8211  3.1694
 3072TIP3    H230632   4.078   2.822   1.918  0.6377 -0.4960  1.9423
 3073TIP3   OH230633   0.608   5.747  13.885 -0.3807  0.7585 -0.3254
 3073TIP3    H130634   0.608   5.656  13.855  1.7154  0.1704  1.1961
 3073TIP3    H230635   0.648   5.796  13.814 -0.0548  0.2271 -0.5124
 3074TIP3   OH230636   4.705   0.004   4.874  0.5312  0.4990 -0.0274
 3074TIP3    H130637   4.774   0.017   4.939 -0.4378  1.2573  0.8834
 3074TIP3    H230638   4.721   0.071   4.808 -0.0220  1.4698  0.8023
 3075TIP3   OH230639   5.892   0.050  16.119  0.4220  0.5891 -0.2567
 3075TIP3    H130640   5.862   0.058  16.210  1.0914 -3.9516  0.5817
 3075TIP3    H230641   5.817   0.013  16.072  1.3416 -0.9224 -0.5697
 3076TIP3   OH230642   0.359   4.085   4.387 -1.0309  0.3910 -0.3152
 3076TIP3    H130643   0.383   4.159   4.443 -0.4255  0.2355 -0.3670
 3076TIP3    H230644   0.264   4.091   4.380 -1.3119 -0.3915  1.8666
 3077TIP3   OH230645   6.156   4.954  12.197 -0.4395  0.1609  0.4867
 3077TIP3    H130646   6.119   4.866  12.190 -2.3827  0.8336  1.4632
 3077TIP3    H230647   6.117   5.002  12.125  1.2321  0.0775 -0.5244
 3078TIP3   OH230648   2.393   1.090   5.660  0.0638  0.0566 -0.0869
 3078TIP3    H130649   2.456   1.019   5.673  0.1571  0.0298 -0.6511
 3078TIP3    H230650   2.413   1.153   5.729  0.4105 -0.1616  0.0154
 3079TIP3   OH230651   3.742   6.682   5.184  0.8791  0.3712 -0.1973
 3079TIP3    H130652   3.653   6.666   5.216  1.2282  0.8808  1.1311
 3079TIP3    H230653   3.733   6.751   5.119  0.1499 -0.5971 -1.1687
 3080TIP3   OH230654   4.509   2.934  11.904 -0.2275 -0.6981 -0.0239
 3080TIP3    H130655   4.555   2.904  11.826  1.4138 -1.4623  1.1776
 3080TIP3    H230656   4.494   2.855  11.955 -0.1939 -0.0706  0.9859
 3081TIP3   OH230657   1.347   4.678  14.558  0.3545 -0.3259 -0.4192
 3081TIP3    H130658   1.313   4.696  14.470  0.2669  0.9597 -0.1448
 3081TIP3    H230659   1.274   4.699  14.617  0.4609 -1.0331 -0.0259
 3082TIP3   OH230660   1.527   2.468   1.262 -0.1498  0.0401  0.3382
 3082TIP3    H130661   1.466   2.480   1.335 -1.2237 -0.1360 -0.5008
 3082TIP3    H230662   1.542   2.556   1.228 -0.8959 -0.0400 -0.2054
 3083TIP3   OH230663   5.796   2.238   1.464 -0.7217  0.0473 -0.3266
 3083TIP3    H130664   5.797   2.176   1.538 -1.5904  0.0630 -0.2919
 3083TIP3    H230665   5.783   2.323   1.505  0.1850  0.2213 -0.3982
 3084TIP3   OH230666   1.415   4.853   4.413  0.3506  0.1379 -0.3518
 3084TIP3    H130667   1.507   4.866   4.436  0.2564 -0.5073  0.4108
 3084TIP3    H230668   1.407   4.893   4.326  1.4777 -0.3085 -0.6835
 3085TIP3   OH230669   1.324   5.738   1.431  0.2270 -0.8103 -0.2304
 3085TIP3    H130670   1.274   5.809   1.473  0.0433 -1.1065  0.0562
 3085TIP3    H230671   1.413   5.773   1.423  0.2631 -0.7415  0.3948
 3086TIP3   OH230672   2.696   5.387   3.179 -0.2566 -0.0413  0.6317
 3086TIP3    H130673   2.691   5.294   3.157 -0.3855 -0.0373  0.6450
 3086TIP3    H230674   2.605   5.416   3.184 -0.2353  0.8079 -2.3350
 3087TIP3   OH230675   6.676   6.274  13.070 -0.0575 -0.2943 -0.3182
 3087TIP3    H130676   6.673   6.212  12.997 -3.3232  0.4429 -0.9779
 3087TIP3    H230677   6.615   6.237  13.134  1.0456  0.2367  1.0920
 3088TIP3   OH230678   2.336   3.490  15.865 -0.2196  0.1672 -0.2680
 3088TIP3    H130679   2.378   3.502  15.780  1.2601  0.1759  0.4279
 3088TIP3    H230680   2.347   3.575  15.909  0.5680 -0.3496  0.5639
 3089TIP3   OH230681   5.876   4.399  15.956 -0.5345 -0.5089 -0.9446
 3089TIP3    H130682   5.822   4.462  15.908 -1.9101 -0.0798  1.0200
 3089TIP3    H230683   5.850   4.411  16.048  0.7540 -2.4306 -0.2690
 3090TIP3   OH230684   1.407   6.120  12.910 -0.2984  0.1359 -0.1336
 3090TIP3    H130685   1.441   6.051  12.854 -3.1327 -0.9792 -0.6660
 3090TIP3    H230686   1.427   6.091  12.999  0.5818 -0.1857 -0.4315
 3091TIP3   OH230687   6.696   0.149   0.655  0.2586 -0.0280 -0.3554
 3091TIP3    H130688   6.678   0.213   0.724 -2.0170  0.3140 -1.1788
 3091TIP3    H230689   6.742   0.200   0.587 -0.1990  0.3748 -0.3663
 3092TIP3   OH230690   1.130   3.938   5.601  0.0251  0.5434  0.2384
 3092TIP3    H130691   1.111   3.893   5.684  2.8950  0.7225  1.1116
 3092TIP3    H230692   1.058   3.999   5.590 -0.7579  0.0878  2.3153
 3093TIP3   OH230693   2.099   5.334  16.118 -0.0677  0.0938  0.6325
 3093TIP3    H130694   2.115   5.241  16.104  4.3783  0.5778  1.0182
 3093TIP3    H230695   2.106   5.373  16.031  2.7330  0.4046  0.8834
 3094TIP3   OH230696   6.742   0.554   1.693  0.4066  0.3480 -0.0572
 3094TIP3    H130697   6.653   0.581   1.673  0.8215  1.0267 -1.0655
 3094TIP3    H230698   6.764   0.601   1.773  0.1102  0.7377 -0.2030
 3095TIP3   OH230699   5.595   5.770  16.925  0.4629  0.4811  0.3454
 3095TIP3    H130700   5.637   5.827  16.990  0.1624  3.5996 -1.9839
 3095TIP3    H230701   5.669   5.731  16.877  0.7579  2.0851 -0.5693
 3096TIP3   OH230702   5.575   3.483   3.169 -0.8133  0.2001  0.0155
 3096TIP3    H130703   5.605   3.404   3.214  1.7994 -0.2695 -2.2638
 3096TIP3    H230704   5.602   3.555   3.227  2.2416 -0.3979 -0.4797
 3097TIP3   OH230705   4.279   6.303  17.141 -1.1715 -0.0907  0.1158
 3097TIP3    H130706   4.361   6.260  17.168  0.4833  0.6078 -3.1947
 3097TIP3    H230707   4.284   6.390  17.180 -1.3416 -0.6927  1.5364
 3098TIP3   OH230708   4.045   1.781   2.032 -0.2857 -1.0070 -0.2273
 3098TIP3    H130709   4.002   1.830   1.962 -1.3649  1.0122  1.7014
 3098TIP3    H230710   4.114   1.840   2.062  0.7713 -2.2379 -0.1800
 3099TIP3   OH230711   4.605   3.792  12.017 -0.6327 -0.1846  0.3053
 3099TIP3    H130712   4.697   3.803  11.993 -0.5412 -2.1643 -0.4931
 3099TIP3    H230713   4.608   3.760  12.108 -0.3550 -2.1308 -0.3355
 3100TIP3   OH230714   3.774   1.875  15.840 -0.2526  0.1047 -0.1614
 3100TIP3    H130715   3.866   1.866  15.815  0.4346  3.4548  0.6110
 3100TIP3    H230716   3.776   1.927  15.921 -2.8139 -0.7769  0.5812
 3101TIP3   OH230717   2.416   6.227  14.532  0.3770 -0.0562  0.0116
 3101TIP3    H130718   2.364   6.187  14.463  1.9255 -2.1738 -0.0262
 3101TIP3    H230719   2.469   6.293  14.487 -1.1186  1.0602 -0.1858
 3102TIP3   OH230720   3.533   0.613   1.983 -0.0931  0.3048  0.0954
 3102TIP3    H130721   3.511   0.596   2.075 -0.4393 -0.9313 -0.2066
 3102TIP3    H230722   3.597   0.684   1.988 -0.3026  0.4417  1.2789
 3103TIP3   OH230723   6.440   3.174   2.973 -0.2865 -0.0296 -0.0915
 3103TIP3    H130724   6.520   3.164   2.921 -0.7480  1.6643 -1.2043
 3103TIP3    H230725   6.369   3.162   2.911 -0.8739  0.4880  0.4657
 3104TIP3   OH230726   0.558   5.328   2.645 -1.2189  0.1536 -0.4739
 3104TIP3    H130727   0.636   5.296   2.689 -1.0977  0.9058 -0.1268
 3104TIP3    H230728   0.591   5.369   2.565 -1.2707  0.3658 -0.3859
 3105TIP3   OH230729   1.313   3.647  15.617 -0.2527 -0.5373 -0.1493
 3105TIP3    H130730   1.303   3.565  15.666 -1.7082 -0.7484 -0.7377
 3105TIP3    H230731   1.233   3.697  15.639 -0.5202 -0.2786 -1.6220
 3106TIP3   OH230732   4.452   1.063  15.853  0.6334 -0.3889 -0.3433
 3106TIP3    H130733   4.533   1.102  15.821  1.0251 -1.2663 -0.4444
 3106TIP3    H230734   4.479   0.979  15.892 -0.1241 -0.3541  0.2905
 3107TIP3   OH230735   2.538   1.398   1.453 -0.8514 -0.3948  1.0202
 3107TIP3    H130736   2.612   1.375   1.397  1.1044  3.2214  1.8433
 3107TIP3    H230737   2.527   1.321   1.509  0.4861 -2.0739 -0.8477
 3108TIP3   OH230738   0.155   0.687  13.049 -0.7201  0.1381 -0.1737
 3108TIP3    H130739   0.080   0.626  13.048  0.1135 -0.9251 -1.8245
 3108TIP3    H230740   0.229   0.633  13.077 -0.2498  0.7657 -0.1971
 3109TIP3   OH230741   2.116   2.667   2.514 -0.3356  0.3564  0.6116
 3109TIP3    H130742   2.129   2.580   2.475  2.3983  0.6663  0.6815
 3109TIP3    H230743   2.029   2.693   2.484  0.2234 -0.8716 -2.4799
 3110TIP3   OH230744   1.849   4.967   1.393  0.1518 -0.0578 -0.0443
 3110TIP3    H130745   1.914   5.025   1.354  0.9311 -0.8882 -0.0256
 3110TIP3    H230746   1.899   4.911   1.453 -0.7877  0.1525  0.9713
 3111TIP3   OH230747   2.170   0.949   5.645 -0.0871 -0.3795 -0.3115
 3111TIP3    H130748   2.221   1.027   5.663  0.5073 -1.4203  3.2428
 3111TIP3    H230749   2.216   0.906   5.572  2.8943 -0.1557  1.2818
 3112TIP3   OH230750   4.444   6.512  13.842 -0.1543  0.1748 -0.5250
 3112TIP3    H130751   4.422   6.606  13.844  1.2057  0.5147  0.1464
 3112TIP3    H230752   4.488   6.499  13.758 -0.0166  0.2224 -0.4606
 3113TIP3   OH230753   4.239   5.650   2.608 -0.1326 -0.0581  0.2324
 3113TIP3    H130754   4.305   5.656   2.677 -1.1381 -0.7980  1.3224
 3113TIP3    H230755   4.288   5.647   2.526  1.1636 -0.3951  0.9993
 3114TIP3   OH230756   1.872   4.919   6.000  0.0852  0.2725  0.1116
 3114TIP3    H130757   1.947   4.883   6.047  0.1156 -0.6374 -0.6080
 3114TIP3    H230758   1.850   4.852   5.936  0.2439  1.6040 -1.4000
 3115TIP3   OH230759   0.725   4.199  13.178  0.1033 -0.1796 -0.2782
 3115TIP3    H130760   0.811   4.164  13.202  1.3537  1.8568 -1.5206
 3115TIP3    H230761   0.689   4.135  13.117  2.8154  1.0196 -3.3802
 3116TIP3   OH230762   3.379   5.203  12.048  0.7362 -0.2462  0.2239
 3116TIP3    H130763   3.310   5.143  12.077  0.0973  0.1142 -0.5287
 3116TIP3    H230764   3.358   5.221  11.957  1.1562  0.8153  0.3291
 3117TIP3   OH230765   0.706   4.360  12.320  0.4500 -0.2772 -0.1754
 3117TIP3    H130766   0.773   4.292  12.319 -0.6892 -1.4521  0.3505
 3117TIP3    H230767   0.687   4.373  12.413 -0.8368 -0.7703 -0.3577
 3118TIP3   OH230768   4.982   4.769  13.403 -0.1498 -0.5290 -0.0076
 3118TIP3    H130769   5.073   4.792  13.424 -0.2857  0.8941 -0.8546
 3118TIP3    H230770   4.929   4.825  13.459 -0.4970 -0.3927 -0.4603
 3119TIP3   OH230771   1.372   6.227  13.828  0.7832 -0.1391 -0.6106
 3119TIP3    H130772   1.295   6.275  13.796 -2.0950 -2.5744  2.0522
 3119TIP3    H230773   1.397   6.171  13.754 -0.5042  0.1439 -1.2959
 3120TIP3   OH230774   5.748   0.373  11.638 -0.0377 -0.3663 -0.3796
 3120TIP3    H130775   5.701   0.456  11.629 -0.9401 -0.9507 -1.2812
 3120TIP3    H230776   5.709   0.316  11.572  1.0205 -1.3090 -0.2209
 3121TIP3   OH230777   0.877   0.377  13.849 -0.4728 -0.4285 -0.5830
 3121TIP3    H130778   0.833   0.411  13.926 -1.1082 -1.0077 -0.6797
 3121TIP3    H230779   0.807   0.337  13.797 -0.4751  1.8742 -2.5528
 3122TIP3   OH230780   5.135   5.814  16.839 -0.2720  0.4559 -0.1171
 3122TIP3    H130781   5.138   5.727  16.799  0.5652  0.1910  0.4897
 3122TIP3    H230782   5.121   5.873  16.765 -0.5177 -0.1650 -0.5810
 3123TIP3   OH230783   1.820   5.353  16.834 -0.1222  0.1908 -0.4643
 3123TIP3    H130784   1.829   5.446  16.813  2.1696  0.5727  1.6614
 3123TIP3    H230785   1.874   5.308  16.768  0.7046  0.6155 -0.0850
 3124TIP3   OH230786   6.742   1.858   5.587 -0.0533 -0.2960  0.2575
 3124TIP3    H130787   6.676   1.825   5.526 -0.5607 -1.0300  1.1737
 3124TIP3    H230788   6.712   1.829   5.673  0.2651  1.3244  0.9538
 3125TIP3   OH230789   3.978   2.542   3.698  0.6415  0.5578 -0.3018
 3125TIP3    H130790   4.045   2.489   3.655  0.6582  1.2069 -1.1178
 3125TIP3    H230791   3.946   2.600   3.628 -0.4813  0.5322  0.1785
 3126TIP3   OH230792   4.345   6.572   3.980 -0.3263 -0.5140 -0.0689
 3126TIP3    H130793   4.383   6.633   3.916  0.3630 -0.8136  0.0417
 3126TIP3    H230794   4.368   6.609   4.065  0.4186 -1.1049  0.0017
 3127TIP3   OH230795   6.301   1.839  16.096  0.0764  0.2790  0.7601
 3127TIP3    H130796   6.338   1.904  16.037 -1.0407 -0.0054 -0.2818
 3127TIP3    H230797   6.374   1.779  16.114 -0.0252 -0.8027 -1.9763
 3128TIP3   OH230798   5.297   3.849   4.349 -0.3281 -0.7094  0.6998
 3128TIP3    H130799   5.312   3.763   4.311 -2.5183 -0.4265 -1.0697
 3128TIP3    H230800   5.338   3.910   4.287 -1.3934 -0.3809  0.2894
 3129TIP3   OH230801   2.645   1.314   0.965  0.3955  0.2159 -0.2447
 3129TIP3    H130802   2.737   1.337   0.958  0.2041  1.0289 -0.2489
 3129TIP3    H230803   2.622   1.278   0.880  0.9321 -0.8579  0.0581
 3130TIP3   OH230804   5.943   5.050  15.039  0.3471 -0.6597  0.1750
 3130TIP3    H130805   5.989   4.966  15.044 -0.3996 -1.0223  1.9296
 3130TIP3    H230806   5.853   5.029  15.065 -0.2585  0.4157 -0.9843
 3131TIP3   OH230807   5.261   0.342  15.348 -0.5271  0.4625  0.3519
 3131TIP3    H130808   5.197   0.285  15.389  0.1980  0.9447  2.2582
 3131TIP3    H230809   5.304   0.288  15.282 -0.3844 -0.9564  1.5778
 3132TIP3   OH230810   3.759   6.443   0.478 -0.0820  0.3172 -0.0753
 3132TIP3    H130811   3.777   6.486   0.562 -1.8298  0.7001  0.1236
 3132TIP3    H230812   3.665   6.429   0.478  0.1971 -1.8246 -0.9701
 3133TIP3   OH230813   4.541   0.740  10.606  0.5911 -0.2481  0.2032
 3133TIP3    H130814   4.560   0.785  10.523  2.9965 -2.1541 -0.4045
 3133TIP3    H230815   4.460   0.779  10.636 -0.1211  0.8867 -2.8089
 3134TIP3   OH230816   6.351   5.104  15.435  0.0172  0.0719 -0.0052
 3134TIP3    H130817   6.369   5.197  15.420  2.1825 -0.2453  0.2186
 3134TIP3    H230818   6.266   5.089  15.394 -0.3195  2.1095 -0.1757
 3135TIP3   OH230819   3.277   3.552   4.606 -0.5260  0.2340  0.3738
 3135TIP3    H130820   3.261   3.557   4.700 -1.0281  0.4103  0.2854
 3135TIP3    H230821   3.346   3.487   4.596 -0.4011  0.2880  0.8699
 3136TIP3   OH230822   2.512   6.394   5.988 -0.0544 -0.0576  0.7411
 3136TIP3    H130823   2.483   6.396   6.079  0.6161  0.4344  0.9482
 3136TIP3    H230824   2.491   6.482   5.954 -1.7509 -0.7253 -0.0486
 3137TIP3   OH230825   6.206   6.214   5.457  0.4106 -0.6631  0.7290
 3137TIP3    H130826   6.175   6.124   5.459  0.4512 -0.6679  1.7339
 3137TIP3    H230827   6.127   6.267   5.473  0.3839 -0.5217  0.1242
 3138TIP3   OH230828   5.997   2.168   2.845 -0.4002 -0.0205 -0.1635
 3138TIP3    H130829   6.008   2.092   2.788 -2.1001 -1.0352  0.7821
 3138TIP3    H230830   6.073   2.164   2.904 -0.0556 -0.5185 -0.6314
 3139TIP3   OH230831   4.928   0.848   0.045  0.1018 -0.5640 -0.3610
 3139TIP3    H130832   4.974   0.932   0.053 -1.5787  0.3824 -0.1440
 3139TIP3    H230833   4.930   0.829  -0.048  1.0726 -0.6391 -0.3374
 3140TIP3   OH230834   5.402   3.393   6.047  0.0889 -0.1272  0.4263
 3140TIP3    H130835   5.315   3.430   6.032  0.6460  1.3021  0.5755
 3140TIP3    H230836   5.459   3.469   6.058  1.1518 -1.0341  1.5447
 3141TIP3   OH230837   6.582   0.972  13.691  0.4385  0.3983  0.5127
 3141TIP3    H130838   6.509   0.989  13.749  0.1299  0.4705  0.1071
 3141TIP3    H230839   6.602   1.056  13.650 -0.1385  0.1159 -0.3890
 3142TIP3   OH230840   5.693   5.620   4.106  0.2150  0.0551 -0.0767
 3142TIP3    H130841   5.636   5.578   4.170  0.2085 -1.3635 -0.9664
 3142TIP3    H230842   5.770   5.648   4.156 -0.6828  0.8451  0.8994
 3143TIP3   OH230843   5.642   2.724  15.467  0.7041  0.1123 -0.2456
 3143TIP3    H130844   5.640   2.820  15.472  1.1021  0.1484 -0.7375
 3143TIP3    H230845   5.688   2.697  15.547 -0.1787  0.2817  0.3358
 3144TIP3   OH230846   0.663   1.578  15.353 -0.0070  0.4969  0.2469
 3144TIP3    H130847   0.687   1.568  15.445  2.4241  2.9382  0.0479
 3144TIP3    H230848   0.739   1.623  15.314 -1.7273  1.2536 -2.5154
 3145TIP3   OH230849   0.782   1.271   3.680  0.1805 -0.2071  0.6850
 3145TIP3    H130850   0.819   1.204   3.623  0.9272 -0.5885  1.5768
 3145TIP3    H230851   0.707   1.228   3.722 -0.7173  0.2571 -0.4117
 3146TIP3   OH230852   0.220   0.776   1.786  0.0582  0.0904  0.0065
 3146TIP3    H130853   0.248   0.721   1.860  0.6460  1.2865  0.7036
 3146TIP3    H230854   0.278   0.852   1.790 -0.9527  0.9198 -0.7279
 3147TIP3   OH230855   6.548   3.237   6.600 -0.6389 -0.1701  0.7287
 3147TIP3    H130856   6.480   3.170   6.589 -0.5690 -0.1008 -0.1424
 3147TIP3    H230857   6.601   3.231   6.521  0.4683 -0.3138  1.4619
 3148TIP3   OH230858   1.239   5.632  14.947 -0.0011  0.3034  0.1551
 3148TIP3    H130859   1.196   5.629  15.032 -1.5857 -0.3678 -0.6060
 3148TIP3    H230860   1.327   5.665  14.964 -0.7951  1.6853  1.8224
 3149TIP3   OH230861   6.519   3.375  16.491 -0.3422 -0.1522  0.5878
 3149TIP3    H130862   6.475   3.319  16.427 -0.7088  1.2057 -0.3974
 3149TIP3    H230863   6.583   3.425  16.440  0.0799  0.2378  1.4621
 3150TIP3   OH230864   6.147   1.470   0.919 -0.6378 -0.0319  0.3084
 3150TIP3    H130865   6.208   1.413   0.966 -1.0686  0.3862  1.3873
 3150TIP3    H230866   6.194   1.552   0.908  0.4735 -0.8997 -2.3558
 3151TIP3   OH230867   3.546   5.940   5.798  0.8857  0.3764 -0.3293
 3151TIP3    H130868   3.505   6.026   5.803  1.1706  0.4899  0.0751
 3151TIP3    H230869   3.545   5.908   5.888  2.8779  0.9348 -0.0648
 3152TIP3   OH230870   5.088   2.385   6.864  0.2584  0.7800  0.0273
 3152TIP3    H130871   5.112   2.324   6.794  0.8441  0.4307  0.5246
 3152TIP3    H230872   5.104   2.472   6.826 -0.6760  0.6342 -0.7175
 3153TIP3   OH230873   2.701   5.707  11.090  0.1056 -0.0526  0.0341
 3153TIP3    H130874   2.693   5.697  11.184  0.0375 -0.3869 -0.0053
 3153TIP3    H230875   2.620   5.669  11.055 -0.0186  0.3679 -0.1400
 3154TIP3   OH230876   2.967   4.234   3.288  0.7045  0.1436  0.6518
 3154TIP3    H130877   2.998   4.298   3.225  1.2780  1.1940  1.9513
 3154TIP3    H230878   2.879   4.264   3.312  0.2417 -0.5905 -0.0624
 3155TIP3   OH230879   4.231   1.489  17.211  0.0816 -0.3476 -0.3018
 3155TIP3    H130880   4.255   1.535  17.292 -2.1120  0.3500  0.0366
 3155TIP3    H230881   4.158   1.540  17.176 -0.9662 -2.3053 -1.1316
 3156TIP3   OH230882   5.375   3.086  13.285  0.2487 -0.0107 -0.3610
 3156TIP3    H130883   5.418   3.031  13.351 -1.1266  0.0429  0.6058
 3156TIP3    H230884   5.389   3.039  13.203  1.9055 -0.1290 -0.0504
 3157TIP3   OH230885   5.142   0.614  14.272  0.4075  0.6062  0.0593
 3157TIP3    H130886   5.135   0.537  14.328  0.5965  0.1709 -0.5046
 3157TIP3    H230887   5.219   0.597  14.218  1.8160  2.2033  1.4667
 3158TIP3   OH230888   0.892   4.061  11.217 -0.0884  0.3315 -0.1419
 3158TIP3    H130889   0.865   4.004  11.289 -2.1749  1.4804  0.0803
 3158TIP3    H230890   0.880   4.008  11.138 -0.5729 -0.0123  0.1570
 3159TIP3   OH230891   6.236   3.938  17.095  0.8757 -0.3008 -0.8814
 3159TIP3    H130892   6.147   3.919  17.124  0.6953 -1.3411 -2.0625
 3159TIP3    H230893   6.242   4.034  17.099 -0.0941 -0.2480 -0.2648
 3160TIP3   OH230894   2.551   2.561  10.568 -0.5764 -0.1766  0.1887
 3160TIP3    H130895   2.503   2.576  10.649 -0.0162 -1.7860  0.8611
 3160TIP3    H230896   2.485   2.567  10.499 -1.1137  0.8901  0.7807
 3161TIP3   OH230897   5.579   3.990  17.166  0.1045 -0.0347  0.1723
 3161TIP3    H130898   5.571   3.905  17.209 -1.3663 -0.5085 -0.9664
 3161TIP3    H230899   5.666   4.022  17.191  1.0211 -2.2257 -0.0064
 3162TIP3   OH230900   2.758   3.136  14.985  1.2672  0.0780  0.5658
 3162TIP3    H130901   2.848   3.138  14.951  1.4376 -2.4848  0.6881
 3162TIP3    H230902   2.722   3.053  14.953 -0.7131  0.5401  1.4404
 3163TIP3   OH230903   6.608   4.697  15.506  0.0644  0.4047 -0.1380
 3163TIP3    H130904   6.577   4.655  15.426 -1.5345 -0.4018  0.8446
 3163TIP3    H230905   6.656   4.628  15.552 -0.3805  0.3906  0.3132
 3164TIP3   OH230906   6.083   2.800  16.694 -0.7323  0.0840  0.1476
 3164TIP3    H130907   6.131   2.875  16.658 -2.2196  0.2760 -1.5523
 3164TIP3    H230908   6.105   2.800  16.787  3.5157 -0.5645 -0.6200
 3165TIP3   OH230909   1.148   1.639  16.953 -0.1758 -0.6189 -1.0759
 3165TIP3    H130910   1.096   1.559  16.949 -1.5794  0.1820  0.0339
 3165TIP3    H230911   1.084   1.709  16.968  1.2349  0.2962  1.4213
 3166TIP3   OH230912   3.596   2.797   2.120  0.4026 -0.8139  0.6083
 3166TIP3    H130913   3.607   2.729   2.188 -0.5111 -0.5145  1.0726
 3166TIP3    H230914   3.676   2.848   2.125  1.1965 -1.9588  0.1269
 3167TIP3   OH230915   1.262   2.675  12.801 -0.5155  0.1346  0.6060
 3167TIP3    H130916   1.177   2.716  12.793 -0.4839  0.3219  1.1881
 3167TIP3    H230917   1.287   2.654  12.711  0.0772  2.6034  0.1231
 3168TIP3   OH230918   2.168   3.244  17.090 -0.1134 -0.4496  0.0979
 3168TIP3    H130919   2.193   3.192  17.166  2.0076 -1.5562 -1.2390
 3168TIP3    H230920   2.140   3.180  17.025 -3.4473  0.5599  0.3450
 3169TIP3   OH230921   2.479   2.669   4.487  0.1409 -0.0442 -0.1330
 3169TIP3    H130922   2.409   2.647   4.425 -1.6933  2.4887  0.8688
 3169TIP3    H230923   2.456   2.622   4.567 -0.0699  0.2932  0.0056
 3170TIP3   OH230924   3.526   5.692  11.205 -0.1803 -0.0902  0.5087
 3170TIP3    H130925   3.433   5.692  11.183  0.1372 -0.7804 -0.9850
 3170TIP3    H230926   3.562   5.764  11.153  0.2060 -0.1929  0.6340
 3171TIP3   OH230927   0.231   1.548  12.029  0.3404 -0.1246  0.4891
 3171TIP3    H130928   0.318   1.513  12.007  0.2070 -1.2673  1.6474
 3171TIP3    H230929   0.232   1.637  11.995  1.4721 -0.5626 -0.7206
 3172TIP3   OH230930   0.362   2.267   5.073  0.0315 -0.0031  0.2857
 3172TIP3    H130931   0.365   2.246   4.980 -0.0528 -1.4377  0.5858
 3172TIP3    H230932   0.274   2.303   5.087 -0.6072 -1.4603  0.1301
 3173TIP3   OH230933   0.987   3.027  16.446  0.2399 -0.8226  0.2674
 3173TIP3    H130934   0.988   3.109  16.496 -2.4412  0.0124 -0.8325
 3173TIP3    H230935   1.079   3.008  16.428  0.9555  2.2496  0.1257
 3174TIP3   OH230936   4.685   1.910  14.648  0.5285 -0.2701  0.1749
 3174TIP3    H130937   4.702   1.885  14.739  0.0094 -1.4662 -0.0375
 3174TIP3    H230938   4.590   1.924  14.645  0.3525 -1.5321 -0.4726
 3175TIP3   OH230939   4.413   2.766   6.207  0.2808  0.1686 -0.0724
 3175TIP3    H130940   4.476   2.777   6.279 -0.3553 -0.0184  0.5322
 3175TIP3    H230941   4.342   2.716   6.246 -0.4004  0.6724 -0.6461
 3176TIP3   OH230942   6.315   3.322   5.282  0.5225 -0.1680 -0.0152
 3176TIP3    H130943   6.312   3.385   5.210  1.7892 -0.8859 -0.7239
 3176TIP3    H230944   6.395   3.271   5.266  0.4336 -0.8177  1.4984
 3177TIP3   OH230945   2.755   2.588   3.768 -0.0600  0.5319  0.0528
 3177TIP3    H130946   2.794   2.645   3.701 -0.8484  1.2112  0.1507
 3177TIP3    H230947   2.811   2.601   3.845  0.2847  0.4936 -0.1889
 3178TIP3   OH230948   3.875   4.002  13.626  0.0075 -0.3186  0.6712
 3178TIP3    H130949   3.872   4.055  13.547 -2.0990  1.9663  2.1302
 3178TIP3    H230950   3.952   4.035  13.674 -0.1876  0.0887  0.7086
 3179TIP3   OH230951   2.167   3.251  13.868 -0.0511  0.4203 -0.5190
 3179TIP3    H130952   2.100   3.211  13.922  0.8290 -1.2008 -0.5571
 3179TIP3    H230953   2.207   3.178  13.821  3.6457  0.7992  1.6040
 3180TIP3   OH230954   0.122   6.135  16.034  0.3315 -0.0801 -0.1419
 3180TIP3    H130955   0.184   6.144  15.962  0.1709  0.6684 -0.1951
 3180TIP3    H230956   0.082   6.049  16.021  1.3835 -0.5885 -0.0815
 3181TIP3   OH230957   2.792   4.966  13.985 -0.4056 -0.1093  0.1781
 3181TIP3    H130958   2.731   5.035  13.958  1.2177  1.1228 -0.5301
 3181TIP3    H230959   2.753   4.930  14.064 -0.4249  2.9336  1.7116
 3182TIP3   OH230960   3.836   2.626   0.251  0.5841 -0.3074 -0.2836
 3182TIP3    H130961   3.884   2.559   0.202  0.5578 -2.0566  1.9058
 3182TIP3    H230962   3.772   2.576   0.303 -0.6585  1.5940  0.1198
 3183TIP3   OH230963   6.463   5.738  15.108  0.4399 -0.1481 -0.6335
 3183TIP3    H130964   6.537   5.745  15.048  1.0352 -2.3510 -0.2559
 3183TIP3    H230965   6.391   5.705  15.054  0.3582 -0.0880 -0.5625
 3184TIP3   OH230966   2.578   4.899  15.872  0.1633  0.3733 -0.3386
 3184TIP3    H130967   2.607   4.986  15.844 -0.3359  0.8980  0.7292
 3184TIP3    H230968   2.520   4.916  15.946 -0.0137 -0.8732 -0.1756
 3185TIP3   OH230969   5.366   3.858   3.580  0.3094 -0.3488  0.1284
 3185TIP3    H130970   5.439   3.801   3.603 -0.0088  0.0704  2.3905
 3185TIP3    H230971   5.292   3.825   3.631 -0.8798 -0.2245 -1.4447
 3186TIP3   OH230972   3.364   5.561  14.112 -0.0242 -0.3548 -0.5578
 3186TIP3    H130973   3.430   5.491  14.110 -1.2687 -1.6190 -3.4324
 3186TIP3    H230974   3.298   5.529  14.173 -0.1089 -1.2710 -1.1021
 3187TIP3   OH230975   2.468   1.431  14.718 -0.2456 -0.2520 -0.2453
 3187TIP3    H130976   2.466   1.371  14.644  0.2756 -0.7826  0.1656
 3187TIP3    H230977   2.396   1.491  14.701 -0.3130 -0.5374 -1.0376
 3188TIP3   OH230978   5.274   5.055  13.685  0.0150  0.8617 -0.2177
 3188TIP3    H130979   5.255   5.096  13.601 -2.4791 -0.5446 -0.4393
 3188TIP3    H230980   5.266   5.126  13.749  0.2773  1.6128 -1.0100
 3189TIP3   OH230981   4.596   2.781   5.728  0.1722 -0.0393  0.3454
 3189TIP3    H130982   4.661   2.839   5.767 -0.0549 -0.2541  1.0571
 3189TIP3    H230983   4.519   2.789   5.785 -0.1467 -0.3986 -0.0261
 3190TIP3   OH230984   2.902   0.117   5.632  0.1900 -0.1335 -0.4155
 3190TIP3    H130985   2.836   0.178   5.668 -0.2558 -1.2228  0.7158
 3190TIP3    H230986   2.893   0.039   5.687  3.0474 -0.0197  0.3723
 3191TIP3   OH230987   4.485   6.502   2.115  0.7220 -0.5508  0.2726
 3191TIP3    H130988   4.532   6.475   2.036  1.5589 -3.5545  1.6408
 3191TIP3    H230989   4.527   6.584   2.140  1.9258 -0.6520 -1.2298
 3192TIP3   OH230990   5.579   5.891  11.296  0.0725  0.5518  0.0204
 3192TIP3    H130991   5.500   5.938  11.323  0.1401  0.3284  0.6248
 3192TIP3    H230992   5.651   5.939  11.338  0.3767  1.4448 -1.4491
 3193TIP3   OH230993   4.395   4.743   1.040 -0.1856 -0.7503  0.1103
 3193TIP3    H130994   4.334   4.669   1.040 -1.0280 -0.0837  0.6356
 3193TIP3    H230995   4.362   4.801   0.970 -0.3747 -0.2208  0.6304
 3194TIP3   OH230996   0.150   1.616   1.180 -0.2160  0.0013 -0.3923
 3194TIP3    H130997   0.141   1.592   1.272  0.3731 -1.2905 -0.6551
 3194TIP3    H230998   0.093   1.693   1.170  0.1782  0.5263  1.1694
 3195TIP3   OH230999   4.527   4.834  16.308 -0.0226  0.6249  0.0496
 3195TIP3    H131000   4.602   4.826  16.366 -0.2478 -1.1953  0.1396
 3195TIP3    H231001   4.465   4.768  16.339 -0.6427  0.4340 -1.5019
 3196TIP3   OH231002   5.196   4.326  12.627 -0.2602 -0.0666  0.0547
 3196TIP3    H131003   5.274   4.322  12.682  1.0355  1.8327 -1.5046
 3196TIP3    H231004   5.207   4.255  12.565 -0.0118 -0.1000  0.1351
 3197TIP3   OH231005   2.365   3.758  15.380 -0.6230  0.2426 -0.1733
 3197TIP3    H131006   2.322   3.674  15.362  1.0701 -0.2362 -2.4885
 3197TIP3    H231007   2.303   3.824  15.348 -1.1928 -0.1888  0.0069
 3198TIP3   OH231008   6.072   4.824   0.105  0.1763 -0.1554 -0.6001
 3198TIP3    H131009   6.054   4.898   0.163 -0.1417 -0.2099 -0.6241
 3198TIP3    H231010   6.037   4.850   0.020 -1.1213 -0.8287 -0.3035
 3199TIP3   OH231011   2.211   2.344  13.894 -0.3539 -0.0892 -0.5644
 3199TIP3    H131012   2.257   2.426  13.910  0.3809 -0.3722 -1.1581
 3199TIP3    H231013   2.274   2.290  13.845 -0.1584 -1.6760  1.3073
 3200TIP3   OH231014   6.674   5.138   4.002  0.6509  0.2507  0.1577
 3200TIP3    H131015   6.700   5.106   3.916 -0.4905 -1.3579  0.3539
 3200TIP3    H231016   6.738   5.206   4.024  2.7985 -1.4136 -0.6380
 3201TIP3   OH231017   6.726   2.987  13.156  0.1881  0.0728  0.0047
 3201TIP3    H131018   6.648   3.004  13.210  0.2783 -0.4499  0.3022
 3201TIP3    H231019   6.777   2.924  13.206  0.3190 -0.3561 -0.6529
 3202TIP3   OH231020   6.323   2.812   2.037 -0.2812  0.0164  0.3456
 3202TIP3    H131021   6.404   2.848   2.075  0.1200 -1.1891  0.6820
 3202TIP3    H231022   6.347   2.793   1.947  0.3670 -1.9082  0.8774
 3203TIP3   OH231023   0.487   5.724   4.463  0.2227  0.1145  0.0530
 3203TIP3    H131024   0.477   5.675   4.544 -1.3350 -0.9146 -0.7134
 3203TIP3    H231025   0.420   5.792   4.468 -0.3458 -0.3770 -0.6365
 3204TIP3   OH231026   2.539   3.037  10.909  0.3657  0.0815  0.1388
 3204TIP3    H131027   2.471   3.002  10.851 -1.3741  1.5564  1.1580
 3204TIP3    H231028   2.587   3.100  10.854 -1.1170  1.3010  0.1779
 3205TIP3   OH231029   4.572   4.637  16.859  0.3536 -0.3844 -0.4229
 3205TIP3    H131030   4.558   4.583  16.781 -0.9064  1.7932 -1.8168
 3205TIP3    H231031   4.623   4.711  16.829  1.1327 -0.2126  1.1918
 3206TIP3   OH231032   4.160   2.862  11.609  0.3520  0.2422  0.1613
 3206TIP3    H131033   4.204   2.873  11.525 -0.5659 -2.6973 -0.8444
 3206TIP3    H231034   4.074   2.902  11.597  0.8244  1.3488  0.3386
 3207TIP3   OH231035   5.667   3.289   0.012 -0.7151 -0.0960 -0.1923
 3207TIP3    H131036   5.737   3.337   0.056 -0.1425  0.4685 -1.6492
 3207TIP3    H231037   5.595   3.352   0.005 -0.5404  0.0532 -0.6912
 3208TIP3   OH231038   0.010   3.457   3.637 -0.3282 -0.2656 -0.2901
 3208TIP3    H131039   0.034   3.463   3.729 -1.3243  0.3465 -0.0572
 3208TIP3    H231040   0.053   3.377   3.606 -0.5989 -0.8880  0.8945
 3209TIP3   OH231041   3.714   4.924  13.206 -0.6412 -0.3851  0.3861
 3209TIP3    H131042   3.637   4.907  13.153 -1.0542 -1.1930  1.2075
 3209TIP3    H231043   3.752   4.837  13.221 -0.2348 -0.1140  0.9401
 3210TIP3   OH231044   6.198   0.451  11.472 -0.4171  0.2378 -0.2882
 3210TIP3    H131045   6.163   0.401  11.545 -0.0480 -2.1620 -1.6573
 3210TIP3    H231046   6.281   0.487  11.504 -0.5647 -0.2472  0.6534
 3211TIP3   OH231047   2.782   1.755   4.491 -0.1011  0.3678  0.0554
 3211TIP3    H131048   2.708   1.815   4.484  0.0086  0.6182  0.9596
 3211TIP3    H231049   2.741   1.669   4.502 -0.2520  0.3634 -0.4831
 3212TIP3   OH231050   3.734   2.669   6.168 -0.2940  0.2335 -0.0457
 3212TIP3    H131051   3.816   2.692   6.211  0.9171  0.3841 -2.2557
 3212TIP3    H231052   3.752   2.584   6.128 -0.6950  0.8823 -1.6931
 3213TIP3   OH231053   3.974   5.027   0.586 -0.3677 -0.1009 -0.7908
 3213TIP3    H131054   3.908   4.962   0.562 -1.0753  0.3509 -0.1163
 3213TIP3    H231055   3.944   5.062   0.670  3.0242 -3.0684  1.9534
 3214TIP3   OH231056   4.399   2.600  14.717  0.4261 -0.0224 -0.1402
 3214TIP3    H131057   4.450   2.610  14.637  0.7365  0.0536  0.0645
 3214TIP3    H231058   4.454   2.639  14.786  0.3177 -0.3965  0.1658
 3215TIP3   OH231059   1.142   2.233   4.731  0.6446 -0.3054 -0.1145
 3215TIP3    H131060   1.111   2.226   4.821 -0.4049  0.3525 -0.3982
 3215TIP3    H231061   1.165   2.326   4.721  0.3400 -0.2811 -0.6394
 3216TIP3   OH231062   1.208   2.233   1.657  0.5882 -0.4459  0.7256
 3216TIP3    H131063   1.216   2.139   1.673  1.2878  0.0443  3.7612
 3216TIP3    H231064   1.294   2.268   1.676  0.1431  0.9277  0.3370
 3217TIP3   OH231065   1.982   3.564  11.714  0.3750 -0.1021  0.3891
 3217TIP3    H131066   1.982   3.561  11.618  0.7642  0.4251  0.3644
 3217TIP3    H231067   1.984   3.657  11.735  1.1045 -0.2224  0.8992
 3218TIP3   OH231068   6.585   4.866   4.632 -0.2603 -0.0499  0.4454
 3218TIP3    H131069   6.657   4.845   4.691 -0.3745 -0.2866  0.5038
 3218TIP3    H231070   6.509   4.874   4.690 -0.6836 -1.7809  0.2025
 3219TIP3   OH231071   1.150   3.872   4.708  0.3049  0.0717 -0.3356
 3219TIP3    H131072   1.067   3.887   4.663  0.7429  3.1116 -0.2879
 3219TIP3    H231073   1.178   3.958   4.738  2.7612 -1.0720  0.9871
 3220TIP3   OH231074   0.394   4.184  12.938  0.6016  0.1576  0.1282
 3220TIP3    H131075   0.431   4.115  12.884  1.3438 -1.4061  2.4803
 3220TIP3    H231076   0.453   4.259  12.924  2.3650 -1.0441  0.7584
 3221TIP3   OH231077   4.314   4.881  14.777 -0.3151 -0.4089  0.0715
 3221TIP3    H131078   4.309   4.819  14.704  1.2649 -1.6493  0.9495
 3221TIP3    H231079   4.369   4.952  14.745  0.6938 -1.1345  0.1313
 3222TIP3   OH231080   6.424   2.713  10.716  0.3109  0.0302  0.1008
 3222TIP3    H131081   6.377   2.761  10.785  0.1107 -1.8720  1.3553
 3222TIP3    H231082   6.359   2.703  10.646 -0.9153 -1.6949  1.4080
 3223TIP3   OH231083   5.037   4.901  15.625  0.1934  0.1760  0.1568
 3223TIP3    H131084   4.969   4.893  15.558 -0.1251  2.4709  0.1105
 3223TIP3    H231085   4.992   4.882  15.707 -0.3904  1.1497  0.0733
 3224TIP3   OH231086   5.791   3.377  15.889 -0.1884 -0.0105 -0.5281
 3224TIP3    H131087   5.814   3.386  15.797 -0.7893  2.1984 -0.5241
 3224TIP3    H231088   5.749   3.292  15.895  0.4553 -0.4808 -2.1559
 3225TIP3   OH231089   3.659   3.302   3.252  0.3895 -0.3614 -0.1888
 3225TIP3    H131090   3.627   3.353   3.327 -1.4033 -0.9873 -0.4697
 3225TIP3    H231091   3.743   3.342   3.230 -0.4772  1.8400  0.2094
 3226TIP3   OH231092   0.705   6.545   2.627 -0.1427  0.5672  0.0744
 3226TIP3    H131093   0.747   6.495   2.696 -1.5474 -1.8748 -0.7218
 3226TIP3    H231094   0.777   6.589   2.582  1.5920 -2.7775 -0.7337
 3227TIP3   OH231095   4.805   1.520  15.747  0.3860 -0.3736 -0.7734
 3227TIP3    H131096   4.868   1.577  15.792 -0.3680 -0.6424  0.6701
 3227TIP3    H231097   4.745   1.492  15.815 -0.9400 -0.6369 -1.9986
 3228TIP3   OH231098   1.631   6.181  15.537 -0.1900  0.1401  0.0009
 3228TIP3    H131099   1.604   6.172  15.445 -0.2890  3.0718 -0.3827
 3228TIP3    H231100   1.586   6.261  15.566  1.6748  0.5951  1.8608
 3229TIP3   OH231101   6.127   0.663  12.747 -0.7391 -0.2938  0.0791
 3229TIP3    H131102   6.188   0.704  12.808 -0.5998  1.1502 -0.9893
 3229TIP3    H231103   6.181   0.640  12.671 -0.3316 -4.4831  1.3802
 3230TIP3   OH231104   6.634   1.877  14.489  0.5075 -0.2401 -0.2038
 3230TIP3    H131105   6.679   1.807  14.536  1.8162  1.0970  0.5940
 3230TIP3    H231106   6.543   1.847  14.483  0.8220 -1.5295  1.0374
 3231TIP3   OH231107   2.829   2.358   0.141  0.0150 -0.2278 -0.1078
 3231TIP3    H131108   2.864   2.446   0.133  2.2197 -1.1463 -1.2293
 3231TIP3    H231109   2.770   2.363   0.216  0.0121  2.1953 -0.1948
 3232TIP3   OH231110   1.993   5.217   0.683 -0.0793  0.7936 -0.0153
 3232TIP3    H131111   2.080   5.179   0.675  0.3007  1.9207 -1.8577
 3232TIP3    H231112   1.937   5.163   0.628 -0.5945  0.0504  1.1905
 3233TIP3   OH231113   3.869   5.316   5.218 -0.5340 -0.2875  0.3384
 3233TIP3    H131114   3.960   5.307   5.244 -0.1765  0.7517 -0.4976
 3233TIP3    H231115   3.871   5.316   5.123 -1.0956  2.2298  0.2505
 3234TIP3   OH231116   2.837   6.447  17.220 -0.1682  0.0531  0.3336
 3234TIP3    H131117   2.784   6.505  17.166  0.7456  2.6679  2.0003
 3234TIP3    H231118   2.883   6.390  17.158 -1.2069  1.0328 -1.4105
 3235TIP3   OH231119   5.462   0.606   1.732 -0.1145  0.0047  0.1519
 3235TIP3    H131120   5.535   0.648   1.778  3.3456 -3.1158 -1.8566
 3235TIP3    H231121   5.504   0.539   1.678 -4.4118 -0.7581 -2.7280
 3236TIP3   OH231122   6.380   2.898  11.722 -0.1827  0.0884  0.1490
 3236TIP3    H131123   6.423   2.855  11.797 -0.3035 -1.2098 -0.4910
 3236TIP3    H231124   6.303   2.940  11.760  0.8038  1.1348  1.0593
 3237TIP3   OH231125   3.315   1.844  12.425 -0.1497  0.2543 -0.2511
 3237TIP3    H131126   3.400   1.884  12.407  0.2987  0.3296  1.8199
 3237TIP3    H231127   3.333   1.777  12.491 -1.5200 -0.6100 -0.7152
 3238TIP3   OH231128   6.361   2.398   5.633 -0.3612  0.4211  0.5305
 3238TIP3    H131129   6.401   2.475   5.673  0.2535 -0.1865  1.1104
 3238TIP3    H231130   6.434   2.352   5.592 -0.9796  1.0681 -1.4112
 3239TIP3   OH231131   1.127   0.301   5.599  0.1195 -0.1539 -0.3360
 3239TIP3    H131132   1.108   0.209   5.621  0.6836 -0.4044 -0.8619
 3239TIP3    H231133   1.207   0.321   5.647 -0.9873  0.6706  1.2802
 3240TIP3   OH231134   6.161   0.104  16.294  0.4922 -0.3936  0.2975
 3240TIP3    H131135   6.067   0.107  16.280  0.6122  0.3362 -0.5058
 3240TIP3    H231136   6.196   0.066  16.213  1.0239  1.4143 -0.3934
 3241TIP3   OH231137   6.117   1.111  15.440  0.1595  0.1177  0.1683
 3241TIP3    H131138   6.136   1.024  15.476  0.2639 -0.6342 -1.5826
 3241TIP3    H231139   6.061   1.093  15.364  0.7937  1.5254 -0.6555
 3242TIP3   OH231140   0.382   5.591  11.526 -0.0628 -0.2862  0.1713
 3242TIP3    H131141   0.393   5.626  11.438 -0.2692 -1.2961 -0.2724
 3242TIP3    H231142   0.308   5.529  11.519  0.4619 -1.0196  0.8482
 3243TIP3   OH231143   4.606   6.731   2.202  0.3960 -0.1732  0.0844
 3243TIP3    H131144   4.676   6.795   2.214  0.1632  0.1735 -0.3654
 3243TIP3    H231145   4.596   6.690   2.288  1.1438 -0.2264  0.1538
 3244TIP3   OH231146   0.045   4.478   1.313  0.0723  0.1125  0.2914
 3244TIP3    H131147   0.050   4.520   1.227  0.3106  2.4224  1.3878
 3244TIP3    H231148   0.108   4.525   1.367  0.1644 -1.5163  1.6995
 3245TIP3   OH231149   3.841   5.440   4.307 -0.0629 -0.2351 -0.0156
 3245TIP3    H131150   3.828   5.535   4.303 -3.2510 -0.4664  1.6357
 3245TIP3    H231151   3.856   5.414   4.217 -1.1499  1.6346 -0.7839
 3246TIP3   OH231152   1.687   5.354  12.071 -0.1255 -0.0593  0.3812
 3246TIP3    H131153   1.746   5.280  12.084  2.1961  1.1177 -2.2974
 3246TIP3    H231154   1.608   5.316  12.033  0.3632 -1.3386  0.5916
 3247TIP3   OH231155   1.914   5.423   2.714 -0.2615 -0.3897 -0.1285
 3247TIP3    H131156   1.822   5.420   2.688 -0.5678  0.1265  0.8556
 3247TIP3    H231157   1.913   5.413   2.809  0.6282  0.6051  0.0062
 3248TIP3   OH231158   5.783   5.477   5.202 -0.4876 -0.3477  0.0254
 3248TIP3    H131159   5.769   5.567   5.232  1.1851 -0.1416  0.2771
 3248TIP3    H231160   5.732   5.423   5.263 -1.6511  0.4209 -0.2388
 3249TIP3   OH231161   2.273   6.015  12.736  0.2155  0.7693  0.0661
 3249TIP3    H131162   2.351   6.031  12.682  0.5264 -0.4945  0.1010
 3249TIP3    H231163   2.204   5.994  12.673  0.9898 -2.4349  0.1065
 3250TIP3   OH231164   5.722   2.029  15.691  0.3578  0.3207  0.1108
 3250TIP3    H131165   5.784   1.987  15.752  0.1838 -1.2048 -0.7204
 3250TIP3    H231166   5.665   1.958  15.663  0.1088  1.1079 -1.4374
 3251TIP3   OH231167   6.214   1.618  15.940 -0.3855 -0.6695 -0.0084
 3251TIP3    H131168   6.241   1.700  15.981 -0.8339 -0.3646 -0.3100
 3251TIP3    H231169   6.174   1.568  16.011  0.6701 -1.0028  0.3739
 3252TIP3   OH231170   6.205   4.118  14.934 -0.5954  0.1185 -0.5033
 3252TIP3    H131171   6.129   4.158  14.892 -1.9480 -0.0962  1.5548
 3252TIP3    H231172   6.167   4.059  15.000  1.2389  2.0426  2.5151
 3253TIP3   OH231173   0.334   2.587  16.835 -0.9911  0.0158  0.2619
 3253TIP3    H131174   0.333   2.673  16.793 -3.3280 -0.6932 -1.3449
 3253TIP3    H231175   0.373   2.529  16.770 -1.2125 -0.4597  0.5488
 3254TIP3   OH231176   6.099   3.670   2.150 -0.1852  0.4207 -0.6182
 3254TIP3    H131177   6.060   3.712   2.227  2.7319  1.2078  0.6065
 3254TIP3    H231178   6.155   3.601   2.187  1.2706  0.8046 -2.0008
 3255TIP3   OH231179   0.430   6.643  14.951  0.0600  0.3341  0.3073
 3255TIP3    H131180   0.406   6.724  14.905  1.2936  0.3685 -0.3359
 3255TIP3    H231181   0.526   6.643  14.950  0.1525  0.2820  2.8363
 3256TIP3   OH231182   2.471   0.895  10.676  0.2412 -0.0488 -0.1275
 3256TIP3    H131183   2.419   0.923  10.600  0.8670 -0.2594 -0.6433
 3256TIP3    H231184   2.420   0.923  10.751  0.5433  1.9584 -0.6159
 3257TIP3   OH231185   4.085   1.514  14.089  0.3776 -0.2505  0.2703
 3257TIP3    H131186   4.038   1.477  14.014 -1.1766 -2.0669  2.0204
 3257TIP3    H231187   4.016   1.547  14.146  1.2320 -1.8922  2.3717
 3258TIP3   OH231188   0.876   0.516  16.592 -0.0890 -0.2521 -0.2663
 3258TIP3    H131189   0.942   0.447  16.598 -0.0099 -0.0756  1.2269
 3258TIP3    H231190   0.793   0.468  16.583  0.1515 -0.4758 -1.6722
 3259TIP3   OH231191   2.271   5.829  14.756  0.2907  0.0299  0.1130
 3259TIP3    H131192   2.308   5.911  14.790  2.2676 -0.5414 -0.5614
 3259TIP3    H231193   2.200   5.858  14.699 -1.7575  1.0942  2.9170
 3260TIP3   OH231194   5.659   5.623  14.148  0.7484 -0.2188  0.2816
 3260TIP3    H131195   5.675   5.625  14.054  2.4407  1.4125  0.5231
 3260TIP3    H231196   5.713   5.551  14.180  1.1830  0.0378  0.1372
 3261TIP3   OH231197   4.563   1.963   6.066  0.2394 -0.0381  0.7827
 3261TIP3    H131198   4.585   1.874   6.094  0.8498 -0.0848  0.1837
 3261TIP3    H231199   4.522   1.952   5.980  1.5989  0.3357  0.0476
 3262TIP3   OH231200   1.488   5.914   3.223  0.5017 -0.4006  0.0394
 3262TIP3    H131201   1.527   5.917   3.135 -0.8351 -0.7121 -0.5920
 3262TIP3    H231202   1.486   6.005   3.252 -0.5131 -0.0771 -0.9490
 3263TIP3   OH231203   3.619   6.307  13.746  0.2068 -0.5680 -0.1586
 3263TIP3    H131204   3.639   6.268  13.831  0.0579 -0.8181 -0.2350
 3263TIP3    H231205   3.524   6.300  13.739 -0.3434  3.0801  1.3966
 3264TIP3   OH231206   6.066   3.435  13.414  0.3047 -0.5896  0.0298
 3264TIP3    H131207   6.069   3.408  13.505 -0.5309 -1.4925 -0.1908
 3264TIP3    H231208   5.975   3.457  13.398  0.6117  0.4720 -0.3456
 3265TIP3   OH231209   0.932   4.398   3.822 -0.3639  0.2416 -0.3433
 3265TIP3    H131210   0.863   4.432   3.766  0.8126  1.9714 -0.8298
 3265TIP3    H231211   0.982   4.475   3.848  0.5282 -0.7994  1.1693
 3266TIP3   OH231212   6.234   0.470  14.370 -0.0967 -0.0919 -0.4959
 3266TIP3    H131213   6.313   0.453  14.421  1.7421  0.8975 -2.8146
 3266TIP3    H231214   6.192   0.385  14.360  0.5633 -0.6071  0.8971
 3267TIP3   OH231215   2.073   6.360   4.195 -0.2428  0.4906  0.2003
 3267TIP3    H131216   1.994   6.322   4.157  0.4094  1.8142 -2.7591
 3267TIP3    H231217   2.040   6.430   4.252 -1.2425  0.3397 -0.1649
 3268TIP3   OH231218   4.320   5.043  11.887  0.0864 -0.3876 -0.2993
 3268TIP3    H131219   4.394   4.998  11.927  0.5662 -0.0043 -0.7441
 3268TIP3    H231220   4.271   5.080  11.961 -0.0274 -1.1915  0.0368
 3269TIP3   OH231221   4.924   6.620  12.024  0.9215  1.1022 -0.2946
 3269TIP3    H131222   5.017   6.604  12.042  0.8429 -0.9680 -1.4791
 3269TIP3    H231223   4.918   6.621  11.929 -0.2344  1.6389 -0.2327
 3270TIP3   OH231224   0.265   3.531  15.585  0.3487 -0.1016  0.1137
 3270TIP3    H131225   0.246   3.515  15.678  0.9516 -3.1655 -0.1895
 3270TIP3    H231226   0.351   3.574  15.586  0.8595 -1.0941  0.9707
 3271TIP3   OH231227   2.527   1.828   4.521  0.4910 -0.0506  0.3853
 3271TIP3    H131228   2.456   1.766   4.504  0.7230 -0.4369  0.7862
 3271TIP3    H231229   2.508   1.903   4.464 -0.9491  0.4076  1.4072
 3272TIP3   OH231230   4.062   1.359   3.318  0.1159  0.3658  0.2831
 3272TIP3    H131231   3.983   1.395   3.358 -0.5462 -0.5303 -0.1808
 3272TIP3    H231232   4.033   1.328   3.232  0.6801 -1.1283  0.6037
 3273TIP3   OH231233   6.126   4.478  12.612 -0.1530  0.2921  0.3063
 3273TIP3    H131234   6.118   4.387  12.642 -0.5496 -0.1656 -1.1019
 3273TIP3    H231235   6.041   4.498  12.573 -0.1312  1.3430  0.7766
 3274TIP3   OH231236   2.519   0.183  15.202  0.2332 -0.1064 -0.1235
 3274TIP3    H131237   2.538   0.275  15.220 -1.1068 -0.0185  1.0158
 3274TIP3    H231238   2.597   0.136  15.231 -0.1401  0.4484  1.9257
 3275TIP3   OH231239   4.634   1.596  14.449  0.1109  0.5100  0.3772
 3275TIP3    H131240   4.610   1.633  14.534  0.9118  1.4540  0.2141
 3275TIP3    H231241   4.727   1.616  14.440  0.4425 -1.0644  0.0068
 3276TIP3   OH231242   5.916   5.796  11.033 -0.8393 -0.3036 -0.7326
 3276TIP3    H131243   5.966   5.727  10.989 -1.7248 -0.5760 -1.3424
 3276TIP3    H231244   5.982   5.856  11.066 -0.1183  0.1653 -2.8616
 3277TIP3   OH231245   1.423   1.729   2.630 -0.2465  0.2696 -0.4824
 3277TIP3    H131246   1.486   1.672   2.674 -0.9119 -0.0726  0.0436
 3277TIP3    H231247   1.475   1.803   2.599  0.0381  1.4242  2.3832
 3278TIP3   OH231248   0.465   0.947   2.754 -0.0792 -0.3687  0.0028
 3278TIP3    H131249   0.414   0.870   2.728 -0.8739  0.6752 -1.6677
 3278TIP3    H231250   0.556   0.920   2.741 -0.3934 -0.4219 -2.5265
 3279TIP3   OH231251   4.698   5.002  17.106 -0.0676 -0.1844 -0.3760
 3279TIP3    H131252   4.700   5.020  17.200 -2.4977 -0.5695 -0.1655
 3279TIP3    H231253   4.737   4.915  17.097  1.9939  0.6641 -0.0227
 3280TIP3   OH231254   4.214   4.950  16.922  0.2038 -0.6495  0.5808
 3280TIP3    H131255   4.253   4.954  16.835  0.9794  0.3524  0.9469
 3280TIP3    H231256   4.285   4.975  16.981 -0.1452 -1.8811  1.5643
 3281TIP3   OH231257   3.833   1.978   6.008  0.2124 -0.2037  0.0759
 3281TIP3    H131258   3.837   2.070   6.032 -0.8808 -0.4959  1.4864
 3281TIP3    H231259   3.774   1.939   6.072  0.1471 -1.7664 -0.8909
 3282TIP3   OH231260   1.517   1.920   5.409  0.0740 -0.4397  0.2500
 3282TIP3    H131261   1.528   1.841   5.355 -1.0675 -0.1189 -0.4982
 3282TIP3    H231262   1.460   1.892   5.481  0.4782 -0.5279  0.5419
 3283TIP3   OH231263   3.883   4.962   1.371  0.2890  0.4694  0.2901
 3283TIP3    H131264   3.850   4.910   1.298  3.9825 -0.8267 -0.6420
 3283TIP3    H231265   3.890   5.051   1.335  1.0326  0.0677 -0.5930
 3284TIP3   OH231266   0.617   5.611   6.133 -0.8941 -0.1159  0.3947
 3284TIP3    H131267   0.610   5.590   6.226 -2.2893  0.5616  0.4702
 3284TIP3    H231268   0.527   5.629   6.106 -0.2300  2.3186 -0.4507
 3285TIP3   OH231269   0.356   3.416  14.330  0.8634 -0.2503 -0.2518
 3285TIP3    H131270   0.401   3.331  14.334 -1.0964 -1.2901  2.2690
 3285TIP3    H231271   0.290   3.404  14.261  1.6735 -0.1460 -1.0692
 3286TIP3   OH231272   0.332   3.961  13.478  1.0084  0.6043  0.3126
 3286TIP3    H131273   0.305   3.923  13.562 -0.6990  0.4304 -0.2746
 3286TIP3    H231274   0.358   3.886  13.425  1.1814  0.6179  0.3793
 3287TIP3   OH231275   4.332   1.962  16.504 -0.2308  0.0246  0.4696
 3287TIP3    H131276   4.423   1.980  16.527 -0.3079  1.1819 -0.0762
 3287TIP3    H231277   4.281   2.025  16.555 -0.7024 -0.3111  0.4266
 3288TIP3   OH231278   1.250   6.317   0.967  0.3286 -0.2356 -0.3044
 3288TIP3    H131279   1.262   6.274   0.882  0.5469  1.9191 -1.4390
 3288TIP3    H231280   1.293   6.402   0.957 -0.6495  0.5435  1.5864
 3289TIP3   OH231281   6.741   1.639  15.165 -0.2867  0.9730 -0.2168
 3289TIP3    H131282   6.766   1.702  15.233 -1.0370  0.2078  0.8001
 3289TIP3    H231283   6.819   1.585  15.154 -0.2893  0.8457  0.3446
 3290TIP3   OH231284   3.722   1.524  10.814 -0.1739  0.0809  0.2462
 3290TIP3    H131285   3.761   1.523  10.901  1.3512  0.0672 -0.4091
 3290TIP3    H231286   3.636   1.564  10.827  0.0992  0.2540  1.7193
 3291TIP3   OH231287   5.138   2.055  14.053  0.8851  0.6340  0.0936
 3291TIP3    H131288   5.063   2.015  14.008  1.6637 -0.7299 -0.0564
 3291TIP3    H231289   5.202   2.069  13.983  1.8472 -0.8818  0.6320
 3292TIP3   OH231290   6.697   0.371   3.782  0.0585  0.1650  0.2530
 3292TIP3    H131291   6.733   0.316   3.851 -2.2506 -0.0286  1.3775
 3292TIP3    H231292   6.681   0.311   3.709  3.0425  0.4661 -0.8179
 3293TIP3   OH231293   5.647   4.629  13.590  0.1247 -0.2534  0.5575
 3293TIP3    H131294   5.556   4.610  13.564 -0.3317 -0.2145  2.0338
 3293TIP3    H231295   5.679   4.688  13.522 -0.9114 -0.3629 -0.0549
 3294TIP3   OH231296   0.571   2.750  12.059 -0.3703 -0.0186 -0.5543
 3294TIP3    H131297   0.497   2.739  12.118 -1.6910  0.2042 -2.0848
 3294TIP3    H231298   0.536   2.728  11.972  1.7055 -1.1816 -1.1732
 3295TIP3   OH231299   5.059   0.142  15.741  0.3369  0.7965  0.1309
 3295TIP3    H131300   5.142   0.103  15.713 -0.4781 -0.8481 -0.1454
 3295TIP3    H231301   5.028   0.189  15.665  0.0540 -0.3212 -0.4729
 3296TIP3   OH231302   1.594   2.546  15.954 -0.0338 -0.3030 -0.1678
 3296TIP3    H131303   1.669   2.563  15.898 -1.4458 -0.7781 -2.3200
 3296TIP3    H231304   1.620   2.581  16.039  1.5803  2.0235 -1.4766
 3297TIP3   OH231305   0.753   4.031   6.238  0.0359 -0.6048  0.4083
 3297TIP3    H131306   0.829   4.044   6.296  0.7655 -1.4093 -0.3331
 3297TIP3    H231307   0.743   4.115   6.193  0.8470 -0.6532  0.1126
 3298TIP3   OH231308   0.974   1.318   2.205  0.4471  0.0580 -0.3078
 3298TIP3    H131309   0.964   1.310   2.300  2.9380  0.0279  0.0160
 3298TIP3    H231310   0.962   1.229   2.172  1.3591 -0.2645  0.2013
 3299TIP3   OH231311   6.053   5.218   2.647  0.0415 -0.0970  0.1569
 3299TIP3    H131312   6.136   5.175   2.667  0.5388 -0.7988 -2.9308
 3299TIP3    H231313   6.077   5.295   2.596 -1.1794 -0.5636 -1.1953
 3300TIP3   OH231314   5.922   2.255  17.160 -0.1994 -0.3080 -0.3254
 3300TIP3    H131315   5.984   2.193  17.121  0.2510 -1.0713  1.4821
 3300TIP3    H231316   5.899   2.314  17.089  1.9811 -0.4902 -1.2770
 3301TIP3   OH231317   0.057   6.183   0.247 -0.0344  0.2108 -0.1895
 3301TIP3    H131318   0.116   6.150   0.179  0.8049  0.3737  0.4453
 3301TIP3    H231319   0.077   6.129   0.323  1.1461  1.9515  0.7907
 3302TIP3   OH231320   2.812   4.050  13.060 -0.7302 -0.3593  0.0139
 3302TIP3    H131321   2.794   4.143  13.046  0.6100  0.2701  2.0403
 3302TIP3    H231322   2.742   4.021  13.118  0.2817  0.1024  1.5243
 3303TIP3   OH231323   4.297   5.342  11.549  0.2259 -0.0218 -0.2914
 3303TIP3    H131324   4.324   5.406  11.615 -2.3754  0.8397  0.0480
 3303TIP3    H231325   4.375   5.329  11.495  1.7718  0.9710  1.5634
 3304TIP3   OH231326   2.599   4.169  12.436  0.3173  0.4645  0.3395
 3304TIP3    H131327   2.511   4.144  12.464 -0.7471  0.3390 -2.6891
 3304TIP3    H231328   2.616   4.115  12.359  2.4216  1.5635 -0.0541
 3305TIP3   OH231329   3.141   6.607   0.817 -0.2357  0.0069  0.3507
 3305TIP3    H131330   3.130   6.617   0.722 -1.5548  1.1051  0.5952
 3305TIP3    H231331   3.062   6.562   0.846  0.1591 -0.3237  0.9476
 3306TIP3   OH231332   2.639   2.363  15.581  0.2409  0.5534  0.0309
 3306TIP3    H131333   2.549   2.373  15.550 -0.4764 -0.4681  1.6690
 3306TIP3    H231334   2.687   2.332  15.504 -1.1081 -0.2672 -0.5220
 3307TIP3   OH231335   0.870   6.008  16.487  0.1300  0.6172  0.0911
 3307TIP3    H131336   0.955   5.969  16.471  1.0846  1.3537  2.8361
 3307TIP3    H231337   0.832   5.957  16.559 -1.9733  0.0673 -1.3052
 3308TIP3   OH231338   6.049   5.038  16.149  0.0483  0.2185 -0.0040
 3308TIP3    H131339   6.064   5.060  16.241  0.9841  1.8551 -0.5064
 3308TIP3    H231340   6.081   5.114  16.100 -0.5191 -0.5651 -1.6888
 3309TIP3   OH231341   0.680   0.292  16.792  0.0978 -0.0705 -0.0661
 3309TIP3    H131342   0.677   0.313  16.698  0.5098  1.8898  0.3169
 3309TIP3    H231343   0.773   0.285  16.812  0.0834  1.0782  0.4859
 3310TIP3   OH231344   0.205   3.783  13.719  0.1249 -0.4674  0.7519
 3310TIP3    H131345   0.130   3.748  13.671 -0.0203  1.4137 -0.4908
 3310TIP3    H231346   0.167   3.822  13.798 -0.1278 -0.0941  0.4470
 3311TIP3   OH231347   1.139   3.345   3.750 -0.3799  0.2007  0.4407
 3311TIP3    H131348   1.080   3.396   3.806 -1.1832  0.4411 -0.6002
 3311TIP3    H231349   1.102   3.257   3.750 -1.8208  0.7347 -1.6104
 3312TIP3   OH231350   5.100   0.474  12.520  0.0770 -0.5217 -0.2610
 3312TIP3    H131351   5.052   0.551  12.490  1.1247  0.2405 -0.0054
 3312TIP3    H231352   5.031   0.410  12.540 -0.7570 -0.3105 -2.1648
 3313TIP3   OH231353   1.099   4.823   2.823  0.3369  0.2704  0.3716
 3313TIP3    H131354   1.084   4.901   2.878  0.2253 -0.3891  1.3143
 3313TIP3    H231355   1.030   4.762   2.850  0.6656 -0.3046 -0.0661
 3314TIP3   OH231356   0.173   0.634  16.424  0.1779 -0.0129  0.3667
 3314TIP3    H131357   0.153   0.575  16.352  2.2279 -0.1180 -0.1929
 3314TIP3    H231358   0.154   0.584  16.503 -0.4785 -0.5046 -0.1011
 3315TIP3   OH231359   0.662   2.277  15.858  0.0651 -0.2791  0.6903
 3315TIP3    H131360   0.659   2.359  15.907  0.7595  2.2284 -3.0169
 3315TIP3    H231361   0.589   2.284  15.796  0.2498 -2.4283  0.1385
 3316TIP3   OH231362   6.381   2.845  10.953 -0.2563  0.2712 -0.3842
 3316TIP3    H131363   6.426   2.927  10.973 -0.2168  0.6887 -2.0264
 3316TIP3    H231364   6.380   2.796  11.035 -0.6765  2.1052  0.7396
 3317TIP3   OH231365   5.423   1.887  15.782  0.3509  0.6374  0.2207
 3317TIP3    H131366   5.513   1.862  15.759  1.5115  2.5241  2.2564
 3317TIP3    H231367   5.371   1.862  15.706  2.8387  0.9486 -1.7425
 3318TIP3   OH231368   5.945   4.312  12.723  0.0316  0.4505 -0.8828
 3318TIP3    H131369   5.862   4.350  12.751  0.4800 -0.1017  1.3577
 3318TIP3    H231370   6.005   4.326  12.796  0.9609 -2.1336 -1.0200
 3319TIP3   OH231371   3.346   1.036  15.050 -0.1176  0.1771  0.3543
 3319TIP3    H131372   3.265   1.073  15.015  0.5030  1.7605  0.5085
 3319TIP3    H231373   3.407   1.110  15.052  1.2973 -0.9526  0.3591
 3320TIP3   OH231374   1.887   0.024   1.855 -0.5401 -0.1034  0.6550
 3320TIP3    H131375   1.832  -0.041   1.811  0.3600 -0.1752 -0.4083
 3320TIP3    H231376   1.845   0.108   1.838  0.1845 -0.0504 -1.0051
 3321TIP3   OH231377   4.477   6.149   4.693  0.3317  0.0950 -0.0617
 3321TIP3    H131378   4.539   6.077   4.686  0.0549 -0.2091  0.5522
 3321TIP3    H231379   4.519   6.212   4.751 -0.0597 -0.2493  0.6001
 3322TIP3   OH231380   4.302   4.252   5.364 -0.3614 -0.1506 -0.2168
 3322TIP3    H131381   4.372   4.315   5.345  1.0982 -1.8405 -0.7733
 3322TIP3    H231382   4.227   4.306   5.389  0.9974  1.7641 -0.0344
 3323TIP3   OH231383   1.954   2.178   1.220  0.6046  0.0816  0.5663
 3323TIP3    H131384   1.985   2.230   1.146  0.0692 -0.6376 -0.1781
 3323TIP3    H231385   1.883   2.230   1.258  2.0077  1.2690  1.6692
 3324TIP3   OH231386   5.164   6.619   5.478 -0.2342  0.0660 -0.8355
 3324TIP3    H131387   5.217   6.655   5.549 -2.2196 -0.2669  0.9082
 3324TIP3    H231388   5.139   6.696   5.427  1.6504  0.2556 -1.5643
 3325TIP3   OH231389   6.739   4.183   1.675  0.2251  0.4998 -0.0808
 3325TIP3    H131390   6.727   4.184   1.770 -0.4336  0.9380 -0.1604
 3325TIP3    H231391   6.685   4.256   1.643 -0.0121  0.0055 -0.8384
 3326TIP3   OH231392   2.969   3.602  12.938  0.3652  0.3028 -0.4139
 3326TIP3    H131393   2.978   3.658  12.860  0.7816 -1.7826 -1.9492
 3326TIP3    H231394   2.997   3.516  12.908 -0.1801 -0.7277  1.8930
 3327TIP3   OH231395   6.104   1.798  15.354 -0.0062 -0.4299  0.2169
 3327TIP3    H131396   6.062   1.883  15.339 -0.5791 -0.5893  0.8533
 3327TIP3    H231397   6.196   1.813  15.335 -0.3786 -0.1648 -1.6053
 3328TIP3   OH231398   5.318   0.059  11.363 -0.0569  0.0310  0.3928
 3328TIP3    H131399   5.268  -0.013  11.327 -1.2875  1.1825 -0.3076
 3328TIP3    H231400   5.396   0.064  11.308  0.1679 -0.9149  0.6196
 3329TIP3   OH231401   5.249   5.484  13.868  0.1638 -0.4632 -0.0428
 3329TIP3    H131402   5.261   5.546  13.796  1.3075 -0.3249  0.2460
 3329TIP3    H231403   5.320   5.421  13.858  0.9992  0.1614  1.5515
 3330TIP3   OH231404   1.661   0.189  15.985  0.4599  0.1703  0.0342
 3330TIP3    H131405   1.743   0.230  16.011 -0.8663  2.4950  0.9148
 3330TIP3    H231406   1.599   0.212  16.055 -1.3560  0.0413 -1.4391
 3331TIP3   OH231407   4.042   3.925  15.555 -0.1419  0.4545 -0.2456
 3331TIP3    H131408   4.091   3.867  15.497 -0.3937  0.9896 -1.0179
 3331TIP3    H231409   3.951   3.895  15.547 -0.2925  1.0376 -0.7554
 3332TIP3   OH231410   6.235   0.548  12.512  0.4167 -0.1992 -0.1349
 3332TIP3    H131411   6.293   0.529  12.438 -0.1574 -1.4365 -0.2921
 3332TIP3    H231412   6.252   0.477  12.575  1.2589  1.0988  1.1769
 3333TIP3   OH231413   4.150   2.705  14.170 -0.5322  0.1084 -0.1528
 3333TIP3    H131414   4.089   2.721  14.098 -0.4309  1.7350  0.0817
 3333TIP3    H231415   4.195   2.789  14.182 -1.1094  0.1438  2.3142
 3334TIP3   OH231416   4.151   1.897  13.456  0.4272  0.4444  0.0867
 3334TIP3    H131417   4.222   1.898  13.391 -0.9201 -1.4710 -1.5194
 3334TIP3    H231418   4.180   1.958  13.523  1.2930  3.6771 -2.9377
 3335TIP3   OH231419   3.074   0.035  11.191  0.3603 -0.5343  0.3232
 3335TIP3    H131420   3.086  -0.057  11.215  0.2448 -1.6699 -3.2809
 3335TIP3    H231421   2.979   0.045  11.181  0.4562 -0.4394 -0.5771
 3336TIP3   OH231422   4.629   4.730  15.299 -0.2275  0.0542  0.3074
 3336TIP3    H131423   4.643   4.672  15.374  2.1836  1.6295  1.2024
 3336TIP3    H231424   4.666   4.684  15.225 -0.8694 -0.7008  0.4465
 3337TIP3   OH231425   0.321   0.663   3.027 -0.3121 -0.4528 -0.3240
 3337TIP3    H131426   0.412   0.671   3.056 -0.5392  0.0909  0.2520
 3337TIP3    H231427   0.277   0.739   3.064 -0.8605 -0.3384 -1.1792
 3338TIP3   OH231428   4.494   1.397  16.511  0.3812  0.0549  0.4118
 3338TIP3    H131429   4.572   1.345  16.528  0.3559  0.1425  0.7876
 3338TIP3    H231430   4.431   1.369  16.577 -0.0365 -0.2871 -0.1240
 3339TIP3   OH231431   1.818   2.738   1.317  0.2957 -0.2380  0.8616
 3339TIP3    H131432   1.745   2.789   1.349  1.4203  1.1148  1.3608
 3339TIP3    H231433   1.896   2.781   1.352  1.4382 -0.5116 -1.1424
 3340TIP3   OH231434   4.592   5.183   2.425 -0.1889 -0.0651 -0.5892
 3340TIP3    H131435   4.592   5.270   2.463 -3.5954 -0.5064  0.7101
 3340TIP3    H231436   4.574   5.197   2.332 -2.3506  0.6313 -0.1199
 3341TIP3   OH231437   4.986   0.970  16.253  0.3819  0.0510 -0.3489
 3341TIP3    H131438   4.911   1.024  16.279  1.4416  0.1639  3.0149
 3341TIP3    H231439   5.029   0.948  16.336  1.0847 -4.4780 -1.6389
 3342TIP3   OH231440   6.172   1.958  14.710  0.3796  0.1739  0.2080
 3342TIP3    H131441   6.080   1.975  14.691  0.5278 -0.8916 -1.7202
 3342TIP3    H231442   6.170   1.907  14.791 -0.9747 -1.9953 -1.0900
 3343TIP3   OH231443   3.683   1.605   0.583  0.1777  0.1524  0.0049
 3343TIP3    H131444   3.589   1.615   0.568  0.1224 -0.3345 -0.0003
 3343TIP3    H231445   3.692   1.603   0.679  0.0651 -0.7742  0.0063
 3344TIP3   OH231446   1.287   2.093  11.492 -0.1099  0.6977 -0.1267
 3344TIP3    H131447   1.230   2.126  11.561  1.0050  0.1761  1.0799
 3344TIP3    H231448   1.274   1.998  11.493 -1.0954  0.7873 -1.5802
 3345TIP3   OH231449   3.423   6.210   0.719 -0.1337  0.8292  0.4508
 3345TIP3    H131450   3.375   6.173   0.793  2.9662 -3.6495  0.6819
 3345TIP3    H231451   3.393   6.159   0.644  0.1708  1.9545 -0.4564
 3346TIP3   OH231452   6.319   5.181  10.627 -1.2335 -0.0447  0.2607
 3346TIP3    H131453   6.395   5.123  10.619 -1.3692  0.0120 -2.1667
 3346TIP3    H231454   6.244   5.121  10.636 -1.0255 -0.1041  2.1337
 3347TIP3   OH231455   2.513   5.475   5.995 -0.1417  0.0935  0.6514
 3347TIP3    H131456   2.502   5.564   6.030  0.4621  0.7431 -0.7577
 3347TIP3    H231457   2.576   5.434   6.055 -1.4001  0.1469  2.0773
 3348TIP3   OH231458   4.302   1.574   3.173 -0.0010 -0.6234  0.0618
 3348TIP3    H131459   4.234   1.598   3.111 -0.0679  0.6713  0.6138
 3348TIP3    H231460   4.375   1.632   3.154 -0.2911  0.3274  1.6469
 3349TIP3   OH231461   3.154   5.145  13.613  0.2731  0.0532  0.0174
 3349TIP3    H131462   3.070   5.153  13.659  1.4424  2.0550  1.9468
 3349TIP3    H231463   3.220   5.148  13.682  2.0277  0.3633 -1.5880
 3350TIP3   OH231464   4.956   3.503   1.028 -0.0741  0.1634 -0.1120
 3350TIP3    H131465   5.018   3.473   1.094  0.1739 -0.7796 -0.7478
 3350TIP3    H231466   4.979   3.595   1.014  1.1678 -0.1612 -0.3080
 3351TIP3   OH231467   4.649   6.650   5.464  0.4862 -0.8486  0.8136
 3351TIP3    H131468   4.610   6.711   5.528  0.2189 -0.4339  0.2605
 3351TIP3    H231469   4.616   6.680   5.379  0.0492 -1.9944  0.5616
 3352TIP3   OH231470   2.453   6.580  17.178  0.3034  0.5313  0.5168
 3352TIP3    H131471   2.475   6.540  17.262  0.4835 -2.2477 -0.7681
 3352TIP3    H231472   2.526   6.639  17.160  1.1452 -0.1677  1.4905
 3353TIP3   OH231473   4.612   3.346  15.977  0.4714  0.2035 -0.0829
 3353TIP3    H131474   4.525   3.383  15.967  0.2698 -0.4858 -1.0301
 3353TIP3    H231475   4.619   3.324  16.070 -0.8930 -1.0140 -0.2428
 3354TIP3   OH231476   5.358   1.516  11.381 -0.7202  0.4736 -0.2031
 3354TIP3    H131477   5.347   1.466  11.462  0.6597  1.3055  0.5435
 3354TIP3    H231478   5.302   1.471  11.317  0.4388 -2.0395  0.4071
 3355TIP3   OH231479   4.373   2.512   0.114  0.0917 -0.0473 -0.6273
 3355TIP3    H131480   4.344   2.475   0.197 -0.8215 -0.4545 -1.1245
 3355TIP3    H231481   4.384   2.437   0.056  1.7062  0.1242 -0.6154
 3356TIP3   OH231482   5.586   1.057   4.141 -0.7242  0.0629 -0.1108
 3356TIP3    H131483   5.525   1.100   4.081 -0.3943  1.2292  0.3648
 3356TIP3    H231484   5.538   0.981   4.173 -0.9931 -0.4721 -1.6576
 3357TIP3   OH231485   4.304   6.659  13.399 -0.0119 -0.1561 -0.1943
 3357TIP3    H131486   4.240   6.688  13.333 -0.4785 -0.3011  0.1837
 3357TIP3    H231487   4.286   6.714  13.475 -0.2787 -0.7982  0.2139
 3358TIP3   OH231488   1.870   3.417  12.117 -0.1876 -0.6701 -0.6288
 3358TIP3    H131489   1.871   3.390  12.025  2.5573  1.4006 -1.3333
 3358TIP3    H231490   1.948   3.472  12.127 -1.2797  0.5211  2.5622
 3359TIP3   OH231491   1.334   3.084   3.240  0.9299 -0.1920  0.0023
 3359TIP3    H131492   1.395   3.126   3.301  1.8815  1.8384 -2.1932
 3359TIP3    H231493   1.389   3.028   3.186  1.0553  1.9637 -2.2634
 3360TIP3   OH231494   0.026   4.254  13.863  0.5332  0.2867  0.1291
 3360TIP3    H131495   0.038   4.236  13.956  1.1531  1.1415  0.2211
 3360TIP3    H231496  -0.006   4.344  13.859  1.5196  0.6258 -0.5313
 3361TIP3   OH231497   6.226   3.424   2.198 -0.7012  0.0166 -0.3436
 3361TIP3    H131498   6.318   3.450   2.190 -0.2798 -1.6329 -1.4015
 3361TIP3    H231499   6.220   3.387   2.286 -0.4219  0.3753 -0.1683
 3362TIP3   OH231500   4.784   2.543  11.626  0.3558  0.4214 -0.1219
 3362TIP3    H131501   4.879   2.551  11.633  0.3065  0.2843  0.8008
 3362TIP3    H231502   4.754   2.539  11.717 -0.3800 -1.2111 -0.4020
 3363TIP3   OH231503   5.667   3.643  11.632 -0.3749 -0.3678  0.2991
 3363TIP3    H131504   5.739   3.638  11.569  0.4248  1.1785  1.0287
 3363TIP3    H231505   5.636   3.733  11.625 -1.9213 -0.8712  0.3706
 3364TIP3   OH231506   4.959   4.602   5.644  0.1093  0.2042  0.0444
 3364TIP3    H131507   4.914   4.674   5.687 -4.0400 -1.7031 -0.6552
 3364TIP3    H231508   4.996   4.640   5.564  2.0292  2.3275  1.7880
 3365TIP3   OH231509   1.312   0.816   6.162 -0.2227 -0.0730 -0.0241
 3365TIP3    H131510   1.300   0.817   6.257  0.4906  0.0013  0.0739
 3365TIP3    H231511   1.258   0.887   6.130 -2.8752 -1.9476  0.0056
 3366TIP3   OH231512   1.828   6.711   7.121  0.1138  0.3278  0.3501
 3366TIP3    H131513   1.769   6.727   7.047  1.8991 -0.6177 -1.3872
 3366TIP3    H231514   1.907   6.761   7.100  1.9198 -2.4863 -0.1417
 3367TIP3   OH231515   2.096   1.386  14.629  0.2363  0.4515  0.0236
 3367TIP3    H131516   2.110   1.466  14.679 -0.1164 -0.1775  1.1696
 3367TIP3    H231517   2.017   1.403  14.577  2.2992  2.2573 -2.8157
 3368TIP3   OH231518   6.730   6.438   2.652 -0.5800  0.6927 -0.1933
 3368TIP3    H131519   6.656   6.482   2.608 -0.8030  0.6777  0.1621
 3368TIP3    H231520   6.693   6.357   2.686  0.2981 -0.8251 -2.6358
 3369TIP3   OH231521   2.914   4.737  14.560  0.0078 -0.0018  0.3939
 3369TIP3    H131522   3.003   4.704  14.550 -0.3771 -0.4831 -2.3932
 3369TIP3    H231523   2.880   4.693  14.637  1.1591 -2.3343 -0.3397
 3370TIP3   OH231524   1.822   2.636  17.150 -0.4102  0.0699  0.6934
 3370TIP3    H131525   1.746   2.623  17.093 -0.6994  1.4987  0.6920
 3370TIP3    H231526   1.874   2.557  17.141 -1.0857 -0.2462 -0.5915
 3371TIP3   OH231527   1.150   3.202   2.683  0.8137  0.1750 -0.0306
 3371TIP3    H131528   1.057   3.218   2.700  0.4365 -0.3417 -1.4050
 3371TIP3    H231529   1.179   3.147   2.756  0.1539  0.6960  0.6418
 3372TIP3   OH231530   2.276   2.220  13.093  0.6741  0.3644  0.7732
 3372TIP3    H131531   2.181   2.220  13.102  0.5994  2.2915  0.4325
 3372TIP3    H231532   2.308   2.231  13.183  0.6844 -2.0310  1.1263
 3373TIP3   OH231533   3.323   1.071  15.997  0.1588  0.2587 -0.0001
 3373TIP3    H131534   3.367   1.009  16.055  0.1418 -0.0599 -0.3181
 3373TIP3    H231535   3.263   1.016  15.946  1.4030  0.2381 -1.5380
 3374TIP3   OH231536   0.189   1.787  11.883  0.4221  0.6029 -0.8361
 3374TIP3    H131537   0.201   1.878  11.856 -2.0264  0.6724 -2.0117
 3374TIP3    H231538   0.190   1.738  11.801  1.4438 -0.4307 -0.2350
 3375TIP3   OH231539   6.340   4.928   2.905 -0.1506 -0.2479  0.2467
 3375TIP3    H131540   6.290   5.009   2.913 -0.8902 -0.7964  1.3084
 3375TIP3    H231541   6.362   4.923   2.812 -3.0125 -0.5157 -0.5204
 3376TIP3   OH231542   0.568   1.095   0.264 -0.0861 -0.1786 -0.3541
 3376TIP3    H131543   0.544   1.173   0.215  0.2500 -1.1803 -2.2284
 3376TIP3    H231544   0.662   1.105   0.280 -0.1865  0.1297  0.0485
 3377TIP3   OH231545   5.252   1.722  13.977 -0.1354 -0.1148  0.2651
 3377TIP3    H131546   5.207   1.716  13.893 -1.5230 -0.5945  1.0063
 3377TIP3    H231547   5.218   1.648  14.028 -1.2616  1.5639  2.1142
 3378TIP3   OH231548   4.328   4.347   3.437  0.7386 -0.4004  0.2228
 3378TIP3    H131549   4.354   4.275   3.380  0.3523 -0.7686  0.5061
 3378TIP3    H231550   4.377   4.332   3.518  0.2171 -0.6809  0.4925
 3379TIP3   OH231551   4.319   6.382   4.625 -0.2860 -0.6026 -0.2764
 3379TIP3    H131552   4.327   6.287   4.639 -0.1816 -0.4295  0.9521
 3379TIP3    H231553   4.298   6.391   4.532 -0.1934 -1.8274 -0.4300
 3380TIP3   OH231554   6.338   3.434   3.900 -0.3378 -0.6468  0.0722
 3380TIP3    H131555   6.406   3.403   3.841  0.1411  0.1280  0.2038
 3380TIP3    H231556   6.370   3.518   3.932 -1.1104 -0.5240  0.5570
 3381TIP3   OH231557   1.503   1.707   1.724  0.1469  0.2553 -0.5801
 3381TIP3    H131558   1.544   1.756   1.795  0.8567 -1.2688  0.1210
 3381TIP3    H231559   1.463   1.631   1.767 -1.0029  0.2598 -1.6007
 3382TIP3   OH231560   1.154   3.269  16.391  0.9886  0.0238  0.1315
 3382TIP3    H131561   1.121   3.351  16.354  0.4405 -0.5449 -0.6937
 3382TIP3    H231562   1.109   3.201  16.341  0.7497 -0.7872  1.4050
 3383TIP3   OH231563   6.063   5.369  13.012 -0.5002 -0.4869 -0.1657
 3383TIP3    H131564   6.121   5.304  12.971 -0.0237 -0.4835  0.4829
 3383TIP3    H231565   5.990   5.377  12.951  1.5939  1.8046 -2.6132
 3384TIP3   OH231566   0.340   2.978   2.701 -0.3839  0.0684  0.6491
 3384TIP3    H131567   0.338   2.883   2.701  0.6733  0.0381  0.5390
 3384TIP3    H231568   0.279   3.004   2.632 -0.1220 -0.5443  0.1815
 3385TIP3   OH231569   6.406   0.065   0.460  0.0014 -0.1766 -0.1775
 3385TIP3    H131570   6.436   0.152   0.485 -1.5686  0.1972  0.5409
 3385TIP3    H231571   6.410   0.015   0.542 -0.7220 -0.2869 -0.2071
 3386TIP3   OH231572   5.114   1.631   5.896  0.0620  0.0353  0.1884
 3386TIP3    H131573   5.187   1.651   5.954  0.1899 -1.3030  0.5198
 3386TIP3    H231574   5.058   1.709   5.900  0.1568  0.0617  1.9686
 3387TIP3   OH231575   4.610   0.499   5.457 -0.3363 -0.7133 -0.1909
 3387TIP3    H131576   4.655   0.534   5.380  1.6051 -2.5594 -0.0018
 3387TIP3    H231577   4.664   0.527   5.531 -0.7651 -1.0383  0.2496
 3388TIP3   OH231578   2.603   2.512  13.552 -0.5480 -0.5827  0.3292
 3388TIP3    H131579   2.614   2.596  13.596 -0.0997 -0.7516  0.5483
 3388TIP3    H231580   2.633   2.447  13.616 -0.2927 -0.8604 -0.0671
 3389TIP3   OH231581   0.813   5.332   5.784 -0.7570 -0.3162 -0.1306
 3389TIP3    H131582   0.870   5.256   5.772 -1.5176 -1.1578  1.2508
 3389TIP3    H231583   0.803   5.339   5.879 -1.4548  0.9522 -0.2726
 3390TIP3   OH231584   6.556   3.316   2.566 -0.3668 -0.1632  0.1790
 3390TIP3    H131585   6.518   3.274   2.489  0.4708 -0.7774  0.0909
 3390TIP3    H231586   6.481   3.334   2.623 -0.7763 -1.6251  0.1464
 3391TIP3   OH231587   6.088   4.873  12.448  0.2409 -0.7786 -0.4098
 3391TIP3    H131588   6.039   4.951  12.476  0.2651 -0.1122 -2.1148
 3391TIP3    H231589   6.132   4.900  12.367  0.1829 -2.5850 -1.0878
 3392TIP3   OH231590   5.412   5.114  15.114  0.2148 -0.1425  0.4663
 3392TIP3    H131591   5.393   5.134  15.022 -0.5280  1.4784  0.9488
 3392TIP3    H231592   5.327   5.091  15.152  0.5040 -0.7066  0.7942
 3393TIP3   OH231593   0.759   3.079  11.614 -0.4983  0.0470  0.0968
 3393TIP3    H131594   0.721   3.167  11.610 -0.9912 -0.1024  1.1401
 3393TIP3    H231595   0.801   3.075  11.701 -1.0300 -0.9563  0.3197
 3394TIP3   OH231596   3.293   5.065  16.076 -0.3522 -0.0439  0.4747
 3394TIP3    H131597   3.269   4.974  16.057 -1.7698  0.6912 -1.6135
 3394TIP3    H231598   3.246   5.086  16.156  0.6136 -1.3399  1.4366
 3395TIP3   OH231599   5.763   3.221   2.104  0.2112  0.3144 -0.3111
 3395TIP3    H131600   5.695   3.223   2.037 -0.0344 -0.5384 -0.1060
 3395TIP3    H231601   5.825   3.289   2.078 -0.1207  0.3086 -1.1413
 3396TIP3   OH231602   2.149   4.999   1.373  0.0287 -0.1771  0.2528
 3396TIP3    H131603   2.222   5.061   1.366 -0.2134  0.1525  0.5980
 3396TIP3    H231604   2.119   4.989   1.283  1.5060 -1.5598 -0.1308
 3397TIP3   OH231605   5.372   5.113   1.193 -0.0298 -0.3166  0.1012
 3397TIP3    H131606   5.431   5.047   1.159 -1.9320 -1.0359 -2.0668
 3397TIP3    H231607   5.412   5.196   1.170  0.4135 -0.7795 -0.8304
 3398TIP3   OH231608   5.593   4.607  17.300 -0.4512  0.2188  0.4591
 3398TIP3    H131609   5.553   4.569  17.378 -1.2190  0.7990  0.3624
 3398TIP3    H231610   5.668   4.656  17.333 -0.7340  0.4041  0.8322
 3399TIP3   OH231611   4.971   4.337  17.183  0.5271 -0.0596 -0.0416
 3399TIP3    H131612   4.901   4.327  17.247  1.6615 -1.8717  1.0030
 3399TIP3    H231613   4.930   4.381  17.109 -1.7178 -1.0562  0.5301
 3400TIP3   OH231614   5.441   2.531  11.336 -0.0903 -0.5284  0.1616
 3400TIP3    H131615   5.433   2.614  11.383  0.1165 -0.4624  0.0817
 3400TIP3    H231616   5.529   2.499  11.358  0.5026  0.1084 -1.1482
 3401TIP3   OH231617   6.224   6.520   2.756 -0.1730 -0.3116 -0.8116
 3401TIP3    H131618   6.290   6.536   2.824  0.1851 -1.5949 -0.8340
 3401TIP3    H231619   6.253   6.439   2.713 -1.3338 -0.4622 -1.3412
 3402TIP3   OH231620   3.280   4.299  13.133 -0.2495 -0.0899  0.6443
 3402TIP3    H131621   3.260   4.236  13.065 -2.6939  0.4583  0.7696
 3402TIP3    H231622   3.263   4.384  13.093 -1.5976  0.2478  1.8316
 3403TIP3   OH231623   1.208   4.342   5.707  0.9915 -0.1304 -0.4233
 3403TIP3    H131624   1.177   4.325   5.796  0.3334 -1.7082 -0.9197
 3403TIP3    H231625   1.198   4.436   5.696 -2.0530 -0.2831  0.0768
 3404TIP3   OH231626   2.917   0.149  16.118 -0.4335  0.0056 -0.0459
 3404TIP3    H131627   2.886   0.239  16.125 -0.7001 -0.1496  0.9962
 3404TIP3    H231628   3.010   0.153  16.140 -0.4109  0.0486 -0.1507
 3405TIP3   OH231629   1.954   4.214  17.369  0.0385 -0.0928 -0.1247
 3405TIP3    H131630   1.944   4.285  17.305  1.1638  0.0328 -0.1792
 3405TIP3    H231631   1.979   4.138  17.317  0.2639 -0.1666  0.0900
 3406TIP3   OH231632   6.717   2.169   5.176 -0.4225 -0.2247 -0.1816
 3406TIP3    H131633   6.669   2.147   5.256 -0.7165  1.5191  0.1527
 3406TIP3    H231634   6.746   2.084   5.142 -0.4537 -1.0257  1.6634
 3407TIP3   OH231635   5.065   6.059  10.799 -0.2718  0.1326  0.0497
 3407TIP3    H131636   5.114   5.990  10.843  0.1227  0.2389 -0.2154
 3407TIP3    H231637   5.111   6.072  10.716 -0.0531  1.0496  0.3030
 3408TIP3   OH231638   3.678   2.797   0.558  0.2757 -0.4137  0.1871
 3408TIP3    H131639   3.668   2.843   0.642  1.0167  1.2215 -0.5835
 3408TIP3    H231640   3.729   2.719   0.580  0.0034 -0.2965  1.3366
 3409TIP3   OH231641   1.397   0.026   4.112 -0.5616 -0.2256  0.2234
 3409TIP3    H131642   1.314   0.047   4.071 -0.9269  0.9177  1.4807
 3409TIP3    H231643   1.406  -0.069   4.100 -1.1694 -0.1032 -1.4529
 3410TIP3   OH231644   3.338   4.897   2.837 -0.3198 -0.7924  0.1712
 3410TIP3    H131645   3.415   4.942   2.802 -1.1343  0.3493 -0.2108
 3410TIP3    H231646   3.268   4.918   2.776 -1.0144 -1.5464  0.6860
 3411TIP3   OH231647   2.832   5.374  17.083 -0.2188 -0.3614 -0.9747
 3411TIP3    H131648   2.833   5.470  17.073  0.0706 -0.1183  1.0074
 3411TIP3    H231649   2.906   5.355  17.141 -1.9448 -1.4160  1.0442
 3412TIP3   OH231650   2.375   5.667   2.156  0.0687 -0.0877 -0.0111
 3412TIP3    H131651   2.396   5.686   2.247 -1.0006 -0.3656  0.3058
 3412TIP3    H231652   2.379   5.752   2.112 -1.1305  0.3274  0.6571
 3413TIP3   OH231653   5.462   4.719  16.733 -0.2593  0.4768  0.0729
 3413TIP3    H131654   5.383   4.768  16.712 -2.4855 -2.5711  0.5286
 3413TIP3    H231655   5.472   4.658  16.659  0.8921 -0.0602  0.6450
 3414TIP3   OH231656   2.287   6.577  14.335  0.2719 -0.6396 -0.1903
 3414TIP3    H131657   2.358   6.514  14.342 -0.2912 -1.2294  0.3552
 3414TIP3    H231658   2.209   6.525  14.316 -0.2906 -0.1812  0.7583
 3415TIP3   OH231659   6.564   4.605  16.130  0.2173  0.1161 -0.2498
 3415TIP3    H131660   6.530   4.544  16.065 -0.3549  1.9060 -1.7157
 3415TIP3    H231661   6.582   4.685  16.081  2.1947  0.7399  1.3436
 3416TIP3   OH231662   2.960   2.932  14.366  0.4079 -0.3442 -0.5312
 3416TIP3    H131663   3.028   2.920  14.299  0.8958 -2.3367  0.2544
 3416TIP3    H231664   2.879   2.902  14.325  0.0917  1.3422 -1.2199
 3417TIP3   OH231665   1.975   1.206   2.739  0.0370 -0.1742  0.3641
 3417TIP3    H131666   2.024   1.239   2.814 -1.0760 -0.2217  1.1396
 3417TIP3    H231667   1.892   1.255   2.741  0.6158  1.0501 -1.8159
 3418TIP3   OH231668   5.665   3.490  12.653 -0.0961 -0.7893  0.0938
 3418TIP3    H131669   5.592   3.432  12.631  0.0450 -0.4244 -1.4717
 3418TIP3    H231670   5.706   3.509  12.569  0.1622  1.1846  0.6095
 3419TIP3   OH231671   2.638   5.056  13.733 -0.9097 -0.4769 -0.1074
 3419TIP3    H131672   2.643   5.008  13.651 -1.7501  0.5078 -0.7735
 3419TIP3    H231673   2.585   5.001  13.790 -1.8227 -0.3904 -0.8432
 3420TIP3   OH231674   6.007   5.956  13.667  0.1192  0.1827 -1.0755
 3420TIP3    H131675   6.089   5.949  13.716 -1.0699 -0.3244  0.9396
 3420TIP3    H231676   5.988   6.050  13.666 -0.3998  0.1208  0.4713
 3421TIP3   OH231677   4.870   1.661   1.872  0.5839 -0.0127 -0.3207
 3421TIP3    H131678   4.840   1.590   1.814  0.9475 -1.2479  0.9462
 3421TIP3    H231679   4.957   1.684   1.838  0.2052  0.2900 -1.1236
 3422TIP3   OH231680   6.010   0.980   5.884  0.3222 -0.2522  0.6804
 3422TIP3    H131681   6.053   0.947   5.806 -2.4049  1.1993 -1.6393
 3422TIP3    H231682   5.982   0.902   5.932 -0.3513 -1.2478 -1.2550
 3423TIP3   OH231683   1.758   1.344  14.736  0.2848 -0.1210 -0.0457
 3423TIP3    H131684   1.709   1.426  14.736 -1.6933 -1.2474 -0.4418
 3423TIP3    H231685   1.743   1.306  14.823 -0.0599 -0.7516 -0.3722
 3424TIP3   OH231686   2.931   3.409   4.068 -0.1371  0.4454  0.0653
 3424TIP3    H131687   2.919   3.325   4.112  0.4235  0.3969  0.1259
 3424TIP3    H231688   2.882   3.401   3.986  1.7632 -0.7941 -1.0323
 3425TIP3   OH231689   0.029   1.766  14.700  0.0088 -0.6607  0.6102
 3425TIP3    H131690   0.098   1.704  14.724  0.6934 -0.1474 -0.0209
 3425TIP3    H231691   0.019   1.822  14.778  0.8031 -0.2845  0.4447
 3426TIP3   OH231692   6.549   5.757   3.695  0.1559 -0.3154  0.0993
 3426TIP3    H131693   6.532   5.717   3.781  1.8719  0.7859  1.0163
 3426TIP3    H231694   6.601   5.835   3.715 -1.7994  1.5863 -1.7396
 3427TIP3   OH231695   5.848   3.197   1.782 -0.9196  0.3443 -0.2023
 3427TIP3    H131696   5.760   3.195   1.821 -1.3829 -0.6074 -1.2364
 3427TIP3    H231697   5.833   3.179   1.689  0.1302  2.7347 -0.9030
 3428TIP3   OH231698   3.548   6.082   4.871  0.2648  0.0443 -0.3833
 3428TIP3    H131699   3.495   6.124   4.939  0.2233 -0.7124  0.0663
 3428TIP3    H231700   3.638   6.103   4.895  0.2408 -0.0256 -0.2336
 3429TIP3   OH231701   2.467   4.858  13.634  0.4768 -0.5296  0.0492
 3429TIP3    H131702   2.454   4.786  13.696  1.4197 -0.3823  0.4328
 3429TIP3    H231703   2.402   4.924  13.659  0.8741 -0.4551  0.9009
 3430TIP3   OH231704   1.387   3.534  14.074 -0.1360  0.6690 -0.5142
 3430TIP3    H131705   1.325   3.607  14.074 -0.8475  0.0950  0.2971
 3430TIP3    H231706   1.332   3.456  14.081  0.6292  0.0757 -0.9820
 3431TIP3   OH231707   2.407   1.238  14.170  0.3016  0.0669  0.0891
 3431TIP3    H131708   2.393   1.327  14.205 -0.3054  0.8299 -1.9489
 3431TIP3    H231709   2.349   1.233  14.094  0.5768 -1.9852 -0.0343
 3432TIP3   OH231710   4.199   0.276  12.055 -0.1907  0.0130 -0.5852
 3432TIP3    H131711   4.155   0.290  12.138  0.5326  0.9942 -0.3457
 3432TIP3    H231712   4.245   0.359  12.038  1.0916 -0.7712 -1.0881
 3433TIP3   OH231713   6.426   3.998   6.769 -0.6399 -0.2671 -0.3846
 3433TIP3    H131714   6.334   4.009   6.745 -0.5520  2.2513  0.0955
 3433TIP3    H231715   6.431   3.910   6.805 -2.4140 -1.2279 -2.2564
 3434TIP3   OH231716   6.138   2.494   2.985 -0.4023  0.0182 -0.9101
 3434TIP3    H131717   6.211   2.440   2.955  0.0212 -0.0333  0.1748
 3434TIP3    H231718   6.129   2.474   3.078 -2.0861 -0.2810 -1.1096
 3435TIP3   OH231719   5.150   3.929   1.336  0.1167 -0.0628 -0.0675
 3435TIP3    H131720   5.155   4.010   1.285  1.3919  1.1049  1.8109
 3435TIP3    H231721   5.241   3.909   1.359 -0.2065 -1.8499 -0.1712
 3436TIP3   OH231722   3.474   3.828   0.856  0.1885  0.5222  0.3117
 3436TIP3    H131723   3.558   3.819   0.901 -0.1675 -0.0584  0.8695
 3436TIP3    H231724   3.460   3.922   0.850  0.6547  0.6146  0.6387
 3437TIP3   OH231725   3.202   0.882   6.441 -0.5524 -0.2568 -0.0025
 3437TIP3    H131726   3.169   0.878   6.531 -0.0586 -0.6174  0.1689
 3437TIP3    H231727   3.186   0.795   6.405 -2.0772  0.3033 -0.7620
 3438TIP3   OH231728   6.623   4.611  12.787  0.0410  0.4059 -0.2566
 3438TIP3    H131729   6.613   4.521  12.756  0.2653  0.2734  0.0482
 3438TIP3    H231730   6.642   4.662  12.708 -1.0398  0.3499 -0.5678
 3439TIP3   OH231731   4.750   1.755   5.432 -0.4940 -0.2967 -0.5716
 3439TIP3    H131732   4.736   1.803   5.514 -1.2502 -1.5202  0.0433
 3439TIP3    H231733   4.805   1.813   5.380 -2.3861  1.8278 -0.3707
 3440TIP3   OH231734   5.369   2.033  15.418 -0.3666  0.6727  0.0948
 3440TIP3    H131735   5.323   2.066  15.496 -0.5639 -0.2134  0.3735
 3440TIP3    H231736   5.348   2.095  15.349 -0.4359  1.3115  0.6801
 3441TIP3   OH231737   6.328   3.136  13.423 -0.2838 -0.6722 -0.1333
 3441TIP3    H131738   6.248   3.112  13.376 -0.6432  0.1945  0.0244
 3441TIP3    H231739   6.298   3.178  13.503  0.2991  1.0488 -0.7775
 3442TIP3   OH231740   1.212   3.470   2.395  0.2470 -0.1248  0.7326
 3442TIP3    H131741   1.186   3.562   2.386 -0.2587 -0.3315 -0.0530
 3442TIP3    H231742   1.265   3.452   2.317  1.9669  0.0140  1.8306
 3443TIP3   OH231743   3.311   6.046  13.874 -0.3496  0.4252  0.0359
 3443TIP3    H131744   3.313   6.083  13.786 -0.0294  0.6221  0.1254
 3443TIP3    H231745   3.363   6.106  13.927 -2.6569  1.7578  0.9447
 3444TIP3   OH231746   4.639   6.039   3.264 -0.0796 -0.8899 -0.0898
 3444TIP3    H131747   4.693   6.118   3.266 -1.6487  0.2143  0.1686
 3444TIP3    H231748   4.674   5.984   3.335 -0.7502  0.8178  1.6452
 3445TIP3   OH231749   6.683   5.968  13.818 -0.1903 -0.8334 -0.4842
 3445TIP3    H131750   6.737   5.949  13.895  0.4535 -1.8144 -1.1604
 3445TIP3    H231751   6.602   6.004  13.854  0.7543  0.3515  0.5782
 3446TIP3   OH231752   1.079   3.728   5.374 -0.1146  0.1112  0.0111
 3446TIP3    H131753   1.039   3.796   5.428 -1.9931 -0.6196 -0.3708
 3446TIP3    H231754   1.154   3.698   5.424 -0.4793  1.0270  1.1412
 3447TIP3   OH231755   0.868   4.559  11.030 -0.1388 -0.2034  0.2443
 3447TIP3    H131756   0.887   4.537  11.121 -0.8426 -1.9191  0.0069
 3447TIP3    H231757   0.950   4.540  10.983  0.6091  1.7919  0.6419
 3448TIP3   OH231758   0.221   5.917   2.720  0.2532  0.1757  0.2560
 3448TIP3    H131759   0.193   5.827   2.732  1.5369 -0.4730 -1.2241
 3448TIP3    H231760   0.140   5.965   2.701 -0.4837 -0.5722  1.4016
 3449TIP3   OH231761   0.541   4.608   3.964  0.4978 -0.2084  0.0506
 3449TIP3    H131762   0.486   4.556   3.905 -0.0021 -0.5727  0.8147
 3449TIP3    H231763   0.488   4.618   4.043 -0.0400  2.7642 -0.5780
 3450TIP3   OH231764   5.221   4.175   4.757  0.0510 -0.0686 -0.4436
 3450TIP3    H131765   5.165   4.098   4.747 -0.0968 -0.1470  0.8720
 3450TIP3    H231766   5.174   4.245   4.713 -1.1453 -0.1150  0.6891
 3451TIP3   OH231767   2.413   0.314   6.251  0.3712  0.3991 -0.1314
 3451TIP3    H131768   2.386   0.349   6.336  0.2226  0.8254 -0.3505
 3451TIP3    H231769   2.334   0.276   6.215  0.5633 -0.3093  0.1677
 3452TIP3   OH231770   5.095   0.705  13.801  0.0151 -0.2146  0.1977
 3452TIP3    H131771   5.146   0.692  13.881  1.2863 -1.9119 -0.8222
 3452TIP3    H231772   5.020   0.759  13.828  1.9760  1.8436  1.8844
 3453TIP3   OH231773   5.029   1.298  15.164 -0.0133  0.1538 -0.1658
 3453TIP3    H131774   5.049   1.266  15.252  1.0783  1.9399  0.2821
 3453TIP3    H231775   5.078   1.240  15.106 -1.1262 -1.3508  0.3309
 3454TIP3   OH231776   0.924   1.768  17.188  0.3849  0.5714 -0.2073
 3454TIP3    H131777   0.899   1.693  17.134 -0.6284 -0.2105  1.2731
 3454TIP3    H231778   1.000   1.806  17.144  2.4114 -2.6856  0.1712
 3455TIP3   OH231779   2.625   3.011  12.310 -0.4229  0.5249 -0.3421
 3455TIP3    H131780   2.661   3.069  12.243 -0.2394  0.1066 -0.6096
 3455TIP3    H231781   2.610   2.928  12.265  1.3701 -0.3375  0.5097
 3456TIP3   OH231782   1.925   2.182   4.114 -0.1955 -0.8317  0.4482
 3456TIP3    H131783   1.893   2.092   4.117 -1.6254 -0.3156  2.4841
 3456TIP3    H231784   1.957   2.200   4.202 -0.1195  0.7089  0.1447
 3457TIP3   OH231785   6.114   0.009   4.738 -0.0978  0.2123  0.1359
 3457TIP3    H131786   6.039   0.042   4.788 -0.5050  0.0063 -0.3323
 3457TIP3    H231787   6.075  -0.042   4.668  0.3463  2.3227 -1.7577
 3458TIP3   OH231788   3.499   3.544   5.695  0.1978 -0.3012  0.2314
 3458TIP3    H131789   3.470   3.566   5.784  0.3674 -1.8845  0.7107
 3458TIP3    H231790   3.594   3.557   5.697  0.2098 -0.3993  0.3014
 3459TIP3   OH231791   6.402   3.684   1.580  0.1207  0.1665 -0.5528
 3459TIP3    H131792   6.431   3.634   1.504 -0.3389 -0.5583 -0.2579
 3459TIP3    H231793   6.348   3.623   1.631  0.5683  0.5742  0.4519
 3460TIP3   OH231794   0.826   1.700  12.408 -0.4145 -0.6228 -0.6234
 3460TIP3    H131795   0.771   1.778  12.403 -0.4698 -0.6747 -0.8113
 3460TIP3    H231796   0.765   1.626  12.399 -0.4401 -0.7065  0.1387
 3461TIP3   OH231797   4.995   4.493  15.234 -1.0170 -0.4985 -0.0611
 3461TIP3    H131798   5.031   4.581  15.219  0.5685 -0.3815  3.3667
 3461TIP3    H231799   4.902   4.502  15.212 -0.5455  1.4719 -1.6059
 3462TIP3   OH231800   3.779   1.575   0.856  0.1613  0.1860 -0.3351
 3462TIP3    H131801   3.720   1.501   0.873 -0.8802  0.6106 -1.8965
 3462TIP3    H231802   3.789   1.618   0.941 -0.4034 -0.8868  0.2924
 3463TIP3   OH231803   1.774   1.825   3.109 -0.3310 -0.4793 -0.4029
 3463TIP3    H131804   1.752   1.843   3.200  0.3325 -2.5279  0.2229
 3463TIP3    H231805   1.740   1.737   3.093  0.7034 -0.6740 -1.7284
 3464TIP3   OH231806   0.821   1.441  16.478  0.8346  0.8652  0.1736
 3464TIP3    H131807   0.889   1.381  16.446  0.0633  0.6339 -1.0834
 3464TIP3    H231808   0.850   1.464  16.566  1.6960 -0.5264  0.2961
 3465TIP3   OH231809   2.176   5.128  16.742  0.2931 -0.6070 -0.2457
 3465TIP3    H131810   2.084   5.152  16.731  0.3797 -0.6135 -1.0711
 3465TIP3    H231811   2.220   5.212  16.757  0.2286 -0.5348 -0.4484
 3466TIP3   OH231812   1.122   5.912   5.629  0.3740  0.2994 -0.5603
 3466TIP3    H131813   1.099   5.821   5.647  1.0275 -0.2209 -2.1891
 3466TIP3    H231814   1.039   5.954   5.607 -0.3130  0.7331  2.3579
 3467TIP3   OH231815   0.780   3.889   2.090 -0.1048 -0.1866 -0.9027
 3467TIP3    H131816   0.758   3.815   2.034 -0.3162  0.8228 -2.2084
 3467TIP3    H231817   0.718   3.957   2.065 -0.3062  0.2604  0.6898
 3468TIP3   OH231818   4.930   6.250   5.257 -0.1929  0.3766  0.5196
 3468TIP3    H131819   5.003   6.307   5.282  0.6310 -0.3075 -0.2657
 3468TIP3    H231820   4.971   6.176   5.213 -1.2880 -0.6056  1.1029
 3469TIP3   OH231821   1.541   2.276   2.259 -0.1350  0.1221  0.2958
 3469TIP3    H131822   1.474   2.208   2.249  0.6016 -0.6385  0.3767
 3469TIP3    H231823   1.558   2.306   2.170 -0.1749 -0.0847  0.2180
 3470TIP3   OH231824   4.125   5.436   2.325 -0.0238 -0.2750  0.1956
 3470TIP3    H131825   4.114   5.373   2.396 -1.2612 -0.5238 -0.1915
 3470TIP3    H231826   4.068   5.509   2.348  0.7598  0.3405  0.2219
 3471TIP3   OH231827   3.184   2.085  16.568 -0.2667 -0.0561  0.5513
 3471TIP3    H131828   3.243   2.034  16.623  0.0997 -0.0940  0.1336
 3471TIP3    H231829   3.099   2.041  16.577  0.0442 -0.7550  0.1959
 3472TIP3   OH231830   0.902   6.621  12.682  0.5465 -0.0670 -0.8844
 3472TIP3    H131831   0.819   6.581  12.709  0.3574  1.1265  0.4206
 3472TIP3    H231832   0.928   6.572  12.604 -1.9626  0.2536 -2.0253
 3473TIP3   OH231833   0.274   1.131  16.417 -0.0543  0.1072  0.6161
 3473TIP3    H131834   0.269   1.089  16.331 -1.0009  0.0756  0.6665
 3473TIP3    H231835   0.188   1.114  16.457  0.3714  0.1122  1.5729
 3474TIP3   OH231836   5.584   1.157   3.268  0.0810 -0.0149 -0.1030
 3474TIP3    H131837   5.616   1.069   3.288  1.5107 -0.1921 -2.7630
 3474TIP3    H231838   5.639   1.215   3.321  0.0787 -0.6262  0.5946
 3475TIP3   OH231839   4.612   4.049   5.750  0.2253 -0.3448 -0.2644
 3475TIP3    H131840   4.529   4.015   5.715  0.0191  1.1634 -1.3503
 3475TIP3    H231841   4.611   4.024   5.843 -1.3398 -0.5791 -0.3159
 3476TIP3   OH231842   5.364   3.878   4.652 -0.1100  0.4302 -0.4415
 3476TIP3    H131843   5.371   3.879   4.556 -0.1726 -0.7135 -0.4701
 3476TIP3    H231844   5.271   3.890   4.669 -0.5234 -2.0565 -0.6375
 3477TIP3   OH231845   0.687   5.805  17.085  0.2823  0.1079  0.3399
 3477TIP3    H131846   0.718   5.716  17.066  1.0544  0.7517 -1.6463
 3477TIP3    H231847   0.764   5.861  17.070 -0.2929  1.1705  1.1902
 3478TIP3   OH231848   1.102   1.508  12.912  0.1085  0.2243  0.3722
 3478TIP3    H131849   1.032   1.448  12.888  0.1136  0.4466 -0.2332
 3478TIP3    H231850   1.182   1.463  12.885  0.0478  0.9705 -1.1777
 3479TIP3   OH231851   2.190   1.826  14.898 -0.3141 -0.5802 -0.2112
 3479TIP3    H131852   2.275   1.814  14.857  0.1235  0.7606  0.2599
 3479TIP3    H231853   2.210   1.862  14.985 -1.3758  0.2236 -0.2843
 3480TIP3   OH231854   1.943   4.674   5.868  0.1087  0.8953  0.2352
 3480TIP3    H131855   1.970   4.648   5.956 -1.0617  0.2774  0.4412
 3480TIP3    H231856   2.015   4.648   5.811  0.2884  0.0403  0.8445
 3481TIP3   OH231857   3.216   1.762  10.772 -0.5283 -0.1040 -0.1236
 3481TIP3    H131858   3.284   1.829  10.768  0.3197 -1.0091 -2.6338
 3481TIP3    H231859   3.151   1.791  10.707 -0.7507 -1.0916 -0.3454
 3482TIP3   OH231860   1.449   4.114   2.859  0.4510  0.2368  0.3413
 3482TIP3    H131861   1.432   4.046   2.794 -0.6533  0.1160  0.7491
 3482TIP3    H231862   1.528   4.084   2.904  2.1663  1.0698 -1.9140
 3483TIP3   OH231863   4.914   0.317  12.637  0.4150 -0.2164 -0.0564
 3483TIP3    H131864   4.827   0.320  12.677  0.5551 -3.4145  0.7562
 3483TIP3    H231865   4.903   0.261  12.559  1.4152  0.7819 -0.9562
 3484TIP3   OH231866   0.743   5.682   0.284 -0.0830  0.0316  0.5638
 3484TIP3    H131867   0.789   5.599   0.272  0.4976  0.5613 -1.2081
 3484TIP3    H231868   0.763   5.733   0.205 -2.6355  0.8150  0.3017
 3485TIP3   OH231869   4.753   5.214  11.974  0.2932 -0.0020 -0.3371
 3485TIP3    H131870   4.807   5.197  11.897  1.2979  1.4939  0.0008
 3485TIP3    H231871   4.680   5.267  11.941  1.2233  1.4442 -0.1334
 3486TIP3   OH231872   1.382   0.464  16.952  0.1777  0.2105 -0.2770
 3486TIP3    H131873   1.424   0.425  17.028  0.2581  1.9781  0.6184
 3486TIP3    H231874   1.318   0.525  16.988 -0.0967  0.7496 -1.6219
 3487TIP3   OH231875   2.382   5.606  14.635  0.4034 -0.0064 -0.1105
 3487TIP3    H131876   2.345   5.623  14.549  0.7754  1.7906  0.0366
 3487TIP3    H231877   2.345   5.674  14.692  1.8935  0.2453  0.6155
 3488TIP3   OH231878   6.759   5.416  16.417 -0.0896 -0.4168 -0.1139
 3488TIP3    H131879   6.853   5.425  16.401 -0.0805  1.2226  0.7223
 3488TIP3    H231880   6.748   5.437  16.510 -1.0123 -2.9757  0.4416
 3489TIP3   OH231881   1.342   5.122   4.562 -0.1070 -0.0533  0.1115
 3489TIP3    H131882   1.364   5.164   4.479  0.4193  0.4593  0.5094
 3489TIP3    H231883   1.327   5.030   4.539  1.7287 -0.2899 -0.3067
 3490TIP3   OH231884   4.427   0.067  16.590  0.3565 -0.3096  0.4462
 3490TIP3    H131885   4.379   0.033  16.666 -1.4354  0.2640 -0.3889
 3490TIP3    H231886   4.359   0.102  16.532  1.6901 -0.6253 -1.3820
 3491TIP3   OH231887   0.044   2.231  12.990  0.3304  0.0391  0.0532
 3491TIP3    H131888   0.036   2.192  13.077 -0.6769 -1.7775 -0.7885
 3491TIP3    H231889   0.136   2.217  12.966  0.9064  1.5415  1.2140
 3492TIP3   OH231890   2.816   6.584  14.898 -0.5018 -0.3287 -0.1554
 3492TIP3    H131891   2.812   6.525  14.973 -2.8381  0.1681  0.2053
 3492TIP3    H231892   2.791   6.529  14.824 -0.0863 -0.3854 -0.2526
 3493TIP3   OH231893   5.364   2.204  13.838 -0.0383 -0.0092  0.3917
 3493TIP3    H131894   5.378   2.112  13.815 -0.3108 -0.1077  0.6051
 3493TIP3    H231895   5.319   2.241  13.762  0.8005  0.1565 -0.0365
 3494TIP3   OH231896   4.675   5.528   1.871  0.4995  0.2617  0.0735
 3494TIP3    H131897   4.612   5.459   1.891  0.1120  0.3921 -0.6408
 3494TIP3    H231898   4.658   5.548   1.779  0.5731  1.3469  0.2899
 3495TIP3   OH231899   2.708   2.237  14.652 -0.8066 -0.4281 -0.4939
 3495TIP3    H131900   2.754   2.262  14.733  0.5975  1.9685 -1.9350
 3495TIP3    H231901   2.630   2.191  14.683 -0.7972  1.1715  2.2526
 3496TIP3   OH231902   2.259   6.188   5.281 -0.1622  0.0337  0.5171
 3496TIP3    H131903   2.181   6.132   5.279  0.7762 -1.2930 -0.7614
 3496TIP3    H231904   2.224   6.277   5.291 -2.0130 -0.2482 -2.3716
 3497TIP3   OH231905   1.246   4.174  16.687  0.2060  0.2224  0.6596
 3497TIP3    H131906   1.162   4.217  16.675  0.0240  0.1003  1.4067
 3497TIP3    H231907   1.306   4.245  16.711  0.0212  0.1470  1.3821
 3498TIP3   OH231908   3.832   5.295  11.802  0.2881 -0.2130  0.2755
 3498TIP3    H131909   3.891   5.324  11.872 -0.1214 -0.4381  0.7196
 3498TIP3    H231910   3.879   5.222  11.760  0.5064 -0.1203  0.3601
 3499TIP3   OH231911   5.509   1.288  17.248 -0.5893  0.4459 -0.0932
 3499TIP3    H131912   5.433   1.261  17.300  0.9677 -0.9196  1.5932
 3499TIP3    H231913   5.563   1.338  17.309  0.0547  1.0939 -1.1666
 3500TIP3   OH231914   4.312   4.374   1.925 -0.0956 -0.7460 -0.4700
 3500TIP3    H131915   4.290   4.377   2.018  0.6136  0.8079 -0.3233
 3500TIP3    H231916   4.313   4.280   1.904 -1.4566 -1.0818  0.7778
 3501TIP3   OH231917   5.302   1.601  12.555 -0.2825  0.1648  0.3551
 3501TIP3    H131918   5.220   1.584  12.602 -0.1553 -0.8952  0.2261
 3501TIP3    H231919   5.279   1.593  12.463 -0.0681 -0.0228  0.3155
 3502TIP3   OH231920   6.101   4.439   1.996  0.2335 -0.3329 -0.1468
 3502TIP3    H131921   6.056   4.524   1.989 -0.1128 -0.4949  0.0980
 3502TIP3    H231922   6.076   4.393   1.916 -1.8935 -1.3004  0.9937
 3503TIP3   OH231923   1.923   3.150   3.741 -0.0016  0.3301  0.0492
 3503TIP3    H131924   1.964   3.064   3.751  0.2830  0.3602 -0.8059
 3503TIP3    H231925   1.975   3.208   3.797  0.5940  0.1947 -0.3560
 3504TIP3   OH231926   2.484   1.190  15.148 -0.6400  0.3901 -0.5113
 3504TIP3    H131927   2.472   1.204  15.242 -0.4891 -0.4366 -0.3610
 3504TIP3    H231928   2.412   1.132  15.124  0.4226 -0.9745 -0.5066
 3505TIP3   OH231929   3.982   2.836   5.997 -0.0759 -0.1974  0.4862
 3505TIP3    H131930   3.970   2.760   6.055  0.3835  0.4153  1.4150
 3505TIP3    H231931   4.016   2.904   6.055  0.0263  0.5543 -0.4470
 3506TIP3   OH231932   0.328   0.945   5.336 -0.2155 -0.6651 -0.3700
 3506TIP3    H131933   0.346   0.883   5.265  0.8668 -1.1349  0.2880
 3506TIP3    H231934   0.292   0.890   5.406  1.4241 -0.7181  0.4850
 3507TIP3   OH231935   3.162   0.945  12.534 -0.3063  0.5450 -0.8315
 3507TIP3    H131936   3.067   0.956  12.538 -0.5139 -1.1176 -0.2470
 3507TIP3    H231937   3.186   0.915  12.622  0.9944  2.3074 -0.5294
 3508TIP3   OH231938   5.637   3.997   4.432  0.5544  1.0717 -0.8578
 3508TIP3    H131939   5.656   4.002   4.525 -1.1026 -1.8477 -0.2651
 3508TIP3    H231940   5.721   3.973   4.391  1.1495  1.7878 -0.0840
 3509TIP3   OH231941   2.521   0.122   3.503 -0.5948 -0.4304  0.2242
 3509TIP3    H131942   2.581   0.193   3.481 -0.9315  0.3154  1.5896
 3509TIP3    H231943   2.575   0.043   3.500  0.0994  0.0450 -0.0455
 3510TIP3   OH231944   5.018   2.573   0.999 -0.0724 -0.4273  0.5080
 3510TIP3    H131945   5.055   2.599   1.084  0.5015  0.1529  0.0848
 3510TIP3    H231946   5.025   2.652   0.945 -1.7021 -0.3689  0.3313
 3511TIP3   OH231947   5.947   5.379   3.168  0.0141 -0.1704  0.4233
 3511TIP3    H131948   5.920   5.307   3.226 -1.0132 -0.4300 -0.3450
 3511TIP3    H231949   5.956   5.338   3.082  2.1070  0.0848  0.4557
 3512TIP3   OH231950   0.177   6.028  17.087 -0.7444  0.1821  0.3342
 3512TIP3    H131951   0.125   5.952  17.062 -0.5572  0.1186  0.1277
 3512TIP3    H231952   0.197   6.071  17.004  2.1934 -1.5265 -0.0022
 3513TIP3   OH231953   5.366   6.316  11.756  0.0787  0.6991  0.4690
 3513TIP3    H131954   5.413   6.397  11.734  0.5235  0.9502  2.2193
 3513TIP3    H231955   5.276   6.344  11.771  0.3716  1.0164  1.7533
 3514TIP3   OH231956   2.935   3.628   6.599 -0.3693  0.3402 -0.0593
 3514TIP3    H131957   2.894   3.559   6.651 -0.1600 -1.5063 -2.1954
 3514TIP3    H231958   2.863   3.666   6.550  0.1078 -2.1794 -3.0007
 3515TIP3   OH231959   4.469   5.519  14.871 -0.5922 -0.5938  0.6931
 3515TIP3    H131960   4.513   5.495  14.789 -0.8609 -1.3505  0.7590
 3515TIP3    H231961   4.513   5.468  14.938 -1.1919 -0.9399  0.8356
 3516TIP3   OH231962   6.147   2.132  12.069 -0.2739  0.6122  0.1849
 3516TIP3    H131963   6.134   2.186  12.147 -0.1339  0.0873  0.5734
 3516TIP3    H231964   6.171   2.195  12.001 -0.2832  1.0607  0.5879
 3517TIP3   OH231965   6.146   3.778   6.033  0.7367  0.1955  0.1189
 3517TIP3    H131966   6.225   3.748   6.077  0.2913  0.2537  0.9927
 3517TIP3    H231967   6.151   3.741   5.945  0.8827 -1.2659  0.7135
 3518TIP3   OH231968   3.391   6.182  16.359 -0.3233  0.0855 -0.0237
 3518TIP3    H131969   3.471   6.156  16.404  1.0479  1.4073 -1.5221
 3518TIP3    H231970   3.402   6.148  16.270 -2.8687 -2.3151  0.4676
 3519TIP3   OH231971   4.914   3.129  16.898  0.4987 -0.3011  0.7530
 3519TIP3    H131972   4.869   3.153  16.818  1.7917 -2.0462 -0.5895
 3519TIP3    H231973   4.868   3.050  16.929  0.4956 -0.0950  1.2862
 3520TIP3   OH231974   1.925   6.091  16.608 -0.2774 -0.5857 -0.0560
 3520TIP3    H131975   1.925   6.140  16.690 -1.0514 -1.9273  0.7950
 3520TIP3    H231976   1.946   6.156  16.541  0.1980  0.5807  1.1745
 3521TIP3   OH231977   2.044   6.355  17.036  0.1374  0.3539 -0.5476
 3521TIP3    H131978   1.958   6.391  17.015 -0.2999  0.1488  0.7808
 3521TIP3    H231979   2.104   6.397  16.975 -0.5117  2.4765  0.2005
 3522TIP3   OH231980   4.150   5.246   5.217  0.1291 -0.1871 -0.1950
 3522TIP3    H131981   4.236   5.275   5.185  0.5067 -0.3674  0.6297
 3522TIP3    H231982   4.159   5.243   5.312  0.4620 -3.9225 -0.1721
 3523TIP3   OH231983   1.983   1.872   4.852 -0.4151 -0.4293  0.0028
 3523TIP3    H131984   1.972   1.806   4.920 -0.7676  0.7608  1.1442
 3523TIP3    H231985   1.906   1.861   4.796 -1.1765 -0.1381  0.9522
 3524TIP3   OH231986   3.157   3.271   1.342  0.3128  0.0626  0.0967
 3524TIP3    H131987   3.081   3.217   1.319  0.2640 -0.3221  1.0925
 3524TIP3    H231988   3.219   3.210   1.383  0.5949  0.6098  0.5146
 3525TIP3   OH231989   6.341   1.790   0.292 -0.2967  0.4137  0.8647
 3525TIP3    H131990   6.384   1.796   0.206 -0.4107  0.2841  0.7970
 3525TIP3    H231991   6.405   1.825   0.354 -0.0046  0.0099  0.7942
 3526TIP3   OH231992   6.519   3.554   5.809 -0.2293  0.0952 -0.9316
 3526TIP3    H131993   6.453   3.488   5.789  0.1382 -0.6171  0.1115
 3526TIP3    H231994   6.479   3.637   5.782 -0.6175 -0.5502 -2.4610
 3527TIP3   OH231995   4.164   1.048  15.537  0.1831  0.8925  0.1257
 3527TIP3    H131996   4.232   0.987  15.509 -0.1494  0.1905  0.8127
 3527TIP3    H231997   4.102   1.050  15.464  0.1748  0.3833  0.1181
 3528TIP3   OH231998   3.497   0.464  11.957  0.1737  0.3070 -0.0507
 3528TIP3    H131999   3.491   0.499  11.868 -0.8430 -0.8298 -0.4688
 3528TIP3    H232000   3.430   0.395  11.960  0.0930  0.4077  1.6385
 3529TIP3   OH232001   1.775   3.337  16.916  0.1290  0.0901 -0.2415
 3529TIP3    H132002   1.819   3.396  16.856  0.0651 -1.9141 -2.4132
 3529TIP3    H232003   1.816   3.354  17.001  0.6207  2.6303 -0.9040
 3530TIP3   OH232004   0.003   4.848   0.081 -0.0089 -0.1750  0.2823
 3530TIP3    H132005   0.039   4.798   0.008  3.1135  1.7968  0.2899
 3530TIP3    H232006   0.024   4.797   0.159 -2.0742 -1.5753  0.0072
 3531TIP3   OH232007   2.296   4.233  11.722 -0.4839 -0.0548 -0.0301
 3531TIP3    H132008   2.228   4.179  11.681  1.3331 -1.7725 -0.9294
 3531TIP3    H232009   2.297   4.313  11.670 -0.3610 -0.9065 -1.3764
 3532TIP3   OH232010   6.544   6.587  11.745 -0.2982 -0.0207 -0.0087
 3532TIP3    H132011   6.552   6.648  11.819  1.0536  1.2404 -1.1296
 3532TIP3    H232012   6.462   6.541  11.761 -0.7996  1.2873  1.4896
 3533TIP3   OH232013   5.534   0.722  17.362 -0.5878 -0.7034 -0.1928
 3533TIP3    H132014   5.451   0.722  17.409 -0.3347  0.3423  0.2783
 3533TIP3    H232015   5.561   0.814  17.360  0.1641 -0.9254 -1.0441
 3534TIP3   OH232016   4.515   5.313   4.673  0.3800  0.4089  0.1907
 3534TIP3    H132017   4.553   5.359   4.748  1.0040  0.7951 -0.3511
 3534TIP3    H232018   4.483   5.230   4.708 -0.1708  0.9838  1.0583
 3535TIP3   OH232019   3.366   4.037  14.402  0.6101  0.3121  0.3551
 3535TIP3    H132020   3.273   4.045  14.384  0.6817  0.9346  0.2264
 3535TIP3    H232021   3.409   4.069  14.322  0.9747 -2.5991 -0.7325
 3536TIP3   OH232022   5.280   0.580  16.672  0.8836  0.9111  0.1151
 3536TIP3    H132023   5.197   0.629  16.674  0.8972  0.9117  2.1093
 3536TIP3    H232024   5.342   0.637  16.718  1.3770 -0.1688  0.8046
 3537TIP3   OH232025   5.835   6.188   6.524  0.2849 -0.0906 -0.2820
 3537TIP3    H132026   5.903   6.230   6.577  0.8802 -0.7364 -0.5198
 3537TIP3    H232027   5.861   6.096   6.521 -2.2884 -1.0464  2.3044
 3538TIP3   OH232028   4.545   4.927   5.081 -0.0060  0.0067 -0.0409
 3538TIP3    H132029   4.625   4.899   5.037  0.3199  0.5821  0.1764
 3538TIP3    H232030   4.478   4.868   5.048  0.6271 -0.9052  0.2633
 3539TIP3   OH232031   2.173   6.508   5.405  0.0920 -0.2658 -0.0416
 3539TIP3    H132032   2.182   6.599   5.433  0.3393  0.0097 -0.9910
 3539TIP3    H232033   2.230   6.501   5.329 -0.7536 -0.9286 -0.6251
 3540TIP3   OH232034   0.111   1.366  11.240 -0.4084  0.3243  0.2653
 3540TIP3    H132035   0.025   1.325  11.251 -0.4976 -0.4476 -2.5645
 3540TIP3    H232036   0.097   1.435  11.176  1.1225 -0.0609 -0.5349
 3541TIP3   OH232037   2.243   2.992   3.536 -0.1893  0.3673  0.1067
 3541TIP3    H132038   2.179   3.002   3.466 -0.3333 -0.6851  0.0697
 3541TIP3    H232039   2.319   2.952   3.493  0.1743  0.8317  0.3149
 3542TIP3   OH232040   6.055   5.283  15.111 -0.5929  0.4613  0.2225
 3542TIP3    H132041   5.966   5.313  15.127 -0.7613  0.4230 -0.6119
 3542TIP3    H232042   6.045   5.191  15.086 -0.2876  0.3604  0.4640
 3543TIP3   OH232043   4.626   5.726  13.840  0.5917 -0.8176 -0.2839
 3543TIP3    H132044   4.556   5.705  13.902  2.8428  1.3268  3.3734
 3543TIP3    H232045   4.683   5.649  13.842  0.3488 -0.9943 -0.1274
 3544TIP3   OH232046   6.547   2.159  12.964  0.1251 -0.2477  0.1445
 3544TIP3    H132047   6.586   2.072  12.954  1.6940  0.2351  1.6439
 3544TIP3    H232048   6.621   2.217  12.977 -0.8416  1.4850 -1.6272
 3545TIP3   OH232049   5.757   3.378  14.938  0.4158  0.5333 -0.2884
 3545TIP3    H132050   5.723   3.448  14.994 -0.7212 -0.9793  1.0216
 3545TIP3    H232051   5.739   3.407  14.849 -0.0130  1.9112  0.2254
 3546TIP3   OH232052   5.733   3.209  13.841 -0.2046  0.5701 -0.1464
 3546TIP3    H132053   5.745   3.292  13.887 -1.1231  1.3821 -1.2875
 3546TIP3    H232054   5.764   3.227  13.752  2.0872 -1.1292  0.2345
 3547TIP3   OH232055   6.169   6.223   4.417  0.2085  0.8475 -0.3981
 3547TIP3    H132056   6.261   6.209   4.439  0.4422  1.1228 -1.1770
 3547TIP3    H232057   6.151   6.312   4.447  0.0473  0.6160  0.2129
 3548TIP3   OH232058   5.887   4.862  14.644  0.2013  0.0928  0.0854
 3548TIP3    H132059   5.966   4.855  14.591  0.9921  5.5761 -0.0062
 3548TIP3    H232060   5.821   4.812  14.595  2.1624  0.4076 -3.1883
 3549TIP3   OH232061   4.159   1.395   4.666  0.7773  0.3706 -0.0049
 3549TIP3    H132062   4.202   1.401   4.581 -0.2352 -0.3787 -0.5913
 3549TIP3    H232063   4.150   1.301   4.683 -2.9075  0.3415 -1.1704
 3550TIP3   OH232064   0.631   0.203   6.176  0.1795 -0.0915 -0.0614
 3550TIP3    H132065   0.644   0.162   6.261 -1.2855  1.2752  0.8617
 3550TIP3    H232066   0.713   0.250   6.159 -0.5515  2.2004  2.1215
 3551TIP3   OH232067   4.557   1.436   0.107  0.1207  0.2016  0.4193
 3551TIP3    H132068   4.632   1.462   0.160  0.1624  0.3557  0.2820
 3551TIP3    H232069   4.577   1.346   0.081 -0.4796 -0.3384  1.7253
 3552TIP3   OH232070   1.992   1.665  10.679 -0.1309  0.3440 -0.1479
 3552TIP3    H132071   1.952   1.728  10.620  0.5754  1.9196  0.9565
 3552TIP3    H232072   2.084   1.691  10.683  0.1286 -0.6143  0.5169
 3553TIP3   OH232073   1.796   6.747   5.182  0.0486 -0.3844  0.0512
 3553TIP3    H132074   1.885   6.740   5.147 -0.7828 -0.6240 -2.1601
 3553TIP3    H232075   1.747   6.679   5.136 -1.5521  0.5403  0.3216
 3554TIP3   OH232076   3.867   4.233  12.454  0.8434  0.2251 -0.0665
 3554TIP3    H132077   3.920   4.301  12.413  1.1946  0.6497  1.0594
 3554TIP3    H232078   3.819   4.193  12.382 -0.5105  2.6433 -0.6281
 3555TIP3   OH232079   2.958   0.153   1.721 -0.3975  0.3332 -0.3132
 3555TIP3    H132080   2.887   0.159   1.785 -1.8244 -2.5290 -1.4135
 3555TIP3    H232081   2.913   0.145   1.636  1.1430 -1.9930 -1.0141
 3556TIP3   OH232082   2.633   5.929  15.328 -0.6990  0.1578 -0.3454
 3556TIP3    H132083   2.577   5.972  15.264 -2.2968  0.2040  1.0073
 3556TIP3    H232084   2.602   5.838  15.331  0.5897 -0.3356 -0.9330
 3557TIP3   OH232085   6.560   3.097  14.617 -0.5284 -0.3939 -0.5743
 3557TIP3    H132086   6.536   3.181  14.655  0.7795 -0.9192  1.5842
 3557TIP3    H232087   6.485   3.039  14.636 -0.9980 -0.0041 -1.1846
 3558TIP3   OH232088   1.477   3.184   2.832 -0.5732 -0.0941  0.3573
 3558TIP3    H132089   1.402   3.236   2.863 -1.1270 -1.3593  1.2062
 3558TIP3    H232090   1.545   3.200   2.897 -0.2770  0.5830 -0.0968
 3559TIP3   OH232091   3.540   2.600   4.058 -0.2819  0.2174  0.1097
 3559TIP3    H132092   3.476   2.538   4.093 -2.2880  0.7563 -2.2591
 3559TIP3    H232093   3.490   2.682   4.049  1.2282  1.1226 -0.3264
 3560TIP3   OH232094   0.655   1.617   2.845 -0.0819  0.4129 -0.1638
 3560TIP3    H132095   0.664   1.539   2.900  0.0070  1.3109  1.1300
 3560TIP3    H232096   0.641   1.689   2.906  0.1893  1.4837 -1.3070
 3561TIP3   OH232097   6.214   0.929   4.702  0.3031  0.3892 -0.2867
 3561TIP3    H132098   6.260   0.996   4.652  0.1723  0.3394 -0.4750
 3561TIP3    H232099   6.154   0.889   4.639  2.0520 -1.5629 -0.8246
 3562TIP3   OH232100   5.206   0.431  13.038 -0.5873 -0.2403  0.0333
 3562TIP3    H132101   5.223   0.363  12.972  2.0798  0.7883 -0.4618
 3562TIP3    H232102   5.151   0.495  12.992  0.6766  0.1305 -1.0409
 3563TIP3   OH232103   4.209   2.557   6.082 -0.2167  0.3291  0.1661
 3563TIP3    H132104   4.199   2.603   6.166 -0.9870  0.8973 -0.2340
 3563TIP3    H232105   4.120   2.538   6.054  0.0116  0.7218 -0.8534
 3564TIP3   OH232106   5.172   5.525   4.412  0.0042 -0.0325 -0.1692
 3564TIP3    H132107   5.085   5.563   4.400 -0.1960 -0.9335 -1.9210
 3564TIP3    H232108   5.203   5.508   4.323  1.9768  0.2399  0.4216
 3565TIP3   OH232109   4.667   0.381   3.348  0.5870  0.0763  0.0891
 3565TIP3    H132110   4.659   0.293   3.311  1.2542 -0.3224  0.8704
 3565TIP3    H232111   4.578   0.403   3.377  0.2491  0.0088 -0.8528
 3566TIP3   OH232112   2.142   3.207   0.296 -0.2769  0.5597 -0.5689
 3566TIP3    H132113   2.162   3.269   0.226  1.9875  2.9075  1.9351
 3566TIP3    H232114   2.059   3.237   0.332 -0.5129  0.4829 -1.0447
 3567TIP3   OH232115   4.865   3.631   5.105 -0.1346  0.3560 -0.5519
 3567TIP3    H132116   4.787   3.652   5.054 -1.1158  1.3668  1.2398
 3567TIP3    H232117   4.900   3.716   5.132  1.0693 -0.1137 -0.5481
 3568TIP3   OH232118   4.870   0.699  15.884  0.2006 -0.4011 -0.2597
 3568TIP3    H132119   4.951   0.699  15.935  0.7343  0.0313 -1.0981
 3568TIP3    H232120   4.852   0.791  15.868 -0.3213 -0.5079 -0.3011
 3569TIP3   OH232121   5.198   0.430   0.701  0.1796  0.0077  0.3341
 3569TIP3    H132122   5.275   0.379   0.676  0.9499  1.5475 -0.6309
 3569TIP3    H232123   5.136   0.416   0.629  1.4436  2.4749 -1.3848
 3570TIP3   OH232124   0.778   5.189  15.680 -0.0766 -0.4886  0.3213
 3570TIP3    H132125   0.743   5.162  15.595  0.3762 -1.5579  0.4602
 3570TIP3    H232126   0.869   5.212  15.662 -0.1178 -0.2418  0.4298
 3571TIP3   OH232127   4.359   1.844  12.324  0.4693  0.5464  0.6664
 3571TIP3    H132128   4.323   1.871  12.239  0.1201  0.8030  0.8902
 3571TIP3    H232129   4.432   1.786  12.302  0.2527  0.4468  0.1943
 3572TIP3   OH232130   6.513   6.368   3.778 -0.2647  0.1272  0.1985
 3572TIP3    H132131   6.464   6.325   3.708 -1.2327 -0.6635  1.3108
 3572TIP3    H232132   6.513   6.461   3.754 -0.9617 -0.0660 -0.6197
 3573TIP3   OH232133   2.532   5.767  14.215  0.7078  0.6159 -0.2590
 3573TIP3    H132134   2.480   5.778  14.135  0.4772 -2.4892 -0.6597
 3573TIP3    H232135   2.581   5.686  14.201  0.5168 -0.1520  2.7971
 3574TIP3   OH232136   1.963   0.813   0.634 -0.7193  0.2247 -0.0912
 3574TIP3    H132137   1.980   0.815   0.729 -1.2402 -0.5122  0.0312
 3574TIP3    H232138   1.999   0.895   0.601  1.1948 -0.3484  0.4541
 3575TIP3   OH232139   5.659   1.755  15.667 -0.4235  0.0938 -0.5200
 3575TIP3    H132140   5.708   1.719  15.741 -2.3386 -0.4850  0.5191
 3575TIP3    H232141   5.713   1.733  15.590  1.1747 -0.0541  0.5977
 3576TIP3   OH232142   2.570   6.610  15.610  0.1724  0.0475  0.1801
 3576TIP3    H132143   2.624   6.539  15.578 -0.3984 -0.4887  0.3802
 3576TIP3    H232144   2.484   6.595  15.569  0.5425  1.7353 -1.3427
 3577TIP3   OH232145   0.557   1.642   0.709 -0.5934 -0.0798 -0.0668
 3577TIP3    H132146   0.604   1.633   0.793 -0.4650 -3.5972 -0.3827
 3577TIP3    H232147   0.465   1.647   0.734 -0.5423 -0.8945  0.3222
 3578TIP3   OH232148   4.239   4.610   0.649 -0.6670  0.0123 -0.2342
 3578TIP3    H132149   4.277   4.551   0.583 -0.2798 -0.1068  0.0900
 3578TIP3    H232150   4.166   4.560   0.686 -0.3619 -0.2571  0.0145
 3579TIP3   OH232151   5.451   1.782   0.520 -0.2581 -0.4307 -0.3601
 3579TIP3    H132152   5.506   1.855   0.491 -0.6185  0.1574  0.4107
 3579TIP3    H232153   5.508   1.730   0.576  0.7131 -2.0500 -2.6742
 3580TIP3   OH232154   0.577   6.129  13.564 -0.6127 -0.3238  0.4849
 3580TIP3    H132155   0.536   6.196  13.619 -1.3610  0.7366 -1.2998
 3580TIP3    H232156   0.509   6.062  13.554 -1.7077  1.0222 -1.7497
 3581TIP3   OH232157   2.201   0.126   5.204  0.0360  0.0971  1.1499
 3581TIP3    H132158   2.198   0.216   5.237  2.3979  2.1028 -3.2517
 3581TIP3    H232159   2.262   0.081   5.261  1.2944  2.2966  1.6394
 3582TIP3   OH232160   2.119   1.706   2.340  0.6795  0.0576 -0.3664
 3582TIP3    H132161   2.214   1.717   2.333  0.6505 -0.2303 -1.3387
 3582TIP3    H232162   2.108   1.618   2.375  0.7633 -0.5312 -1.7603
 3583TIP3   OH232163   5.476   1.904   6.158 -0.5520 -0.3032 -0.2252
 3583TIP3    H132164   5.397   1.934   6.202 -0.0607 -0.0891  0.5402
 3583TIP3    H232165   5.542   1.969   6.180 -0.3452 -0.0452 -1.5210
 3584TIP3   OH232166   0.129   6.616  10.829  1.0133  0.3475 -0.2878
 3584TIP3    H132167   0.121   6.604  10.734  1.0996  1.9682 -0.5272
 3584TIP3    H232168   0.213   6.576  10.850  1.3384  0.6062 -1.0301
 3585TIP3   OH232169   1.763   1.933   4.070 -0.0601  0.3775  0.5803
 3585TIP3    H132170   1.678   1.912   4.109 -0.7015 -0.4144 -1.1605
 3585TIP3    H232171   1.757   1.901   3.980  2.1460  0.1377  0.4607
 3586TIP3   OH232172   5.756   2.161  11.263  0.2288  0.4305 -0.1770
 3586TIP3    H132173   5.786   2.229  11.203 -2.2804  0.1403 -1.9120
 3586TIP3    H232174   5.794   2.080  11.229  1.0621  0.6040  0.3171
 3587TIP3   OH232175   2.206   1.971   4.475  0.1878 -0.0515  0.2273
 3587TIP3    H132176   2.170   1.897   4.524  0.9877 -0.5684  0.0505
 3587TIP3    H232177   2.189   2.047   4.531  0.6142 -0.5615  1.0780
 3588TIP3   OH232178   2.391   1.178   4.225  0.9677 -0.2289 -0.3625
 3588TIP3    H132179   2.478   1.151   4.196  1.1460 -0.0649  0.0026
 3588TIP3    H232180   2.387   1.151   4.317  1.1962  1.0743  0.0447
 3589TIP3   OH232181   6.030   3.644  10.476  0.0986 -0.3556  0.0990
 3589TIP3    H132182   6.014   3.563  10.525 -0.7504 -0.9690 -1.1379
 3589TIP3    H232183   6.072   3.614  10.395 -0.1616  0.4530 -0.3430
 3590TIP3   OH232184   0.934   6.124   1.460 -0.0596 -0.0674  0.0555
 3590TIP3    H132185   0.852   6.075   1.452 -1.2664  1.9955 -1.0861
 3590TIP3    H232186   0.938   6.177   1.381  2.0074  0.5000  0.4761
 3591TIP3   OH232187   4.794   0.995   0.263  0.4914 -0.5059  0.1356
 3591TIP3    H132188   4.857   0.923   0.268  0.2582 -0.6471  1.4657
 3591TIP3    H232189   4.712   0.958   0.296 -0.6092 -0.6090 -2.4715
 3592TIP3   OH232190   1.271   2.486   0.859  0.2475  0.0832 -0.0661
 3592TIP3    H132191   1.284   2.423   0.788 -1.2019  1.4569 -1.6288
 3592TIP3    H232192   1.349   2.476   0.913  2.1788 -0.0488 -2.6399
 3593TIP3   OH232193   2.742   4.315  12.961  0.5575  0.0843 -0.3281
 3593TIP3    H132194   2.807   4.352  12.902 -0.1539 -1.0866 -1.9134
 3593TIP3    H232195   2.673   4.381  12.967  0.3777 -0.0151 -1.2635
 3594TIP3   OH232196   5.299   6.054  11.338  0.2919  0.3282  0.1558
 3594TIP3    H132197   5.279   6.084  11.249  1.7191 -2.1584 -1.1128
 3594TIP3    H232198   5.215   6.055  11.383 -0.4044  2.0183 -1.0706
 3595TIP3   OH232199   6.680   3.401  12.526  0.1779 -0.2952  0.0337
 3595TIP3    H132200   6.721   3.424  12.609  0.6646 -3.7864  0.9446
 3595TIP3    H232201   6.597   3.447  12.526  0.9674  1.2230  1.5648
 3596TIP3   OH232202   1.405   0.091   2.193  0.2832 -0.0955 -0.0470
 3596TIP3    H132203   1.337   0.069   2.257  0.2430 -1.0449 -0.4076
 3596TIP3    H232204   1.418   0.185   2.204 -0.7078  0.0046  0.4009
 3597TIP3   OH232205   2.418   1.425  17.101  0.2008 -0.3365 -0.6639
 3597TIP3    H132206   2.343   1.367  17.089  0.0271  0.1024 -1.7649
 3597TIP3    H232207   2.416   1.483  17.026  0.8793  0.5495 -0.0179
 3598TIP3   OH232208   1.097   5.169  11.779 -0.1989 -0.4100 -0.2647
 3598TIP3    H132209   1.018   5.120  11.755  0.3298 -1.0051 -0.8169
 3598TIP3    H232210   1.114   5.225  11.704 -0.3789  0.0895  0.0632
 3599TIP3   OH232211   3.936   2.579   2.405 -0.2827 -0.3330  0.0459
 3599TIP3    H132212   3.885   2.542   2.334 -0.9163 -0.2773  0.4691
 3599TIP3    H232213   4.023   2.594   2.367 -0.2664 -1.4359 -0.3681
 3600TIP3   OH232214   2.714   1.284   1.255  0.2568 -0.0907  0.1918
 3600TIP3    H132215   2.682   1.195   1.272 -1.0098  0.5668  1.3514
 3600TIP3    H232216   2.737   1.283   1.162 -0.9738 -1.2691 -0.1319
 3601TIP3   OH232217   1.823   2.404  14.913  0.0470  0.7714  0.7984
 3601TIP3    H132218   1.769   2.420  14.835  1.1618 -0.3054 -0.2409
 3601TIP3    H232219   1.913   2.405  14.880  0.4636 -1.7725  1.6552
 3602TIP3   OH232220   3.817   3.865   1.944 -0.1026  0.3511 -0.2572
 3602TIP3    H132221   3.880   3.924   1.986  0.1429 -0.8851  1.1867
 3602TIP3    H232222   3.736   3.876   1.994  0.4740 -1.8682  1.2979
 3603TIP3   OH232223   6.735   0.510   4.290  0.1149 -0.0289  0.1762
 3603TIP3    H132224   6.780   0.426   4.300 -0.8716 -0.4228  1.8145
 3603TIP3    H232225   6.718   0.539   4.380  2.1274  2.9119 -0.2297
 3604TIP3   OH232226   1.279   5.660  14.028  0.6133  0.0544  0.2334
 3604TIP3    H132227   1.299   5.665  14.122 -0.2445  1.1516  0.3713
 3604TIP3    H232228   1.274   5.751  14.000 -0.8320 -0.2405 -0.5164
 3605TIP3   OH232229   5.256   6.097   2.919  0.3323 -0.2768  0.0409
 3605TIP3    H132230   5.287   6.102   2.828 -0.8328  0.0940 -0.3532
 3605TIP3    H232231   5.162   6.087   2.911  0.3486 -1.6957  1.1978
 3606TIP3   OH232232   4.596   1.721  16.136  0.9658 -0.4203  0.2717
 3606TIP3    H132233   4.516   1.772  16.147  1.5663  0.7735 -0.6959
 3606TIP3    H232234   4.664   1.772  16.179  1.4799 -0.6713 -0.2302
 3607TIP3   OH232235   0.166   3.627  10.886  0.4785 -0.4931 -0.7618
 3607TIP3    H132236   0.149   3.560  10.820 -1.6197  0.1095 -0.9015
 3607TIP3    H232237   0.201   3.579  10.961  2.3406 -1.2609 -2.0569
 3608TIP3   OH232238   5.168   3.497  15.915  0.9121 -0.3062 -0.1745
 3608TIP3    H132239   5.156   3.548  15.835  0.2130 -1.1256 -0.6125
 3608TIP3    H232240   5.183   3.408  15.884  1.5133 -0.4813  0.5930
 3609TIP3   OH232241   2.976   2.482   3.956  0.1600  0.3134  0.2308
 3609TIP3    H132242   3.054   2.427   3.946  0.5096  0.6685  0.9526
 3609TIP3    H232243   3.011   2.570   3.970 -0.3916  0.7239 -0.8775
 3610TIP3   OH232244   5.843   1.505  11.275 -0.4983 -0.5377 -0.2695
 3610TIP3    H132245   5.912   1.566  11.248 -0.0473  0.3343  2.5501
 3610TIP3    H232246   5.793   1.489  11.195  0.8043  1.6435 -1.6207
 3611TIP3   OH232247   4.411   2.409  13.391  0.0669  0.3642  0.1226
 3611TIP3    H132248   4.482   2.472  13.386 -0.1546  0.5265 -2.1664
 3611TIP3    H232249   4.340   2.449  13.340 -0.6692 -0.9885  0.0262
 3612TIP3   OH232250   4.625   4.968   4.026  0.3550 -0.1661 -0.4356
 3612TIP3    H132251   4.537   4.981   3.989  0.0990  1.3083  0.5882
 3612TIP3    H232252   4.609   4.941   4.117  0.8602  2.5078  0.5524
 3613TIP3   OH232253   6.318   6.533  11.032  0.2505  0.5478  0.4136
 3613TIP3    H132254   6.262   6.574  11.098 -1.5570 -0.6545 -0.2842
 3613TIP3    H232255   6.407   6.555  11.059 -0.5018  1.8570  2.0411
 3614TIP3   OH232256   2.410   2.154   3.378 -0.2453  0.0053 -0.3291
 3614TIP3    H132257   2.344   2.222   3.369  0.2290  0.2300 -2.4622
 3614TIP3    H232258   2.493   2.201   3.379  0.0322 -0.4713 -0.6644
 3615TIP3   OH232259   4.633   3.781   3.751 -0.3134  0.0786 -0.3706
 3615TIP3    H132260   4.597   3.699   3.717 -2.3515  0.1058  1.5252
 3615TIP3    H232261   4.624   3.843   3.679 -0.0883 -0.9684 -1.3417
 3616TIP3   OH232262   3.297   1.379   6.003 -0.2018 -0.2556  0.9144
 3616TIP3    H132263   3.202   1.385   6.019 -0.2117 -1.5087  1.4324
 3616TIP3    H232264   3.304   1.349   5.912 -0.2961 -0.1906  0.8843
 3617TIP3   OH232265   0.312   5.579   3.840  0.2209  0.1505 -0.2179
 3617TIP3    H132266   0.330   5.534   3.757 -1.9357  2.0543 -1.8430
 3617TIP3    H232267   0.307   5.671   3.816 -2.8654  0.5650  1.5210
 3618TIP3   OH232268   4.225   2.563  12.814  0.3756  0.2742  0.1881
 3618TIP3    H132269   4.245   2.474  12.845 -1.4050  0.1449  1.1213
 3618TIP3    H232270   4.134   2.558  12.786  0.2037  1.8456  0.3710
 3619TIP3   OH232271   2.475   5.610  17.317  0.0633  0.0380  0.2334
 3619TIP3    H132272   2.391   5.574  17.292  1.4897 -2.0882 -1.9412
 3619TIP3    H232273   2.454   5.679  17.380 -3.1654 -1.1934  0.6735
 3620TIP3   OH232274   2.941   6.541   5.722  0.2539 -0.0445  0.1628
 3620TIP3    H132275   2.876   6.528   5.654  0.1811 -1.9024  0.5114
 3620TIP3    H232276   2.890   6.547   5.803  0.3950  1.1492  0.1803
 3621TIP3   OH232277   3.022   0.773   1.779  0.0023 -0.1994  0.1222
 3621TIP3    H132278   2.974   0.692   1.762  0.6494 -1.4004  3.2804
 3621TIP3    H232279   3.105   0.744   1.815 -0.0856  1.8095  2.1823
 3622TIP3   OH232280   4.780   0.741  16.484 -0.2225  0.2776 -0.2070
 3622TIP3    H132281   4.697   0.737  16.531 -0.3443 -0.6921 -0.4838
 3622TIP3    H232282   4.756   0.735  16.391  0.1629 -0.2734 -0.2788
 3623TIP3   OH232283   3.417   2.600  11.839  0.4096 -0.1647 -0.0328
 3623TIP3    H132284   3.335   2.647  11.851  0.0028 -0.7818 -0.3551
 3623TIP3    H232285   3.477   2.665  11.803 -0.3385 -0.0487 -1.1012
 3624TIP3   OH232286   5.746   4.122   0.253  0.6240 -0.0009  0.4453
 3624TIP3    H132287   5.696   4.201   0.232  1.6252  0.3192 -0.8370
 3624TIP3    H232288   5.824   4.154   0.299  0.3394 -0.3775  1.2034
 3625TIP3   OH232289   0.821   1.721  13.518  0.2578  0.4119  0.4104
 3625TIP3    H132290   0.890   1.774  13.556 -0.4340  1.4688  0.2262
 3625TIP3    H232291   0.740   1.758  13.553 -0.2137 -1.1362  1.0493
 3626TIP3   OH232292   3.615   0.991  13.186 -0.4267  0.3871  0.6534
 3626TIP3    H132293   3.623   1.066  13.127 -0.7724 -1.4237 -1.8506
 3626TIP3    H232294   3.698   0.989  13.233  0.0233  1.6944 -0.0250
 3627TIP3   OH232295   2.327   1.375  16.367  0.1915  0.2473  0.4947
 3627TIP3    H132296   2.311   1.314  16.439  1.6017  0.9821  1.4944
 3627TIP3    H232297   2.256   1.359  16.305  0.8091 -2.8191  0.4289
 3628TIP3   OH232298   0.032   1.066   4.172  0.0581  0.2836 -0.1418
 3628TIP3    H132299  -0.007   1.073   4.260  0.2091  0.8836 -0.1229
 3628TIP3    H232300  -0.037   1.024   4.120  0.5223 -1.5296  0.6078
 3629TIP3   OH232301   0.788   0.088  14.269  0.5438 -0.0648  0.3775
 3629TIP3    H132302   0.880   0.101  14.245 -0.1557  3.3243 -1.2067
 3629TIP3    H232303   0.741   0.097  14.186 -1.3013 -0.3680  1.3398
 3630TIP3   OH232304   6.213   4.826  16.794 -0.2882 -0.2356  0.1489
 3630TIP3    H132305   6.241   4.892  16.858 -0.2539 -1.1063  1.0423
 3630TIP3    H232306   6.279   4.832  16.724  0.1561  0.1239  0.5933
 3631TIP3   OH232307   2.839   0.070  13.682 -0.0406  0.1949  0.1718
 3631TIP3    H132308   2.851   0.165  13.681 -0.9871  0.3248 -0.7233
 3631TIP3    H232309   2.761   0.055  13.629  1.9147 -1.3447 -2.5105
 3632TIP3   OH232310   4.888   6.016   1.799 -0.1886 -0.0816  0.2279
 3632TIP3    H132311   4.883   6.087   1.862 -0.5213  0.9124 -0.8666
 3632TIP3    H232312   4.873   6.059   1.714  1.8834 -1.0864 -0.7037
 3633TIP3   OH232313   6.353   5.640   1.989  0.4080  0.0493  0.4047
 3633TIP3    H132314   6.355   5.554   1.946  0.0977  1.5183 -2.8028
 3633TIP3    H232315   6.419   5.634   2.058  1.9891 -2.0720 -1.1598
 3634TIP3   OH232316   1.208   5.760  16.666  0.8650 -0.1500 -0.1071
 3634TIP3    H132317   1.241   5.733  16.752 -1.6726 -0.0742  0.9922
 3634TIP3    H232318   1.179   5.679  16.625  0.9148 -0.0438 -0.3474
 3635TIP3   OH232319   2.388   1.839   1.270 -0.3272 -0.0405 -0.1585
 3635TIP3    H132320   2.298   1.811   1.288  0.3516 -0.6289  2.8464
 3635TIP3    H232321   2.438   1.757   1.271  0.7292  0.5721  2.0163
 3636TIP3   OH232322   5.406   1.940  13.807  0.7728  0.3975 -1.1536
 3636TIP3    H132323   5.355   1.917  13.729  0.3405 -2.9318 -0.0284
 3636TIP3    H232324   5.459   1.863  13.825  1.8306  1.5565  1.1448
 3637TIP3   OH232325   0.061   4.204   3.406  0.1002 -0.2112 -0.2741
 3637TIP3    H132326   0.063   4.236   3.316  0.5858 -0.2629 -0.2841
 3637TIP3    H232327  -0.022   4.157   3.413  0.4002 -0.8567 -0.9239
 3638TIP3   OH232328   4.117   0.441  17.345  0.1218 -0.0396  0.7616
 3638TIP3    H132329   4.160   0.357  17.332 -0.8465 -0.3805 -0.4049
 3638TIP3    H232330   4.188   0.500  17.372  0.7666 -1.2561  1.8507
 3639TIP3   OH232331   5.372   6.617   0.337 -0.2001  0.0425 -0.2114
 3639TIP3    H132332   5.277   6.611   0.327 -0.1695  1.4694 -1.9412
 3639TIP3    H232333   5.405   6.612   0.247  1.4454 -1.3938  0.4321
 3640TIP3   OH232334   4.958   0.016   6.210  0.1103  0.0914 -0.2399
 3640TIP3    H132335   4.935  -0.033   6.131 -0.6438 -0.8950  0.5577
 3640TIP3    H232336   5.014  -0.045   6.260 -0.6723  0.1016  0.6773
 3641TIP3   OH232337   0.486   6.205   4.643 -0.3495  0.5057 -0.3331
 3641TIP3    H132338   0.516   6.224   4.731  0.6307 -0.3511 -0.4601
 3641TIP3    H232339   0.430   6.279   4.620 -1.8058  0.0452  1.5342
 3642TIP3   OH232340   3.727   2.021   0.194  0.0845 -0.2692  0.6389
 3642TIP3    H132341   3.696   1.931   0.191 -0.6171 -0.0158 -0.1247
 3642TIP3    H232342   3.707   2.056   0.107 -0.0037  0.7342  1.0546
 3643TIP3   OH232343   1.912   0.540  15.934 -0.4963 -0.3585  0.1397
 3643TIP3    H132344   1.908   0.462  15.989  0.7195 -0.4140  0.1682
 3643TIP3    H232345   1.917   0.506  15.845  0.2811 -0.3230  0.1671
 3644TIP3   OH232346   3.083   6.633   3.354 -0.0412 -0.0270 -0.1457
 3644TIP3    H132347   3.007   6.575   3.358  0.0569 -0.1687 -0.3277
 3644TIP3    H232348   3.069   6.686   3.276  0.3477 -0.4741 -0.5201
 3645TIP3   OH232349   1.665   4.111   1.319 -0.2231 -0.3114  0.1567
 3645TIP3    H132350   1.585   4.058   1.324 -0.2072 -0.4530 -0.8433
 3645TIP3    H232351   1.681   4.121   1.225  0.6578  0.1412  0.3448
 3646TIP3   OH232352   5.879   2.538  12.747  0.2394  0.0779 -0.5055
 3646TIP3    H132353   5.822   2.533  12.824 -0.9917  0.2001 -1.3819
 3646TIP3    H232354   5.820   2.561  12.675  1.5474  1.1158 -1.2903
 3647TIP3   OH232355   5.785   0.415   3.572  0.2210 -0.4828 -0.2316
 3647TIP3    H132356   5.724   0.442   3.640 -0.5924  0.3835 -1.2737
 3647TIP3    H232357   5.870   0.412   3.616 -0.5112 -1.4728  1.1801
 3648TIP3   OH232358   0.246   3.490  12.984 -0.5303  0.2987 -0.1585
 3648TIP3    H132359   0.161   3.460  12.953 -0.6005  1.3432 -1.0205
 3648TIP3    H232360   0.267   3.431  13.057 -1.7542 -0.2780 -0.2490
 3649TIP3   OH232361   2.540   5.350  11.664 -0.2971  0.5250  0.0759
 3649TIP3    H132362   2.452   5.324  11.692 -0.5257  1.8735  0.6896
 3649TIP3    H232363   2.526   5.394  11.580 -0.2357  0.8436  0.2298
 3650TIP3   OH232364   2.289   0.497  15.968 -0.4319 -0.2751  0.0637
 3650TIP3    H132365   2.195   0.484  15.957 -0.5352 -0.3145  0.9661
 3650TIP3    H232366   2.325   0.408  15.971 -0.4349 -0.2698  0.2800
 3651TIP3   OH232367   5.345   0.142  13.274 -0.2998 -0.2154 -0.8520
 3651TIP3    H132368   5.261   0.184  13.255 -0.8080 -0.8331 -0.0530
 3651TIP3    H232369   5.410   0.210  13.258 -1.0323  0.5996 -0.4553
 3652TIP3   OH232370   4.639   3.763   3.332 -0.4604 -0.2849 -0.0529
 3652TIP3    H132371   4.720   3.736   3.375  1.1606  1.8846 -1.5582
 3652TIP3    H232372   4.626   3.698   3.262 -0.4109 -1.0170  0.6040
 3653TIP3   OH232373   3.911   2.442   1.825 -0.6664  0.0468 -0.2292
 3653TIP3    H132374   3.882   2.368   1.879 -0.0594 -0.3126 -0.3843
 3653TIP3    H232375   3.833   2.468   1.776 -1.3835  0.7574  1.2347
 3654TIP3   OH232376   6.758   1.370  14.789 -0.3304  0.2427 -0.0203
 3654TIP3    H132377   6.777   1.276  14.793 -0.2110  0.2282 -0.8342
 3654TIP3    H232378   6.788   1.398  14.703 -0.6432  0.9707  0.0920
 3655TIP3   OH232379   5.471   5.952   3.926 -0.3005  0.3157 -0.2052
 3655TIP3    H132380   5.420   5.916   3.999 -0.0980 -0.8737 -0.6324
 3655TIP3    H232381   5.434   6.040   3.913 -2.1126 -0.4131 -0.3588
 3656TIP3   OH232382   4.888   3.722  16.006 -0.0250  0.9009 -0.1216
 3656TIP3    H132383   4.885   3.817  15.995  0.4470  0.7918 -1.2610
 3656TIP3    H232384   4.842   3.688  15.930  1.3153  0.1708 -0.6347
 3657TIP3   OH232385   3.452   3.433  13.978  0.0355 -1.3291  0.3868
 3657TIP3    H132386   3.539   3.409  13.947  0.2032  0.0048 -0.2246
 3657TIP3    H232387   3.427   3.361  14.036  0.9651 -2.4025 -0.4931
 3658TIP3   OH232388   2.382   5.457   1.510 -0.7316 -0.1732  0.0504
 3658TIP3    H132389   2.343   5.529   1.559 -0.8070 -1.0054  1.2524
 3658TIP3    H232390   2.476   5.465   1.524 -0.4570  1.2479 -2.0427
 3659TIP3   OH232391   1.681   0.934   3.268  0.1742  0.4946 -0.1618
 3659TIP3    H132392   1.689   0.971   3.356 -0.4582  2.6989 -0.9446
 3659TIP3    H232393   1.770   0.936   3.232  0.5195 -0.8824  0.5724
 3660TIP3   OH232394   0.383   0.857  14.873 -0.2108  0.0257 -0.0300
 3660TIP3    H132395   0.448   0.922  14.898  1.7355 -1.7524 -0.1658
 3660TIP3    H232396   0.379   0.797  14.948 -0.6846 -0.6268 -0.5587
 3661TIP3   OH232397   6.143   2.744   5.976  0.0228  0.5064  0.2252
 3661TIP3    H132398   6.124   2.805   6.048 -0.2266  1.7844 -0.8938
 3661TIP3    H232399   6.238   2.742   5.971  0.0938  3.0861 -1.5212
 3662TIP3   OH232400   0.135   2.561   4.671  0.0021  0.6024 -0.2166
 3662TIP3    H132401   0.228   2.540   4.661  0.0360  0.0314  1.0756
 3662TIP3    H232402   0.090   2.486   4.632  0.0860  0.5371 -0.1884
 3663TIP3   OH232403   0.208   0.293  14.205 -0.4836  0.3006  0.0476
 3663TIP3    H132404   0.164   0.261  14.284 -0.0217 -0.2135  0.1042
 3663TIP3    H232405   0.285   0.339  14.238 -0.2849  0.0764 -0.1060
 3664TIP3   OH232406   2.062   1.004   4.430 -0.5684  0.8426 -0.0097
 3664TIP3    H132407   2.143   1.014   4.480  1.0916  0.4906 -2.4061
 3664TIP3    H232408   1.992   1.013   4.494  1.3852 -1.0869  2.5870
 3665TIP3   OH232409   0.682   3.991   3.652 -0.7667  0.1241  0.8022
 3665TIP3    H132410   0.662   3.906   3.692 -2.0594 -0.0118 -0.0819
 3665TIP3    H232411   0.657   3.981   3.560  0.9882  0.8344  0.2066
 3666TIP3   OH232412   5.228   4.234  16.527  0.4561  0.2315 -0.0597
 3666TIP3    H132413   5.230   4.139  16.518 -0.0651  0.1834  0.3390
 3666TIP3    H232414   5.285   4.252  16.602 -1.5524  0.0124  1.5931
 3667TIP3   OH232415   6.146   6.593   3.409 -0.0885  0.3595  0.4662
 3667TIP3    H132416   6.116   6.506   3.436 -1.0943  0.8164  0.8459
 3667TIP3    H232417   6.150   6.588   3.313  3.5121 -1.2735  0.5300
 3668TIP3   OH232418   2.395   5.838   1.864 -1.1396  0.0302  0.5348
 3668TIP3    H132419   2.427   5.770   1.805 -1.3843 -2.1293  2.7412
 3668TIP3    H232420   2.320   5.876   1.819 -0.8333 -0.9613 -0.8611
 3669TIP3   OH232421   1.213   2.938   5.404  0.1204 -0.3395 -0.2678
 3669TIP3    H132422   1.203   2.940   5.499 -0.5919  0.6187 -0.3459
 3669TIP3    H232423   1.264   2.859   5.387 -1.5753 -1.7356  0.7412
 3670TIP3   OH232424   0.322   0.971   0.404  0.2716  0.1780  0.3048
 3670TIP3    H132425   0.274   1.032   0.459 -1.9317  0.8846 -2.1665
 3670TIP3    H232426   0.395   1.023   0.369 -1.8698  1.7878 -2.1832
 3671TIP3   OH232427   4.775   2.919  13.672 -0.3431 -0.0126 -0.4245
 3671TIP3    H132428   4.729   2.937  13.590 -1.4304  1.0695  0.3819
 3671TIP3    H232429   4.761   2.997  13.725  0.2003 -0.7511  0.8551
 3672TIP3   OH232430   5.945   4.887  15.429  0.4192  0.2743 -0.0665
 3672TIP3    H132431   5.888   4.961  15.455 -1.1098 -0.5376 -0.9660
 3672TIP3    H232432   5.884   4.819  15.402  1.7235 -1.8963  2.0655
 3673TIP3   OH232433   0.377   6.183   1.655 -0.0825 -0.3506 -0.0334
 3673TIP3    H132434   0.426   6.245   1.708 -3.4757  1.6925  1.0645
 3673TIP3    H232435   0.358   6.110   1.715 -1.5910  0.6870  0.8194
 3674TIP3   OH232436   5.794   6.393   4.142 -0.6690 -0.1565 -0.3628
 3674TIP3    H132437   5.884   6.365   4.155 -0.5780  0.0056 -0.6406
 3674TIP3    H232438   5.752   6.381   4.227 -0.4964 -0.6440 -0.3418
 3675TIP3   OH232439   2.059   2.002   3.343  0.9053  0.2439 -0.0961
 3675TIP3    H132440   2.150   2.014   3.316  0.0096  1.4505 -2.9166
 3675TIP3    H232441   2.012   2.074   3.302 -1.4898 -0.8698  0.5317
 3676TIP3   OH232442   2.338   3.246  12.946  0.4914 -1.0035  0.2117
 3676TIP3    H132443   2.425   3.271  12.914 -0.6516  1.5280 -1.2210
 3676TIP3    H232444   2.294   3.211  12.868  0.1204 -2.0930  0.8850
 3677TIP3   OH232445   3.258   1.597  15.395 -0.7297  0.3531 -0.5076
 3677TIP3    H132446   3.349   1.604  15.425 -0.6645 -1.1263 -0.3119
 3677TIP3    H232447   3.245   1.504  15.379 -1.1229  0.8942 -4.0788
 3678TIP3   OH232448   5.624   3.135  16.055  0.2670  0.1109  0.0028
 3678TIP3    H132449   5.671   3.052  16.060  1.1516  0.5111 -1.2102
 3678TIP3    H232450   5.547   3.122  16.111  0.8617 -1.1925  0.5632
 3679TIP3   OH232451   3.727   3.905  15.932 -0.2097 -0.0125  0.4093
 3679TIP3    H132452   3.665   3.954  15.986  0.0915  1.8756 -0.8473
 3679TIP3    H232453   3.685   3.900  15.846 -0.2302 -2.0525  0.4997
 3680TIP3   OH232454   3.138   0.975  13.238  0.1350  0.3404 -0.2250
 3680TIP3    H132455   3.060   1.020  13.270  0.5301  0.2397  0.9232
 3680TIP3    H232456   3.188   1.043  13.194 -0.4849  0.4537 -0.7718
 3681TIP3   OH232457   5.989   2.336   6.496  0.2306  0.1057 -0.5967
 3681TIP3    H132458   5.997   2.288   6.579  1.7046 -0.0143 -0.7911
 3681TIP3    H232459   5.946   2.274   6.437  0.5434 -0.3597 -0.3467
 3682TIP3   OH232460   1.486   2.380  15.194  0.0524  0.6734  0.0585
 3682TIP3    H132461   1.408   2.343  15.153 -0.7316  0.6362  1.5135
 3682TIP3    H232462   1.452   2.441  15.259  1.2797  1.8215 -0.3224
 3683TIP3   OH232463   4.246   1.976  12.816  0.1524  0.2520 -0.3015
 3683TIP3    H132464   4.322   1.941  12.862  0.4401  1.7232  0.3943
 3683TIP3    H232465   4.175   1.971  12.880  0.1116  0.5776 -0.3184
 3684TIP3   OH232466   6.567   0.577   4.916 -0.3726 -0.5762  0.2656
 3684TIP3    H132467   6.574   0.670   4.895  1.7990 -0.6225  0.5165
 3684TIP3    H232468   6.578   0.573   5.011  1.5640 -1.1816  0.0667
 3685TIP3   OH232469   1.445   1.673   0.016  0.3022 -0.0658 -0.0459
 3685TIP3    H132470   1.458   1.648  -0.076 -0.7101 -2.3006  0.3351
 3685TIP3    H232471   1.353   1.698   0.020  0.7542  1.6475  0.0626
 3686TIP3   OH232472   4.808   2.712  14.562  0.0033 -1.2478 -0.0216
 3686TIP3    H132473   4.843   2.623  14.550  0.9570 -0.7737 -0.9096
 3686TIP3    H232474   4.870   2.755  14.620  0.7596 -0.5004 -1.3406
 3687TIP3   OH232475   2.108   1.455   5.234 -0.2893 -0.1325 -0.4419
 3687TIP3    H132476   2.152   1.535   5.206 -1.0387  0.0062 -1.3098
 3687TIP3    H232477   2.146   1.386   5.180 -0.7414 -0.0946 -0.8218
 3688TIP3   OH232478   3.332   4.240  15.461 -0.1223  0.5467 -0.2648
 3688TIP3    H132479   3.414   4.205  15.495 -0.4388  0.7758  0.7697
 3688TIP3    H232480   3.271   4.237  15.535 -0.6421  1.6881 -0.6120
 3689TIP3   OH232481   3.681   2.501   4.912  0.4763 -0.0797 -0.0074
 3689TIP3    H132482   3.681   2.589   4.874  0.2402  0.2572  0.7371
 3689TIP3    H232483   3.636   2.446   4.848  1.2071  0.1981 -0.7814
 3690TIP3   OH232484   1.953   0.445  16.525  0.0308 -0.2134 -0.3062
 3690TIP3    H132485   1.922   0.437  16.616  0.4609 -0.3417 -0.1686
 3690TIP3    H232486   1.898   0.385  16.476 -0.0251 -0.3487 -0.0821
 3691TIP3   OH232487   0.719   3.295  16.142 -0.5540 -0.4416  0.1024
 3691TIP3    H132488   0.718   3.303  16.237  0.7267  0.4503  0.0839
 3691TIP3    H232489   0.710   3.385  16.111  1.4246 -0.4070 -0.5333
 3692TIP3   OH232490   5.377   5.627   3.007  0.1814 -0.1475 -0.4587
 3692TIP3    H132491   5.405   5.719   3.012  1.3820 -0.5518  1.7243
 3692TIP3    H232492   5.309   5.619   3.074  0.2522 -0.8843 -0.4658
 3693TIP3   OH232493   3.518   6.706   1.363 -0.2378 -0.5269  0.0515
 3693TIP3    H132494   3.564   6.623   1.348 -0.2548 -0.3689 -0.9935
 3693TIP3    H232495   3.476   6.696   1.448 -0.9053 -1.9123 -0.4137
 3694TIP3   OH232496   4.484   4.181  13.751 -0.3756  0.1419  0.0396
 3694TIP3    H132497   4.571   4.163  13.716 -0.5271 -0.8779  0.1594
 3694TIP3    H232498   4.428   4.114  13.711 -1.0129  0.4925  0.3342
 3695TIP3   OH232499   3.462   3.440   2.520 -0.4164 -0.0134 -0.1943
 3695TIP3    H132500   3.471   3.441   2.615  0.7794 -0.1210 -0.2866
 3695TIP3    H232501   3.380   3.395   2.503 -0.1805 -0.8158  0.7564
 3696TIP3   OH232502   2.502   1.645   5.116 -0.1171 -0.2867 -0.3156
 3696TIP3    H132503   2.579   1.638   5.060 -0.6122 -0.1616 -1.0260
 3696TIP3    H232504   2.537   1.657   5.204  0.6844  0.7275 -0.7485
 3697TIP3   OH232505   5.219   0.249   1.970 -0.5156 -0.3841  0.0000
 3697TIP3    H132506   5.180   0.198   2.041  0.0094  0.4811  0.9474
 3697TIP3    H232507   5.209   0.195   1.892  0.9043 -2.3824  1.1360
 3698TIP3   OH232508   3.128   3.401  14.031  0.1591  0.2038 -0.3764
 3698TIP3    H132509   3.135   3.444  14.117 -1.3272 -0.5080  0.1274
 3698TIP3    H232510   3.047   3.435  13.993  0.1738 -0.4042 -0.9756
 3699TIP3   OH232511   2.584   2.778   4.248 -0.1141 -0.0642  0.5547
 3699TIP3    H132512   2.494   2.760   4.276 -0.2596  1.0500  0.8722
 3699TIP3    H232513   2.639   2.748   4.320 -0.3410  0.6211  1.0279
 3700TIP3   OH232514   3.160   2.462   0.720 -0.1342 -0.0686  0.9053
 3700TIP3    H132515   3.202   2.480   0.636  1.7905  0.0807  1.8633
 3700TIP3    H232516   3.091   2.399   0.699  1.2534 -1.1619 -0.5655
 3701TIP3   OH232517   4.268   3.953   3.608  0.7907  0.1690 -0.3204
 3701TIP3    H132518   4.188   3.922   3.564  1.2529 -1.3998 -0.1389
 3701TIP3    H232519   4.269   3.905   3.691  1.8834  0.2143 -0.2911
 3702TIP3   OH232520   6.654   3.538  15.892  0.0179 -0.0978 -0.8129
 3702TIP3    H132521   6.706   3.606  15.850  0.8088 -1.7974 -2.7819
 3702TIP3    H232522   6.564   3.567  15.884  0.3572  0.7961 -1.4299
 3703TIP3   OH232523   2.720   5.553   5.848  0.1409 -0.6829 -0.0094
 3703TIP3    H132524   2.640   5.521   5.890 -0.1244  0.0581  0.0687
 3703TIP3    H232525   2.750   5.480   5.795 -0.9227 -0.7690 -0.5161
 3704TIP3   OH232526   1.204   2.152   5.913 -0.6762 -0.3977 -0.1712
 3704TIP3    H132527   1.130   2.202   5.879  0.0123  0.0355 -1.0836
 3704TIP3    H232528   1.207   2.172   6.006  0.4252  2.4238 -0.7285
 3705TIP3   OH232529   0.971   1.590   5.763  0.3034  0.5213 -0.1665
 3705TIP3    H132530   0.992   1.508   5.720 -0.4132  0.3184 -0.1505
 3705TIP3    H232531   0.957   1.567   5.855  0.1186  0.6587 -0.1576
 3706TIP3   OH232532   2.708   5.472   1.545 -0.4037  0.5195  0.7785
 3706TIP3    H132533   2.780   5.534   1.537  1.3601 -1.3437  1.2092
 3706TIP3    H232534   2.728   5.404   1.480 -1.6931 -0.1324  1.0345
 3707TIP3   OH232535   0.681   2.065  13.763 -0.2452 -0.0455  0.1314
 3707TIP3    H132536   0.675   2.115  13.682  0.3066  0.7518  0.5668
 3707TIP3    H232537   0.639   2.121  13.829  1.9706  0.7078  0.9983
 3708TIP3   OH232538   2.033   0.570   1.342 -0.3211  0.0352 -0.4088
 3708TIP3    H132539   1.967   0.501   1.327 -1.6427  0.6463  1.9553
 3708TIP3    H232540   1.996   0.648   1.300 -2.7454  1.1126  3.2247
 3709TIP3   OH232541   6.194   0.802  14.494 -0.1666 -0.4271  0.0176
 3709TIP3    H132542   6.246   0.735  14.538  0.9000  0.6203  0.4226
 3709TIP3    H232543   6.237   0.885  14.517 -0.7302  0.3101 -1.4391
 3710TIP3   OH232544   5.205   0.655  12.308 -0.3976  0.2194 -0.5026
 3710TIP3    H132545   5.231   0.662  12.400 -1.4470  2.2285 -0.3055
 3710TIP3    H232546   5.115   0.621  12.311 -0.2643 -0.1789 -0.8323
 3711TIP3   OH232547   0.281   6.074  12.273 -0.1520  0.3455 -0.4675
 3711TIP3    H132548   0.209   6.137  12.270 -0.0362  0.6861  1.9849
 3711TIP3    H232549   0.238   5.989  12.279 -0.3355  0.4187 -0.7430
 3712TIP3   OH232550   0.790   6.045   4.251  0.4619 -0.4665 -0.3941
 3712TIP3    H132551   0.754   6.087   4.329  0.1678  2.0283 -1.7865
 3712TIP3    H232552   0.750   5.958   4.251 -2.5013  0.7567  0.2735
 3713TIP3   OH232553   3.439   0.716   3.182  0.0560 -0.5673 -0.0754
 3713TIP3    H132554   3.513   0.770   3.208  0.1079  0.0764 -1.4966
 3713TIP3    H232555   3.452   0.700   3.089 -1.3779 -0.7790 -0.2676
 3714TIP3   OH232556   3.736   3.407  14.629 -0.2993 -0.2691  0.8376
 3714TIP3    H132557   3.767   3.452  14.550  0.6467 -0.1136  1.2817
 3714TIP3    H232558   3.804   3.423  14.694 -1.4338  0.2664  1.9286
 3715TIP3   OH232559   6.712   1.765  13.265 -0.1563 -0.0993 -0.1001
 3715TIP3    H132560   6.783   1.806  13.215 -1.4162 -0.4393 -2.3088
 3715TIP3    H232561   6.689   1.829  13.331  0.6870  0.9909 -0.8304
 3716TIP3   OH232562   0.292   1.613   4.355 -0.3342  0.0830  1.2723
 3716TIP3    H132563   0.338   1.615   4.271 -1.8929  0.6590  0.3894
 3716TIP3    H232564   0.250   1.527   4.358 -0.5429  0.1854  1.3164
 3717TIP3   OH232565   2.564   5.359   6.510 -0.3983  0.2163  0.6279
 3717TIP3    H132566   2.484   5.411   6.523 -1.0028 -0.2847 -0.7985
 3717TIP3    H232567   2.633   5.425   6.502 -0.9881  0.7780 -0.0825
 3718TIP3   OH232568   0.572   2.903   4.614  0.4562  0.0012 -0.0499
 3718TIP3    H132569   0.545   2.916   4.705 -0.3644  0.2115 -0.3142
 3718TIP3    H232570   0.557   2.988   4.572  0.5459 -0.1772 -0.4507
 3719TIP3   OH232571   5.240   6.088   2.183 -0.3161 -1.0715  0.3235
 3719TIP3    H132572   5.335   6.082   2.179 -0.1777  0.9569 -2.0712
 3719TIP3    H232573   5.223   6.166   2.235 -0.2330  2.4398 -4.3086
 3720TIP3   OH232574   1.091   6.349   0.297  0.1677  0.1359 -0.5052
 3720TIP3    H132575   1.067   6.426   0.246  0.0730  1.5285  1.5462
 3720TIP3    H232576   1.153   6.302   0.241 -3.7618 -1.3369 -4.1918
 3721TIP3   OH232577   3.257   1.216  12.508 -0.2413 -0.1047  0.1182
 3721TIP3    H132578   3.236   1.131  12.547  0.1896 -1.1741 -1.8643
 3721TIP3    H232579   3.178   1.240  12.459  0.1882 -0.0846 -0.5586
 3722TIP3   OH232580   3.488   5.079   0.836  0.5445  0.3916 -0.0197
 3722TIP3    H132581   3.495   5.004   0.778 -2.1790  0.7822 -0.9518
 3722TIP3    H232582   3.468   5.041   0.922 -2.5015 -0.0121 -0.7999
 3723TIP3   OH232583   5.351   0.174  15.726  0.1679 -0.1170  0.0077
 3723TIP3    H132584   5.325   0.141  15.812 -1.4388 -1.4079 -0.9031
 3723TIP3    H232585   5.435   0.132  15.709  0.6055  0.3269  1.0343
 3724TIP3   OH232586   0.026   2.295   2.872 -0.3392 -0.2240 -0.0934
 3724TIP3    H132587  -0.068   2.287   2.887 -0.3133 -0.2329  0.0747
 3724TIP3    H232588   0.062   2.209   2.896 -0.1447  0.1524  1.0438
 3725TIP3   OH232589   2.186   0.424  12.171 -0.2307  0.1635  0.2646
 3725TIP3    H132590   2.206   0.356  12.107  0.3635  2.0260 -1.6773
 3725TIP3    H232591   2.090   0.430  12.169 -0.1985  0.8183 -1.2512
 3726TIP3   OH232592   0.220   2.206  16.005 -0.5062  0.7274  0.2758
 3726TIP3    H132593   0.255   2.217  16.094  0.4981  3.6682 -0.3614
 3726TIP3    H232594   0.233   2.292  15.964 -1.9467 -0.2220 -2.3802
 3727TIP3   OH232595   4.780   4.889  14.970  0.1110  0.0155  0.4412
 3727TIP3    H132596   4.764   4.856  14.881 -0.3587  1.8321 -0.1853
 3727TIP3    H232597   4.704   4.945  14.988  0.7204  0.4920  1.5799
 3728TIP3   OH232598   6.098   6.674   1.242  0.0711  0.1857  0.4832
 3728TIP3    H132599   6.129   6.759   1.273 -3.0290  2.3267 -1.6944
 3728TIP3    H232600   6.151   6.656   1.165  0.3934  0.3865  0.6535
 3729TIP3   OH232601   4.463   1.404   4.101  0.2930  0.0174 -0.0860
 3729TIP3    H132602   4.535   1.451   4.145  0.7887 -1.6007  0.9451
 3729TIP3    H232603   4.441   1.459   4.026  0.4381  2.1726  1.3486
 3730TIP3   OH232604   0.062   4.778  14.431  0.2938  0.0231 -0.2338
 3730TIP3    H132605   0.072   4.744  14.520  0.3003 -0.2189 -0.3261
 3730TIP3    H232606   0.111   4.860  14.431 -0.3450  0.4218  0.2088
 3731TIP3   OH232607   3.461   0.229   4.074  0.5151  0.2623  0.7680
 3731TIP3    H132608   3.372   0.259   4.094 -0.2205  0.2111 -2.0816
 3731TIP3    H232609   3.517   0.287   4.126 -1.1246  0.7366  2.1276
 3732TIP3   OH232610   4.855   3.953   2.168 -0.4330 -0.2249  0.3973
 3732TIP3    H132611   4.805   3.882   2.209 -1.7209  1.1168  1.2654
 3732TIP3    H232612   4.939   3.953   2.214 -0.8350 -0.4953  1.1521
 3733TIP3   OH232613   6.482   6.237  13.294 -0.2912 -0.1399  0.1560
 3733TIP3    H132614   6.519   6.185  13.365 -0.4572 -1.2354 -0.5499
 3733TIP3    H232615   6.428   6.302  13.339 -1.4990 -1.6669  1.0047
 3734TIP3   OH232616   5.178   5.679   3.882  0.4509 -0.5203 -0.1791
 3734TIP3    H132617   5.102   5.726   3.916  0.4841 -0.5682 -0.0397
 3734TIP3    H232618   5.151   5.587   3.882  0.4270 -0.5145 -0.3454
 3735TIP3   OH232619   6.494   1.629   0.769  0.3627 -0.9730  0.1826
 3735TIP3    H132620   6.439   1.692   0.816 -0.8800 -2.8528  1.3870
 3735TIP3    H232621   6.580   1.671   0.764 -0.9642  1.8299 -1.2735
 3736TIP3   OH232622   4.207   2.317   2.610  0.0404  0.1621  0.2217
 3736TIP3    H132623   4.157   2.367   2.674 -0.0497 -0.5186  0.7033
 3736TIP3    H232624   4.295   2.314   2.646  0.9529  2.9458 -1.5373
 3737TIP3   OH232625   3.394   0.492   4.684  0.4684  0.2358 -0.6588
 3737TIP3    H132626   3.429   0.526   4.602 -0.0766  1.3423 -0.4555
 3737TIP3    H232627   3.308   0.532   4.692 -0.7306 -2.1451 -0.9631
 3738TIP3   OH232628   2.131   4.089   1.299  0.2152  0.3894 -0.5465
 3738TIP3    H132629   2.142   4.152   1.370  1.6177 -0.8816  0.4337
 3738TIP3    H232630   2.070   4.130   1.239 -0.4341  1.8232  1.0379
 3739TIP3   OH232631   1.932   1.148   4.673  0.6052 -0.5276 -0.2378
 3739TIP3    H132632   2.027   1.138   4.681  0.6849  1.0515  1.3502
 3739TIP3    H232633   1.898   1.116   4.756 -0.1984 -0.3684 -0.5041
 3740TIP3   OH232634   4.970   3.118  16.502  0.4059  1.0583 -0.5066
 3740TIP3    H132635   4.896   3.165  16.539 -0.1576  1.7109 -2.3431
 3740TIP3    H232636   4.934   3.072  16.426  1.2845 -1.0656  0.2782
 3741TIP3   OH232637   3.695   0.491  14.766 -0.0090  0.6650  0.0291
 3741TIP3    H132638   3.686   0.402  14.801 -0.2800  0.5090 -0.4235
 3741TIP3    H232639   3.731   0.479  14.679  0.5751  1.0458  0.2146
 3742TIP3   OH232640   6.055   2.859  14.768 -0.2804  0.1818 -0.1177
 3742TIP3    H132641   5.969   2.899  14.780  0.6171  2.6417 -1.0239
 3742TIP3    H232642   6.090   2.850  14.856 -2.0843 -2.6131  0.4387
 3743TIP3   OH232643   1.720   4.637  13.890  0.3231  0.5545  0.0106
 3743TIP3    H132644   1.736   4.549  13.855  0.6622  0.3287  0.6911
 3743TIP3    H232645   1.764   4.636  13.976  1.1174  1.6900 -0.3658
 3744TIP3   OH232646   2.770   1.190  15.766  0.4240  0.3510 -0.3574
 3744TIP3    H132647   2.734   1.226  15.685 -0.9491 -0.6420 -0.2272
 3744TIP3    H232648   2.827   1.119  15.738  1.5263  1.2760 -0.5199
 3745TIP3   OH232649   0.666   0.043   0.335 -0.1849  0.7924  0.1301
 3745TIP3    H132650   0.745   0.082   0.373  1.1298 -2.8959  1.6452
 3745TIP3    H232651   0.599   0.110   0.344  1.7005  2.4877  2.9866
 3746TIP3   OH232652   2.326   6.101   3.893  0.0289 -0.2816 -0.3621
 3746TIP3    H132653   2.231   6.091   3.902  0.0761 -0.0958  0.3744
 3746TIP3    H232654   2.356   6.015   3.861 -0.4833 -0.0554 -1.5284
 3747TIP3   OH232655   1.102   4.118   0.088  0.0168  0.3601 -0.1226
 3747TIP3    H132656   1.031   4.093   0.147 -0.8992  0.6522 -1.0757
 3747TIP3    H232657   1.175   4.062   0.114 -0.2063  0.8017  1.5826
 3748TIP3   OH232658   1.212   2.765   0.728 -0.5945  0.0075  0.3523
 3748TIP3    H132659   1.233   2.680   0.768  1.6971  0.2428 -0.2086
 3748TIP3    H232660   1.275   2.775   0.657 -1.4585  1.7616 -0.2430
 3749TIP3   OH232661   1.389   1.351   1.298  0.4264 -0.4823  0.0050
 3749TIP3    H132662   1.385   1.256   1.288 -1.6812 -0.3074 -1.6413
 3749TIP3    H232663   1.420   1.383   1.213  2.2611  0.3001  0.9069
 3750TIP3   OH232664   4.402   5.334   2.871  0.1622 -0.0842  0.2440
 3750TIP3    H132665   4.464   5.283   2.922  1.0072  0.5998 -0.0684
 3750TIP3    H232666   4.394   5.286   2.788  1.9495  0.9003 -0.5628
 3751TIP3   OH232667   4.107   6.516  11.548 -0.8081 -0.6103 -0.1177
 3751TIP3    H132668   4.088   6.580  11.479 -0.1814  1.8911  1.8959
 3751TIP3    H232669   4.047   6.538  11.619 -0.1249 -1.8553  0.8878
 3752TIP3   OH232670   1.156   3.429  15.659 -0.6737 -0.1640  0.3119
 3752TIP3    H132671   1.116   3.362  15.603  0.2526  0.1444 -0.7539
 3752TIP3    H232672   1.133   3.512  15.616  2.5982 -0.0269 -1.4509
 3753TIP3   OH232673   0.277   3.726  14.089  0.2538  0.0543 -0.8342
 3753TIP3    H132674   0.256   3.803  14.036  0.1965  0.8723  0.3321
 3753TIP3    H232675   0.205   3.721  14.152  2.1173  1.3257  1.5386
 3754TIP3   OH232676   6.139   0.904  12.541 -0.4196  0.0763  0.0767
 3754TIP3    H132677   6.158   0.903  12.634 -0.4272  1.5912  0.1235
 3754TIP3    H232678   6.199   0.969  12.505  0.6349 -1.5235 -1.2456
 3755TIP3   OH232679   3.208   4.871   4.198 -0.5185 -0.0067 -0.1155
 3755TIP3    H132680   3.281   4.825   4.156  0.6998  0.7530  1.0766
 3755TIP3    H232681   3.198   4.827   4.282  0.0692  1.2858  0.6608
 3756TIP3   OH232682   2.163   3.487   3.097  0.0117  0.6920 -0.1775
 3756TIP3    H132683   2.070   3.465   3.093 -0.0113  0.9690 -1.6990
 3756TIP3    H232684   2.166   3.571   3.141 -0.5497  1.0622 -0.8187
 3757TIP3   OH232685   5.979   5.958  12.258 -0.3140 -0.0318  0.8502
 3757TIP3    H132686   5.898   6.007  12.271  1.4652  3.1612  0.9575
 3757TIP3    H232687   6.009   5.985  12.171  1.1556 -0.3068  1.2489
 3758TIP3   OH232688   0.428   2.731  14.581  0.4491 -0.3992 -0.1867
 3758TIP3    H132689   0.460   2.641  14.582 -1.7605 -1.2784 -1.7738
 3758TIP3    H232690   0.354   2.730  14.520 -0.2180  2.3007  0.4453
 3759TIP3   OH232691   6.026   4.546   3.522 -0.3147  0.0070  0.0876
 3759TIP3    H132692   6.036   4.524   3.614 -0.4667 -0.8897 -0.1058
 3759TIP3    H232693   6.002   4.639   3.522  2.0376  0.6939  0.8288
 3760TIP3   OH232694   2.045   0.616   6.611  0.0540 -0.8809  0.3053
 3760TIP3    H132695   2.007   0.581   6.692 -2.1759 -1.9691 -1.1019
 3760TIP3    H232696   2.085   0.699   6.637 -1.7043 -0.5740  2.3183
 3761TIP3   OH232697   5.369   4.128  16.181  0.1797  0.0964  0.4064
 3761TIP3    H132698   5.447   4.168  16.141 -0.2634 -0.9064 -1.5215
 3761TIP3    H232699   5.312   4.107  16.108 -2.6106  2.0690  1.8165
 3762TIP3   OH232700   0.460   3.744  12.150  0.3913  0.7293  0.6477
 3762TIP3    H132701   0.471   3.653  12.123  0.8605  1.3280 -1.3364
 3762TIP3    H232702   0.543   3.768  12.191  1.0780  0.8327 -0.7280
 3763TIP3   OH232703   5.098   2.041  15.049  0.1494 -0.1839 -0.0601
 3763TIP3    H132704   5.167   2.053  15.114 -0.5430 -2.2900  1.1584
 3763TIP3    H232705   5.017   2.053  15.098 -0.3799 -0.0231 -0.9629
 3764TIP3   OH232706   4.632   6.280  10.900 -0.0360 -0.6073 -0.1270
 3764TIP3    H132707   4.666   6.365  10.872  1.3407 -0.6000  1.4509
 3764TIP3    H232708   4.537   6.288  10.890  0.2016  0.2587 -2.2442
 3765TIP3   OH232709   2.816   1.739   3.634 -0.5141  0.3737  0.7214
 3765TIP3    H132710   2.898   1.751   3.587 -0.6060  0.1428  0.5014
 3765TIP3    H232711   2.797   1.825   3.672 -0.7352  0.7117 -0.1385
 3766TIP3   OH232712   0.744   5.167  12.741 -0.7719  0.3940 -0.0092
 3766TIP3    H132713   0.679   5.233  12.764 -1.2740 -0.4045  0.9099
 3766TIP3    H232714   0.824   5.196  12.786 -0.6208  1.0593 -0.6718
 3767TIP3   OH232715   3.380   3.350  14.253  0.0356  0.4378 -0.1687
 3767TIP3    H132716   3.433   3.408  14.308 -0.9520  2.4306 -1.2339
 3767TIP3    H232717   3.289   3.374  14.272 -0.3597  0.3727 -1.7998
 3768TIP3   OH232718   1.942   0.012  15.972 -0.3317  0.1448 -0.2999
 3768TIP3    H132719   1.994  -0.044  16.029  0.4052 -0.2944 -1.3677
 3768TIP3    H232720   2.003   0.079  15.941 -0.8143  0.6043 -0.2830
 3769TIP3   OH232721   5.196   5.185   0.176  0.1271 -0.0371 -0.7068
 3769TIP3    H132722   5.235   5.170   0.090 -0.1089 -0.6371 -0.7198
 3769TIP3    H232723   5.113   5.230   0.158  0.8499  1.3525 -0.6698
 3770TIP3   OH232724   3.002   3.461   5.511  0.5413  0.3310  0.2629
 3770TIP3    H132725   2.975   3.430   5.597  0.3675 -0.1768  0.0301
 3770TIP3    H232726   2.995   3.556   5.516  0.8015  0.3188  0.8964
 3771TIP3   OH232727   4.901   3.205   5.739 -0.6202  0.4548  0.0047
 3771TIP3    H132728   4.841   3.274   5.769 -0.0129  2.1825 -2.4488
 3771TIP3    H232729   4.985   3.250   5.728 -0.1681 -0.7105 -1.5276
 3772TIP3   OH232730   2.171   0.899   1.590 -0.4204 -0.5563  0.2484
 3772TIP3    H132731   2.192   0.949   1.668  0.8989  0.7648 -0.8879
 3772TIP3    H232732   2.237   0.926   1.526 -1.1500 -1.9710 -1.1658
 3773TIP3   OH232733   1.236   4.994   0.073  0.5257 -0.0894  0.0717
 3773TIP3    H132734   1.205   4.964  -0.012  0.5588  0.4132 -0.1185
 3773TIP3    H232735   1.314   4.941   0.091 -1.4466 -2.7901  1.4417
 3774TIP3   OH232736   5.983   1.134   4.871 -0.5745 -0.1276  0.1918
 3774TIP3    H132737   6.071   1.113   4.902 -1.2440  0.4603  2.6460
 3774TIP3    H232738   5.930   1.059   4.894 -0.7156 -0.6436 -1.6199
 3775TIP3   OH232739   3.169   3.144  17.174 -0.2924 -0.0491 -0.6146
 3775TIP3    H132740   3.204   3.194  17.100  0.9378  3.2396  1.9190
 3775TIP3    H232741   3.171   3.205  17.247 -3.2853 -2.4792  1.7721
 3776TIP3   OH232742   1.516   2.347   3.603 -0.0745  0.1386  0.3524
 3776TIP3    H132743   1.518   2.291   3.526  3.4752  0.1191  0.2641
 3776TIP3    H232744   1.528   2.288   3.677 -0.8488  0.3989  0.6987
 3777TIP3   OH232745   0.782   4.574   2.305 -0.4437  0.1180 -0.7246
 3777TIP3    H132746   0.813   4.513   2.372  0.5144  0.9393 -0.3884
 3777TIP3    H232747   0.853   4.637   2.296 -1.0448  0.6768 -1.6982
 3778TIP3   OH232748   2.359   5.719   1.234 -0.5801 -0.0238  0.1319
 3778TIP3    H132749   2.318   5.794   1.277  1.1404  0.6471  0.6898
 3778TIP3    H232750   2.328   5.724   1.144 -0.5710  1.3372  0.1705
 3779TIP3   OH232751   1.449   1.764  13.682 -0.2595  0.3345 -0.3651
 3779TIP3    H132752   1.502   1.684  13.674  1.1479  1.2112 -0.0955
 3779TIP3    H232753   1.461   1.808  13.598  1.7283  1.8714  0.6483
 3780TIP3   OH232754   1.067   6.650   2.031 -0.4244  0.0203 -0.2358
 3780TIP3    H132755   1.005   6.718   2.005 -0.8628 -0.6139 -0.8596
 3780TIP3    H232756   1.035   6.570   1.989  1.3453 -0.1367 -1.3547
 3781TIP3   OH232757   2.547   5.225  12.048 -0.6069  0.0523  0.2576
 3781TIP3    H132758   2.617   5.170  12.086 -0.3212  0.2876  0.0773
 3781TIP3    H232759   2.480   5.162  12.022 -0.3220 -0.2082  0.1380
 3782TIP3   OH232760   3.413   0.599   0.507  0.0496  0.0104 -0.4464
 3782TIP3    H132761   3.421   0.597   0.412 -0.6172 -0.2461 -0.5036
 3782TIP3    H232762   3.400   0.508   0.532 -0.8287  0.1931 -0.2116
 3783TIP3   OH232763   1.407   6.722   2.597  0.0412 -0.5277  0.0215
 3783TIP3    H132764   1.374   6.688   2.514  2.5843  1.0005 -1.7758
 3783TIP3    H232765   1.364   6.807   2.607  0.7846 -0.0796 -0.5072
 3784TIP3   OH232766   4.057   4.848  12.346 -0.7220  0.0313  0.1249
 3784TIP3    H132767   4.090   4.859  12.434  2.1997  1.3350 -1.0127
 3784TIP3    H232768   4.075   4.757  12.324  1.3972  0.4579 -0.1116
 3785TIP3   OH232769   4.707   5.934  10.533  0.2718 -0.3146 -0.4618
 3785TIP3    H132770   4.698   5.960  10.625 -1.8367 -0.6322 -0.5407
 3785TIP3    H232771   4.663   5.850  10.527  1.6303 -0.9915 -1.5061
 3786TIP3   OH232772   2.143   4.552   4.945  0.1700 -0.5741 -0.0475
 3786TIP3    H132773   2.093   4.579   4.869  0.5588  2.1694  0.5822
 3786TIP3    H232774   2.204   4.624   4.961  2.9331 -2.8421  0.4675
 3787TIP3   OH232775   3.706   6.178  13.506 -0.3872 -0.8005 -1.1136
 3787TIP3    H132776   3.682   6.212  13.592 -4.2109  0.2189 -2.3754
 3787TIP3    H232777   3.770   6.110  13.524 -1.9568 -1.5155  2.6695
 3788TIP3   OH232778   0.011   1.175   5.577  0.1875 -0.4447  0.1349
 3788TIP3    H132779  -0.041   1.123   5.515  0.7555 -1.5950  0.5920
 3788TIP3    H232780   0.085   1.207   5.526 -0.3700  0.2738 -0.2465
 3789TIP3   OH232781   1.435   3.683   1.464  0.0034  0.1454  0.1457
 3789TIP3    H132782   1.342   3.694   1.444  0.0660  0.4939  0.0378
 3789TIP3    H232783   1.437   3.645   1.551 -0.2706 -1.0646 -0.3547
 3790TIP3   OH232784   6.725   3.896   3.312  0.4055 -0.4166 -0.7939
 3790TIP3    H132785   6.807   3.933   3.280  0.0205  0.5243 -0.7443
 3790TIP3    H232786   6.735   3.894   3.407 -0.3330  1.5669 -0.6163
 3791TIP3   OH232787   0.106   2.989   3.290  0.5535  0.1166 -0.0113
 3791TIP3    H132788   0.061   2.922   3.342  2.5530 -2.3498 -1.2545
 3791TIP3    H232789   0.044   3.011   3.220 -0.2564 -0.2183  0.5898
 3792TIP3   OH232790   0.244   1.963   0.807  0.9908  0.1964 -0.2927
 3792TIP3    H132791   0.160   1.974   0.763  1.2164  0.3931 -0.6702
 3792TIP3    H232792   0.288   2.047   0.798  1.8925 -0.3785 -1.4778
 3793TIP3   OH232793   5.736   0.349   5.328 -0.3064 -0.8481 -0.4582
 3793TIP3    H132794   5.793   0.326   5.402 -1.5015  3.3073  2.1137
 3793TIP3    H232795   5.651   0.314   5.352 -0.3931 -0.6974 -0.5450
 3794TIP3   OH232796   3.763   0.966   2.552  0.6525 -0.1806 -0.0404
 3794TIP3    H132797   3.701   0.929   2.489  0.0429 -0.3277  0.6374
 3794TIP3    H232798   3.714   0.974   2.633  1.2261  0.6748  0.2403
 3795TIP3   OH232799   3.934   3.705  14.789 -0.0116 -0.3062  0.7971
 3795TIP3    H132800   4.014   3.750  14.814 -0.2003 -0.9086  2.6266
 3795TIP3    H232801   3.963   3.631  14.735  0.4666  0.6216 -0.2607
 3796TIP3   OH232802   5.682   1.074  10.647 -0.3232  0.3067  0.5367
 3796TIP3    H132803   5.701   1.035  10.562 -1.6676  0.4459  0.1491
 3796TIP3    H232804   5.733   1.154  10.649  2.6733 -1.4544  1.4341
 3797TIP3   OH232805   0.645   0.831   5.075  0.3330 -0.2895 -0.2237
 3797TIP3    H132806   0.701   0.906   5.057  0.2682  0.0579  0.9341
 3797TIP3    H232807   0.687   0.787   5.149 -0.5150 -0.4519  0.1707
 3798TIP3   OH232808   6.579   0.954   6.246  0.5672  0.0139 -0.1345
 3798TIP3    H132809   6.502   0.973   6.300 -0.6334  2.0260 -2.3966
 3798TIP3    H232810   6.654   0.981   6.300 -0.3997 -0.2491  1.3840
 3799TIP3   OH232811   3.577   3.255  12.559 -0.1648 -0.0524 -0.2691
 3799TIP3    H132812   3.566   3.185  12.494 -1.8411  0.5034 -0.6246
 3799TIP3    H232813   3.640   3.219  12.622  0.7723 -0.9603 -1.6849
 3800TIP3   OH232814   2.638   4.543   6.692 -0.1373  0.4815  0.2014
 3800TIP3    H132815   2.691   4.592   6.629 -1.3270  0.9516 -0.4444
 3800TIP3    H232816   2.549   4.575   6.680 -0.8390 -1.3285  0.2584
 3801TIP3   OH232817   4.000   4.506  14.189 -0.4845 -0.2888  0.5333
 3801TIP3    H132818   3.968   4.519  14.278 -2.3716  1.2234 -0.3019
 3801TIP3    H232819   3.923   4.517  14.134  0.7144 -0.8180 -1.3218
 3802TIP3   OH232820   1.691   4.375  14.818  0.1155  0.1810 -0.5635
 3802TIP3    H132821   1.775   4.419  14.805 -0.5236  2.1162  1.3163
 3802TIP3    H232822   1.635   4.412  14.750  0.1519  0.7215 -0.3076
 3803TIP3   OH232823   1.084   5.370  14.554  0.1923 -0.9555  0.3792
 3803TIP3    H132824   1.109   5.292  14.603  0.9028 -1.2775 -0.4820
 3803TIP3    H232825   1.091   5.442  14.617 -1.2412 -1.6606  1.4116
 3804TIP3   OH232826   0.989   1.831  16.556  0.3408 -0.2259 -0.1529
 3804TIP3    H132827   1.041   1.909  16.574  1.0982 -1.0896  1.6532
 3804TIP3    H232828   1.045   1.758  16.583 -0.5954 -1.3758 -1.1827
 3805TIP3   OH232829   0.493   5.025  13.249  0.3005 -0.4038 -0.4871
 3805TIP3    H132830   0.578   5.003  13.210  0.9249  2.9413 -1.3528
 3805TIP3    H232831   0.515   5.054  13.338 -0.0291 -0.3053 -0.4362
 3806TIP3   OH232832   1.872   2.419  12.779 -0.2402 -0.1891 -0.7086
 3806TIP3    H132833   1.888   2.377  12.863 -1.0286  1.6198  0.4031
 3806TIP3    H232834   1.952   2.469  12.761 -0.7874  0.9683 -0.0381
 3807TIP3   OH232835   3.205   2.214   5.636 -0.1622 -1.0340  0.6240
 3807TIP3    H132836   3.236   2.304   5.628  0.5326 -1.3708 -0.7877
 3807TIP3    H232837   3.271   2.162   5.590 -1.1497 -2.1389  0.4186
 3808TIP3   OH232838   2.516   1.099   2.442 -0.1669  1.1235  0.6486
 3808TIP3    H132839   2.436   1.127   2.399  0.5843  0.4029 -1.3517
 3808TIP3    H232840   2.542   1.020   2.394  0.9335  0.4909  2.2297
 3809TIP3   OH232841   6.404   3.003   1.085  0.1633  0.1651  0.2549
 3809TIP3    H132842   6.403   3.020   1.180 -0.5823 -0.3713  0.3502
 3809TIP3    H232843   6.347   3.070   1.049  1.5008  1.2220  0.0145
 3810TIP3   OH232844   6.059   1.103  11.860 -0.3849 -0.3578 -0.1177
 3810TIP3    H132845   5.998   1.123  11.789 -0.6392  0.7554  0.3978
 3810TIP3    H232846   6.118   1.038  11.822 -2.7034 -2.6110 -0.2048
 3811TIP3   OH232847   1.246   0.050   5.332 -0.2768 -0.7767  0.1996
 3811TIP3    H132848   1.232   0.048   5.426  0.2245 -1.5677  0.2594
 3811TIP3    H232849   1.257   0.143   5.312  0.6915 -0.6905  1.0770
 3812TIP3   OH232850   4.795   2.400  16.563  0.0686 -0.0076  0.3934
 3812TIP3    H132851   4.850   2.477  16.548  1.4803 -0.7413  1.5736
 3812TIP3    H232852   4.754   2.383  16.478 -0.1054  1.8850  0.0507
 3813TIP3   OH232853   6.653   4.502  14.407  0.1092 -0.3628 -0.1963
 3813TIP3    H132854   6.641   4.486  14.500 -0.9075  0.1638 -0.2133
 3813TIP3    H232855   6.647   4.598  14.398  0.0296 -0.4173 -0.8187
 3814TIP3   OH232856   0.798   5.401   6.721 -0.2013  0.2164  0.2645
 3814TIP3    H132857   0.829   5.428   6.635 -2.4929  3.2226  0.2148
 3814TIP3    H232858   0.848   5.455   6.782  0.9348 -1.4234  0.8484
 3815TIP3   OH232859   0.334   5.892  14.201  0.0209  0.2188  0.0495
 3815TIP3    H132860   0.365   5.970  14.154  2.7819 -1.9222 -2.0356
 3815TIP3    H232861   0.330   5.824  14.134 -3.1696 -1.3374  1.5993
 3816TIP3   OH232862   5.955   5.181  13.849 -0.6354  0.0964  0.4039
 3816TIP3    H132863   6.048   5.194  13.830 -0.7340 -0.3684 -0.4291
 3816TIP3    H232864   5.917   5.152  13.766 -1.3088 -0.8736  1.0274
 3817TIP3   OH232865   6.155   1.411  12.347 -0.0211 -0.1573  0.1945
 3817TIP3    H132866   6.070   1.453  12.356 -0.0515 -0.2619  0.4223
 3817TIP3    H232867   6.184   1.432  12.259 -0.4732 -0.4755 -0.0303
 3818TIP3   OH232868   0.122   3.858  14.571  0.1200  0.2191 -1.2644
 3818TIP3    H132869   0.116   3.763  14.564 -1.2433  0.2750 -1.1345
 3818TIP3    H232870   0.045   3.884  14.621  1.3187  1.2649  0.1387
 3819TIP3   OH232871   6.120   4.270  12.290  0.5830  0.0118  0.2704
 3819TIP3    H132872   6.164   4.257  12.206  0.4801 -1.9873  0.4656
 3819TIP3    H232873   6.189   4.255  12.356  0.2974 -0.0995  0.5477
 3820TIP3   OH232874   5.929   6.594   1.556 -0.0782 -0.2769 -0.2281
 3820TIP3    H132875   5.952   6.618   1.646 -1.0246  2.4152 -0.6221
 3820TIP3    H232876   5.991   6.640   1.501 -0.2349 -0.9672 -1.0120
 3821TIP3   OH232877   6.728   0.735   4.140  0.2395  0.5476  0.2925
 3821TIP3    H132878   6.814   0.760   4.106  0.0733 -0.3059 -0.8362
 3821TIP3    H232879   6.742   0.649   4.180  0.1576  0.9719  1.2590
 3822TIP3   OH232880   0.892   1.184  13.450  0.2018  0.0969  0.1494
 3822TIP3    H132881   0.821   1.163  13.390  0.5417  3.0048 -1.4386
 3822TIP3    H232882   0.860   1.157  13.536 -2.1368 -0.1335 -0.7236
 3823TIP3   OH232883   5.797   3.930   3.264  0.2010  0.5849 -0.0424
 3823TIP3    H132884   5.882   3.950   3.226  2.3174 -2.4286  2.6696
 3823TIP3    H232885   5.797   3.975   3.349 -0.6180 -0.0114  0.2876
 3824TIP3   OH232886   2.137   5.282  14.958 -0.4609  0.0023  0.1694
 3824TIP3    H132887   2.069   5.273  15.026 -1.7480  2.5798 -0.6235
 3824TIP3    H232888   2.118   5.367  14.917  1.2771 -0.7075 -2.3279
 3825TIP3   OH232889   2.226   1.197   1.602 -0.2634 -0.7006 -0.3106
 3825TIP3    H132890   2.217   1.265   1.669  0.8662  1.3444 -2.0761
 3825TIP3    H232891   2.136   1.174   1.579 -0.6819  0.0460  0.4955
 3826TIP3   OH232892   0.331   3.170  13.576 -0.3711  0.0581  0.1035
 3826TIP3    H132893   0.377   3.225  13.513  0.2422  1.3978  1.6656
 3826TIP3    H232894   0.274   3.230  13.624  0.0694 -0.6827  1.6307
 3827TIP3   OH232895   2.208   3.633  13.308  0.2251 -0.0725  0.4753
 3827TIP3    H132896   2.267   3.580  13.255 -1.3973 -0.7939 -0.7125
 3827TIP3    H232897   2.215   3.595  13.396  1.1776 -0.4225  0.2655
 3828TIP3   OH232898   2.603   3.532   6.372 -0.4964  0.3653 -0.2650
 3828TIP3    H132899   2.664   3.602   6.395 -0.9439  0.2698  1.2714
 3828TIP3    H232900   2.655   3.452   6.380 -0.8216  0.2783  1.1146
 3829TIP3   OH232901   6.733   5.006  13.524 -0.2541  0.4628 -0.0157
 3829TIP3    H132902   6.786   5.085  13.514  1.2543 -0.5559 -0.4782
 3829TIP3    H232903   6.797   4.935  13.528 -1.5124 -0.6651  1.3453
 3830TIP3   OH232904   0.000   6.000   4.877 -0.0780  0.1767 -0.4217
 3830TIP3    H132905   0.028   6.091   4.883 -1.6543  0.7364 -1.1866
 3830TIP3    H232906  -0.010   5.972   4.969 -0.4221  1.0466 -0.1872
 3831TIP3   OH232907   3.958   5.795   4.624 -0.4062 -0.4238 -0.3863
 3831TIP3    H132908   3.977   5.889   4.632 -0.2777 -0.4653 -0.1905
 3831TIP3    H232909   3.936   5.783   4.532 -2.2656  0.1399 -0.0611
 3832TIP3   OH232910   0.947   5.364  14.014  0.2756  0.2279 -0.0227
 3832TIP3    H132911   0.963   5.394  14.103  0.0582  2.0868 -0.5712
 3832TIP3    H232912   0.896   5.283  14.025 -1.8675  1.6726  1.5458
 3833TIP3   OH232913   0.157   5.599   3.308  0.4843  0.4768 -0.2519
 3833TIP3    H132914   0.153   5.666   3.376 -0.7923  1.1699 -0.9843
 3833TIP3    H232915   0.126   5.642   3.229 -0.6070 -1.0070 -0.6933
 3834TIP3   OH232916   4.906   2.056  16.893  0.5147 -0.2325 -0.1701
 3834TIP3    H132917   4.894   2.097  16.807  2.5621  0.8458  0.0101
 3834TIP3    H232918   4.946   1.971  16.874  0.0095 -0.4400 -0.3239
 3835TIP3   OH232919   1.018   2.985  13.288  0.0005  0.0731 -0.3424
 3835TIP3    H132920   0.942   3.038  13.314  0.5703  0.2230  1.1454
 3835TIP3    H232921   1.054   3.030  13.212 -2.1416 -0.7446 -1.9225
 3836TIP3   OH232922   1.412   3.884   1.854  0.7413  0.0770 -0.9476
 3836TIP3    H132923   1.417   3.975   1.883 -2.2599 -0.1310  0.6035
 3836TIP3    H232924   1.334   3.881   1.799  0.4344 -1.6494 -0.4667
 3837TIP3   OH232925   3.183   6.413   5.517 -0.2279  0.5576  0.0839
 3837TIP3    H132926   3.195   6.506   5.538  3.7580  0.5357 -1.3058
 3837TIP3    H232927   3.163   6.372   5.601 -0.0482  2.4457  1.0923
 3838TIP3   OH232928   4.733   0.644  16.222  0.0430  0.2549 -0.0766
 3838TIP3    H132929   4.682   0.629  16.142 -0.5401  0.5222  0.2323
 3838TIP3    H232930   4.687   0.592  16.288  0.4097  0.1888  0.1255
 3839TIP3   OH232931   2.626   5.101   4.620 -0.0331  0.3171 -0.0469
 3839TIP3    H132932   2.678   5.041   4.674  0.4484  0.4154 -0.3951
 3839TIP3    H232933   2.672   5.185   4.627 -0.8572  0.7294  0.6659
 3840TIP3   OH232934   2.381   0.866  14.683  0.0908 -0.3577  0.3071
 3840TIP3    H132935   2.335   0.907  14.610 -0.3898  0.7501  1.2036
 3840TIP3    H232936   2.403   0.938  14.742  4.3432 -0.5501 -0.7109
 3841TIP3   OH232937   5.213   4.883   0.948 -0.2458  0.1327 -0.1090
 3841TIP3    H132938   5.218   4.977   0.965 -0.1997  0.4029 -1.5081
 3841TIP3    H232939   5.284   4.866   0.887  0.2785 -0.9843  0.7782
 3842TIP3   OH232940   1.043   1.928  16.978  0.2187  0.8846 -0.3614
 3842TIP3    H132941   1.065   2.021  16.977 -0.7724  1.1367 -2.1620
 3842TIP3    H232942   0.983   1.917  16.905  0.8459 -1.3175 -0.6034
 3843TIP3   OH232943   4.395   1.051  14.891  0.5745  0.7833 -0.4409
 3843TIP3    H132944   4.378   0.958  14.904  0.0504  0.6777 -1.6957
 3843TIP3    H232945   4.417   1.084  14.978 -1.3932 -0.0674  0.4468
 3844TIP3   OH232946   4.555   1.993  12.804  0.0840 -0.0152  0.8394
 3844TIP3    H132947   4.620   2.039  12.751 -0.0776  0.8517  1.3786
 3844TIP3    H232948   4.595   1.909  12.824 -0.3002 -0.8688 -1.6105
 3845TIP3   OH232949   3.423   1.614   0.522 -0.1033  0.0055 -0.2136
 3845TIP3    H132950   3.434   1.563   0.441 -1.2271  0.2891 -0.5652
 3845TIP3    H232951   3.353   1.676   0.501 -1.0845 -0.5414  1.2616
 3846TIP3   OH232952   0.714   0.854   2.681  0.4715  0.0285 -0.0860
 3846TIP3    H132953   0.711   0.919   2.610 -0.7673 -0.5393 -0.5947
 3846TIP3    H232954   0.800   0.814   2.673  0.3776  0.0226 -1.2527
 3847TIP3   OH232955   2.155   6.264   2.654  0.5796 -0.8157 -0.5162
 3847TIP3    H132956   2.088   6.314   2.702  0.3550 -1.4981 -0.0990
 3847TIP3    H232957   2.186   6.324   2.586 -1.0104 -0.7479 -1.2146
 3848TIP3   OH232958   6.547   4.865  14.774  0.3125 -0.4762 -0.4964
 3848TIP3    H132959   6.622   4.907  14.734 -0.0150  1.2060  0.5315
 3848TIP3    H232960   6.474   4.926  14.760 -0.5857 -1.4883 -0.4069
 3849TIP3   OH232961   3.606   3.976  13.779  0.2140  0.0254  0.3240
 3849TIP3    H132962   3.674   4.043  13.779  1.1574 -0.8854  1.9179
 3849TIP3    H232963   3.630   3.917  13.708 -0.1732  0.8723 -0.5497
 3850TIP3   OH232964   1.401   0.806   4.595  0.1487  0.3403 -0.2792
 3850TIP3    H132965   1.438   0.736   4.541  0.6369  0.9645 -0.7752
 3850TIP3    H232966   1.390   0.767   4.681  2.0572  0.1524 -0.0811
 3851TIP3   OH232967   5.641   4.885   0.239 -0.0566  0.1919 -0.9134
 3851TIP3    H132968   5.548   4.874   0.257  0.1289  1.0714  0.8321
 3851TIP3    H232969   5.651   4.978   0.219  0.7050  0.5378  0.9170
 3852TIP3   OH232970   5.508   2.571  15.709  0.3744 -0.0390 -0.0926
 3852TIP3    H132971   5.429   2.529  15.673 -0.2101 -1.4791  2.5702
 3852TIP3    H232972   5.476   2.652  15.748  0.3500 -0.2022  0.2309
 3853TIP3   OH232973   0.965   0.675   3.889 -0.1202  0.3956  0.8968
 3853TIP3    H132974   1.046   0.680   3.839 -0.7603 -0.4864 -0.2586
 3853TIP3    H232975   0.941   0.767   3.905  1.5028  0.6765  1.9820
 3854TIP3   OH232976   2.005   2.613   3.517  0.0206 -0.5471  0.1646
 3854TIP3    H132977   2.005   2.670   3.440  0.2001 -2.1114 -1.0617
 3854TIP3    H232978   2.065   2.655   3.578 -1.0741  1.3841 -0.0179
 3855TIP3   OH232979   4.766   0.857  12.843 -0.1472  0.2190 -0.5420
 3855TIP3    H132980   4.729   0.929  12.792 -1.7548 -1.2790 -1.6120
 3855TIP3    H232981   4.843   0.894  12.885 -1.2898  2.7349 -0.5082
 3856TIP3   OH232982   3.384   5.180   2.218 -0.1138 -0.1912  0.7668
 3856TIP3    H132983   3.393   5.242   2.146 -1.2228  1.4818  1.9890
 3856TIP3    H232984   3.468   5.134   2.221  0.4983  0.7753 -0.6263
 3857TIP3   OH232985   1.590   1.945   2.573  0.2279 -0.4651  0.0639
 3857TIP3    H132986   1.567   1.954   2.480 -0.0202 -3.0142 -0.2019
 3857TIP3    H232987   1.655   2.013   2.588  0.0729  0.1953 -1.9010
 3858TIP3   OH232988   0.664   4.689   3.687 -0.1683 -0.4374  0.1288
 3858TIP3    H132989   0.632   4.600   3.673 -1.1808 -0.1183  0.3372
 3858TIP3    H232990   0.619   4.719   3.766  2.0189 -0.5996  1.5077
 3859TIP3   OH232991   2.059   1.521  15.750  0.8078 -0.6195 -0.0792
 3859TIP3    H132992   2.027   1.597  15.798  1.6686  0.1650 -0.7118
 3859TIP3    H232993   2.093   1.463  15.818 -0.6974 -0.8729  0.4807
 3860TIP3   OH232994   2.362   1.867   5.603  0.8022 -0.2219  0.2509
 3860TIP3    H132995   2.352   1.950   5.649 -0.2904 -0.2885  0.1615
 3860TIP3    H232996   2.414   1.889   5.525  0.8700  0.2964  0.4369
 3861TIP3   OH232997   3.350   1.536  14.586  0.0845 -0.3935  0.2633
 3861TIP3    H132998   3.304   1.452  14.587 -0.1422 -0.2689  0.4702
 3861TIP3    H232999   3.341   1.566  14.495 -0.8663 -0.0371  0.4653
 3862TIP3   OH233000   3.803   6.719   1.402 -0.3871  0.4854 -0.2336
 3862TIP3    H133001   3.843   6.788   1.349 -0.9253  1.0043  0.0253
 3862TIP3    H233002   3.711   6.744   1.409 -0.1267  1.0801  1.9022
 3863TIP3   OH233003   3.722   6.603  17.077  0.4304 -0.0110  0.2462
 3863TIP3    H133004   3.648   6.543  17.064 -1.4937  2.6423 -2.2015
 3863TIP3    H233005   3.709   6.637  17.166  0.2427 -1.4011  0.7883
 3864TIP3   OH233006   3.411   5.192   4.062  0.0982  0.5423  0.6011
 3864TIP3    H133007   3.461   5.121   4.021 -0.0313  1.0131 -0.3925
 3864TIP3    H233008   3.325   5.189   4.020  0.1207  1.3361  0.4832
 3865TIP3   OH233009   4.142   3.112   1.306 -0.0537  0.1952 -0.1168
 3865TIP3    H133010   4.095   3.121   1.388  1.3619  2.3777  0.5301
 3865TIP3    H233011   4.182   3.198   1.291  2.2885 -1.0327 -1.4847
 3866TIP3   OH233012   5.130   2.855  17.209 -0.0927 -0.6219  0.0372
 3866TIP3    H133013   5.107   2.782  17.152  0.0399  0.7074 -1.7754
 3866TIP3    H233014   5.049   2.877  17.255 -0.4700 -1.0099 -0.4390
 3867TIP3   OH233015   5.544   4.898   4.942 -0.1489 -0.5193 -0.0673
 3867TIP3    H133016   5.559   4.824   5.000  0.4204 -0.5191 -0.2105
 3867TIP3    H233017   5.558   4.863   4.854  1.5322  0.0801 -0.0721
 3868TIP3   OH233018   4.595   0.832   6.409 -0.3223  0.1371  0.1734
 3868TIP3    H133019   4.550   0.784   6.340 -0.2542 -1.0827  0.9432
 3868TIP3    H233020   4.560   0.921   6.404 -0.2414  0.1060 -1.4774
 3869TIP3   OH233021   2.507   6.061   5.202  0.4561  0.4767 -0.1986
 3869TIP3    H133022   2.575   6.127   5.213 -0.1256  1.0819 -0.1668
 3869TIP3    H233023   2.427   6.103   5.234  0.0078 -0.1153 -0.5163
 3870TIP3   OH233024   4.591   1.071  17.121 -0.2634 -0.3727 -0.2888
 3870TIP3    H133025   4.524   1.071  17.053  1.1704  0.7780 -1.8158
 3870TIP3    H233026   4.543   1.073  17.204 -2.0980 -3.0172 -1.1594
 3871TIP3   OH233027   2.350   6.205  15.584  0.1146  0.0485 -0.0535
 3871TIP3    H133028   2.380   6.240  15.501 -0.9387  0.6111 -0.2189
 3871TIP3    H233029   2.258   6.230  15.589 -0.7323 -2.6849 -0.1924
 3872TIP3   OH233030   1.267   1.278   2.577  0.2045 -0.3477  0.3370
 3872TIP3    H133031   1.264   1.359   2.526  0.5335 -1.1783 -1.0588
 3872TIP3    H233032   1.337   1.227   2.537  0.4882 -1.0479  1.6512
 3873TIP3   OH233033   4.699   6.218  17.008 -0.0120  0.2228  0.1521
 3873TIP3    H133034   4.688   6.124  16.990  0.1021 -0.1251  1.8097
 3873TIP3    H233035   4.665   6.260  16.929  1.0376 -1.2158 -1.1410
 3874TIP3   OH233036   1.625   2.846  11.876  0.9576 -0.2747  0.0229
 3874TIP3    H133037   1.676   2.882  11.948  0.2973 -2.0707  1.4656
 3874TIP3    H233038   1.538   2.884  11.886  1.0716  0.0838 -0.3200
 3875TIP3   OH233039   4.921   5.706   5.849  0.6067 -0.2305 -0.0680
 3875TIP3    H133040   4.905   5.700   5.755  0.1530 -0.0043 -0.0079
 3875TIP3    H233041   4.879   5.788   5.875  0.3909 -0.4889  0.4018
 3876TIP3   OH233042   4.837   2.568   3.816  0.4654  0.7990  0.1548
 3876TIP3    H133043   4.847   2.540   3.725  0.3197  2.9815 -0.5858
 3876TIP3    H233044   4.927   2.568   3.850  0.3798 -1.5171  0.5543
 3877TIP3   OH233045   0.254   3.545  16.796  0.1129  0.3344  0.2318
 3877TIP3    H133046   0.183   3.481  16.786 -1.3443  1.8530  0.3623
 3877TIP3    H233047   0.268   3.550  16.891  0.7048 -0.2890  0.1777
 3878TIP3   OH233048   3.121   2.898  15.099  0.2490  0.7153  0.0122
 3878TIP3    H133049   3.115   2.993  15.108 -0.3931  0.7384 -0.5664
 3878TIP3    H233050   3.076   2.863  15.176 -2.0930  0.8970 -1.1822
 3879TIP3   OH233051   2.644   4.316  14.251 -0.1427  0.2380 -0.5615
 3879TIP3    H133052   2.593   4.245  14.213 -0.4981  0.6778 -0.9248
 3879TIP3    H233053   2.696   4.350  14.178  1.8664 -1.1852  0.1138
 3880TIP3   OH233054   5.898   1.183   1.839 -0.2154  0.0874 -0.2810
 3880TIP3    H133055   5.815   1.160   1.880 -0.5414 -0.1157 -1.0296
 3880TIP3    H233056   5.954   1.107   1.855 -0.2402  0.1419  0.0591
 3881TIP3   OH233057   4.345   6.734   2.488 -0.1330 -0.0181 -0.1079
 3881TIP3    H133058   4.354   6.754   2.394 -0.0781 -1.1934 -0.3663
 3881TIP3    H233059   4.330   6.819   2.529  0.9223  0.6434 -1.0483
 3882TIP3   OH233060   1.866   3.593  13.843  0.3292  0.8756 -0.0906
 3882TIP3    H133061   1.812   3.561  13.915  0.7217  1.5871  0.5332
 3882TIP3    H233062   1.949   3.547  13.853 -0.4509 -1.0527 -1.6931
 3883TIP3   OH233063   5.025   3.541  12.116 -0.3005 -0.3404  0.0327
 3883TIP3    H133064   5.103   3.550  12.061 -0.6892 -2.2665 -0.9326
 3883TIP3    H233065   5.011   3.628  12.153  0.7652  0.6993 -1.8677
 3884TIP3   OH233066   4.295   3.591   1.917  0.3526 -0.7473  0.1991
 3884TIP3    H133067   4.241   3.526   1.872 -1.3649  0.7393 -0.0130
 3884TIP3    H233068   4.234   3.662   1.939  1.5267 -0.4799  3.0369
 3885TIP3   OH233069   3.996   3.190   5.176 -0.2522 -0.4048 -0.0737
 3885TIP3    H133070   3.952   3.216   5.257 -0.9271 -0.7593 -0.3242
 3885TIP3    H233071   4.012   3.096   5.185  0.4279 -0.2853  0.0019
 3886TIP3   OH233072   1.244   5.510   3.414  0.1594  0.2544  0.1339
 3886TIP3    H133073   1.231   5.590   3.364  1.7511 -0.1599 -1.0255
 3886TIP3    H233074   1.325   5.526   3.464 -0.3759 -0.0522  1.1294
 3887TIP3   OH233075   4.355   0.456  15.447  0.9924 -0.3430 -0.5780
 3887TIP3    H133076   4.307   0.398  15.507 -0.2570  0.9165 -0.3225
 3887TIP3    H233077   4.370   0.536  15.497 -1.9705  1.6050 -2.4684
 3888TIP3   OH233078   0.516   2.624   1.483  0.2883 -0.6883 -0.2107
 3888TIP3    H133079   0.581   2.560   1.453  0.0160 -1.4338  0.7261
 3888TIP3    H233080   0.437   2.602   1.434  0.9171  0.7927 -2.0313
 3889TIP3   OH233081   3.812   4.780   1.169  0.1279 -0.4090  0.1062
 3889TIP3    H133082   3.859   4.696   1.171 -0.1425 -0.5558  0.3566
 3889TIP3    H233083   3.843   4.823   1.089 -0.6429 -1.2624 -0.6735
 3890TIP3   OH233084   6.543   0.386  14.603 -0.0259  0.1389 -0.3533
 3890TIP3    H133085   6.594   0.344  14.534 -2.6492 -0.1303 -2.2905
 3890TIP3    H233086   6.569   0.340  14.683  1.2187 -1.3778 -1.5519
 3891TIP3   OH233087   0.191   2.063  17.050  0.0574  0.0500 -0.1385
 3891TIP3    H133088   0.178   2.127  17.120 -1.6406  0.2692 -0.6014
 3891TIP3    H233089   0.133   2.092  16.980 -0.3045 -1.6585 -0.6030
 3892TIP3   OH233090   6.710   4.889  11.530 -0.6205  0.3462 -0.2835
 3892TIP3    H133091   6.691   4.846  11.613 -0.4082  0.5414 -0.1294
 3892TIP3    H233092   6.760   4.824  11.480  0.4553  0.7082  0.2876
 3893TIP3   OH233093   4.900   2.128  15.216 -0.4319 -0.2427 -0.0588
 3893TIP3    H133094   4.910   2.080  15.298 -1.8085 -0.1931  0.1597
 3893TIP3    H233095   4.866   2.214  15.242  2.3483  1.0763 -0.4102
 3894TIP3   OH233096   4.768   5.552  11.815 -0.0439  0.2198  0.7251
 3894TIP3    H133097   4.706   5.574  11.884 -0.0404 -1.7237  1.4260
 3894TIP3    H233098   4.854   5.567  11.854 -0.0297  1.6870  0.1886
 3895TIP3   OH233099   0.775   6.208  14.974  0.4924  0.1758 -0.1126
 3895TIP3    H133100   0.708   6.268  15.007  0.5406  0.4434 -0.4925
 3895TIP3    H233101   0.803   6.247  14.891 -0.1196 -0.8465 -0.8172
 3896TIP3   OH233102   2.239   6.637  14.851 -0.1975 -0.1341  0.7419
 3896TIP3    H133103   2.275   6.609  14.767 -0.6890 -2.9319  1.3487
 3896TIP3    H233104   2.311   6.681  14.896 -0.1457  2.1115 -1.3812
 3897TIP3   OH233105   1.818   3.168  13.515 -0.4105  0.1009 -0.4513
 3897TIP3    H133106   1.909   3.196  13.512 -0.1351 -0.7179 -0.0032
 3897TIP3    H233107   1.800   3.134  13.427  0.7856 -2.9064  0.3486
 3898TIP3   OH233108   0.078   6.417  12.198  0.1429 -0.1325  0.4442
 3898TIP3    H133109   0.112   6.416  12.108 -1.7666  1.0639 -0.3545
 3898TIP3    H233110  -0.013   6.444  12.189  0.4690  2.2171  2.8954
 3899TIP3   OH233111   2.985   6.646   2.601 -0.0748  0.8011  0.0795
 3899TIP3    H133112   3.004   6.562   2.560  1.5657  1.4230 -0.5468
 3899TIP3    H233113   2.936   6.625   2.680  1.5567 -0.8805  0.7296
 3900TIP3   OH233114   1.942   4.943  11.084 -0.1853 -0.2092 -0.2308
 3900TIP3    H133115   1.951   4.959  10.990  2.0288  2.5209  0.3171
 3900TIP3    H233116   1.922   5.029  11.122  1.3476 -0.7400  2.0026
 3901TIP3   OH233117   1.527   0.688  13.391  1.0428 -0.0897  0.1459
 3901TIP3    H133118   1.557   0.659  13.478  0.4362 -0.6878  0.1600
 3901TIP3    H233119   1.435   0.708  13.403  0.9080 -0.3588 -0.4078
 3902TIP3   OH233120   4.645   1.200   2.982  0.0288 -0.1052 -0.5488
 3902TIP3    H133121   4.570   1.141   2.987  0.0154 -0.4329 -3.1406
 3902TIP3    H233122   4.607   1.287   2.972  0.0592  0.2444  1.7697
 3903TIP3   OH233123   5.202   5.060   5.243 -0.5195 -0.5008 -0.1084
 3903TIP3    H133124   5.271   5.046   5.309 -2.2950 -0.7762  1.8031
 3903TIP3    H233125   5.207   5.154   5.224 -1.0011 -0.0463  1.7313
 3904TIP3   OH233126   5.560   4.795  12.329 -0.4229  0.6339  0.7289
 3904TIP3    H133127   5.563   4.721  12.268 -1.1681 -0.9843  2.5276
 3904TIP3    H233128   5.551   4.872  12.273  3.3649 -0.2343 -1.4368
 3905TIP3   OH233129   3.845   4.651   4.799 -0.2945  0.0034  0.4949
 3905TIP3    H133130   3.765   4.649   4.853 -0.0972  3.7399  1.2019
 3905TIP3    H233131   3.817   4.689   4.716  0.2664 -1.3414 -0.3300
 3906TIP3   OH233132   2.890   4.390  14.680 -0.2400 -0.0622  0.7147
 3906TIP3    H133133   2.870   4.445  14.756 -1.5382 -0.9695  1.0671
 3906TIP3    H233134   2.809   4.393  14.628 -0.4797 -1.9043  0.9241
 3907TIP3   OH233135   4.216   1.059  16.065 -0.4108  0.3585 -0.6924
 3907TIP3    H133136   4.203   0.973  16.105 -0.5509  0.1656 -1.1501
 3907TIP3    H233137   4.202   1.045  15.972  2.0328  0.3389 -1.1218
 3908TIP3   OH233138   6.706   0.006  13.623  0.2093 -0.3402  0.3301
 3908TIP3    H133139   6.798  -0.020  13.627  0.3303  0.2927  2.4000
 3908TIP3    H233140   6.700   0.060  13.544  1.4619 -0.8883 -0.1703
 3909TIP3   OH233141   4.566   6.048   1.884  0.6426  0.8800  0.5317
 3909TIP3    H133142   4.618   6.124   1.858  2.4419 -0.0210  1.2973
 3909TIP3    H233143   4.602   5.976   1.833  1.7767 -0.2075  2.7370
 3910TIP3   OH233144   4.602   2.876   5.295  0.4238 -0.0469 -0.4140
 3910TIP3    H133145   4.590   2.797   5.242 -1.4628 -0.5490  0.6954
 3910TIP3    H233146   4.551   2.943   5.250 -1.0496 -0.4336  0.6260
 3911TIP3   OH233147   1.393   4.097  11.554  0.7009 -0.3709 -0.5066
 3911TIP3    H133148   1.395   4.147  11.473  1.4621 -1.1717 -1.0017
 3911TIP3    H233149   1.483   4.103  11.588  0.8560 -1.5335 -0.6756
 3912TIP3   OH233150   0.974   0.637   1.864 -0.2440  0.1862  0.2644
 3912TIP3    H133151   0.902   0.580   1.888 -1.1617  0.6577 -1.2310
 3912TIP3    H233152   0.990   0.619   1.771  1.9273 -0.2739  0.6657
 3913TIP3   OH233153   6.738   1.279  17.074 -0.4934 -0.0816  0.2823
 3913TIP3    H133154   6.766   1.356  17.025  1.3127 -1.0947 -0.3683
 3913TIP3    H233155   6.808   1.265  17.138 -1.1161 -0.8167  0.8184
 3914TIP3   OH233156   3.732   2.762  13.033  0.3219  0.0776  0.0847
 3914TIP3    H133157   3.753   2.692  12.972  1.3757 -0.2007  0.7468
 3914TIP3    H233158   3.690   2.718  13.106  0.6824  0.1719  0.3512
 3915TIP3   OH233159   5.689   1.993   0.410 -0.3260 -0.0295 -0.0918
 3915TIP3    H133160   5.682   2.067   0.349 -2.7938 -0.9487 -1.0575
 3915TIP3    H233161   5.696   2.033   0.496 -1.1899  1.3267 -0.6254
 3916TIP3   OH233162   3.663   6.320  16.538 -0.1685  0.5879 -0.3369
 3916TIP3    H133163   3.680   6.299  16.630  2.3312  1.9389 -0.4152
 3916TIP3    H233164   3.656   6.235  16.495  2.9492 -0.1920  0.4469
 3917TIP3   OH233165   0.263   0.045  16.939 -0.2122 -0.3113 -0.4482
 3917TIP3    H133166   0.280   0.026  17.031 -0.2557  1.2863 -0.0771
 3917TIP3    H233167   0.174   0.015  16.924 -1.0677  1.4426  0.6985
 3918TIP3   OH233168   3.088   1.821  15.436 -0.4237  0.1287  0.1998
 3918TIP3    H133169   3.136   1.902  15.456 -0.1953  0.3689 -1.1787
 3918TIP3    H233170   3.154   1.763  15.399 -1.1130  0.4032 -1.5760
 3919TIP3   OH233171   3.005   3.293   5.124  0.3394 -0.1960 -0.2934
 3919TIP3    H133172   2.941   3.264   5.058  1.6258 -0.6374 -1.3952
 3919TIP3    H233173   3.053   3.213   5.147  0.2867  0.0672  0.7709
 3920TIP3   OH233174   5.615   1.718   3.212  0.0543  0.2520 -0.2690
 3920TIP3    H133175   5.572   1.803   3.221  2.7483  1.7798 -0.7519
 3920TIP3    H233176   5.628   1.688   3.302 -0.7364  0.4305 -0.0877
 3921TIP3   OH233177   4.393   4.011   2.552 -0.5686  0.2364  0.4254
 3921TIP3    H133178   4.330   3.939   2.548 -0.7368  0.3732  0.6433
 3921TIP3    H233179   4.377   4.053   2.636 -0.5785  0.6299  0.2273
 3922TIP3   OH233180   3.618   5.585  15.456  0.2304  0.4235  0.7572
 3922TIP3    H133181   3.635   5.528  15.531 -0.3850  0.8139  1.1979
 3922TIP3    H233182   3.546   5.641  15.484  0.2034  0.7853 -0.0147
 3923TIP3   OH233183   1.564   6.469   5.606  0.2132 -0.0512 -0.0366
 3923TIP3    H133184   1.517   6.394   5.642 -0.1296 -1.5288 -3.1941
 3923TIP3    H233185   1.656   6.446   5.617  0.1217 -0.3247  0.1784
 3924TIP3   OH233186   3.125   4.612  13.456  0.2586 -0.6728  0.5367
 3924TIP3    H133187   3.039   4.634  13.420  0.2443 -0.8237  0.4762
 3924TIP3    H233188   3.182   4.603  13.380  0.1543 -1.3050  0.5224
 3925TIP3   OH233189   3.434   0.057   5.615 -0.4955 -0.8264  0.1521
 3925TIP3    H133190   3.457  -0.035   5.626 -1.0199 -1.3521 -2.4570
 3925TIP3    H233191   3.517   0.100   5.592 -0.5138 -0.9674 -0.1878
 3926TIP3   OH233192   4.646   2.201  17.025  0.1810  0.8074  0.3945
 3926TIP3    H133193   4.731   2.167  17.051 -1.2967 -1.7663  2.3297
 3926TIP3    H233194   4.639   2.286  17.070  0.8126 -0.0281  2.1528
 3927TIP3   OH233195   6.495   0.550   2.440  0.1869  0.2864  0.3940
 3927TIP3    H133196   6.463   0.615   2.378 -1.8820 -0.5992  0.4402
 3927TIP3    H233197   6.591   0.553   2.431  0.0275  1.4419 -1.5067
 3928TIP3   OH233198   0.530   5.023   2.452  0.1461 -0.1849 -0.3625
 3928TIP3    H133199   0.569   5.102   2.489  0.9686 -0.5503 -0.4275
 3928TIP3    H233200   0.467   5.055   2.388 -1.4583  0.4674  1.4540
 3929TIP3   OH233201   1.459   4.658   3.824  0.3461 -0.7003 -0.3296
 3929TIP3    H133202   1.532   4.709   3.791 -0.2428 -0.3985 -1.2069
 3929TIP3    H233203   1.405   4.640   3.747 -0.6152 -0.7313  0.3281
 3930TIP3   OH233204   0.330   3.248   4.112 -0.1970  0.1499  0.0084
 3930TIP3    H133205   0.382   3.328   4.102 -0.2829  0.2167  0.0876
 3930TIP3    H233206   0.296   3.254   4.201 -0.2844  0.0732 -0.0204
 3931TIP3   OH233207   3.145   5.721  13.914 -0.0668  0.0825 -0.2006
 3931TIP3    H133208   3.200   5.655  13.871  0.0300  0.0013  0.0465
 3931TIP3    H233209   3.056   5.695  13.892 -0.0174  0.0664 -0.3886
 3932TIP3   OH233210   6.017   6.011  12.686 -0.3333  0.2175 -0.6460
 3932TIP3    H133211   6.084   6.049  12.743 -1.4417 -3.5628  3.8694
 3932TIP3    H233212   6.065   5.982  12.609  2.7800  0.0086  1.1972
 3933TIP3   OH233213   1.603   3.569   5.139  0.4525  0.0086  0.3163
 3933TIP3    H133214   1.531   3.510   5.115  1.3572 -1.1014  0.2064
 3933TIP3    H233215   1.610   3.560   5.234  0.2564  0.3499  0.3645
 3934TIP3   OH233216   6.006   6.574  11.514 -0.3153  0.0073 -0.3396
 3934TIP3    H133217   5.930   6.580  11.456 -1.0926 -1.5381  0.4741
 3934TIP3    H233218   6.035   6.483  11.508  1.2090  0.4552 -0.2788
 3935TIP3   OH233219   5.799   3.490  13.318  0.1831  0.6096 -0.1459
 3935TIP3    H133220   5.756   3.515  13.236 -0.3103  0.1341 -0.0360
 3935TIP3    H233221   5.728   3.480  13.381  0.2284 -1.6789 -0.3464
 3936TIP3   OH233222   4.812   4.122  12.232  0.1656 -0.3930 -0.1399
 3936TIP3    H133223   4.785   4.206  12.268  0.5582 -0.6285  0.7282
 3936TIP3    H233224   4.860   4.144  12.152  0.1343  0.1946  0.0000
 3937TIP3   OH233225   2.493   3.521   4.911  0.4289 -0.2770 -0.2645
 3937TIP3    H133226   2.455   3.480   4.988  1.2460 -3.8609 -1.5912
 3937TIP3    H233227   2.426   3.512   4.843  0.1044  1.9489 -0.3141
 3938TIP3   OH233228   4.147   5.476   4.027 -0.0729 -0.0991 -0.3779
 3938TIP3    H133229   4.088   5.497   4.100 -0.1546 -0.0835 -0.4485
 3938TIP3    H233230   4.158   5.559   3.981  2.7651  0.7736  1.6159
 3939TIP3   OH233231   2.084   3.876  11.460 -0.0238  0.3775  0.5855
 3939TIP3    H133232   2.060   3.888  11.368 -0.0279 -1.4718  0.3088
 3939TIP3    H233233   2.173   3.842  11.458 -0.2800 -0.3777  1.2036
 3940TIP3   OH233234   5.410   0.589   4.966  0.6836  0.2037  0.0471
 3940TIP3    H133235   5.375   0.500   4.961  0.4109  0.3871 -2.0288
 3940TIP3    H233236   5.368   0.625   5.044 -1.4714 -0.5843 -0.6455
 3941TIP3   OH233237   0.208   6.357   1.534  0.1253 -0.3239  0.6591
 3941TIP3    H133238   0.136   6.309   1.493  0.7997 -0.5621 -0.2771
 3941TIP3    H233239   0.263   6.289   1.573  2.2196 -0.6284 -2.4535
 3942TIP3   OH233240   3.271   3.949  16.032 -0.7266 -0.1643  1.1078
 3942TIP3    H133241   3.297   3.864  15.997 -1.4846 -0.2482  0.7355
 3942TIP3    H233242   3.354   3.993  16.051 -0.1942  0.2931 -1.7578
 3943TIP3   OH233243   6.369   4.488   4.420  0.0682  0.1308 -0.1204
 3943TIP3    H133244   6.418   4.567   4.396  0.2707  0.8989  2.5021
 3943TIP3    H233245   6.436   4.429   4.456 -0.4759 -0.0992  0.5206
 3944TIP3   OH233246   6.012   5.661  17.118 -0.3249 -0.7878 -0.2513
 3944TIP3    H133247   5.931   5.636  17.074 -1.6330  1.1993  0.8979
 3944TIP3    H233248   6.007   5.756  17.125  0.3010 -0.8928  3.2120
 3945TIP3   OH233249   2.037   0.219   3.974 -0.3596 -1.0888  0.2470
 3945TIP3    H133250   2.066   0.267   4.052 -0.2772 -0.6473 -0.0513
 3945TIP3    H233251   1.948   0.250   3.959 -0.2934 -1.0020  0.0310
 3946TIP3   OH233252   0.300   5.273  11.114 -0.5579  0.5508  0.7187
 3946TIP3    H133253   0.359   5.345  11.092 -1.4622  1.5269  1.4199
 3946TIP3    H233254   0.349   5.194  11.089  1.4929  1.2523  2.2011
 3947TIP3   OH233255   1.745   6.264  13.954 -0.3258 -0.7407 -0.1576
 3947TIP3    H133256   1.832   6.264  13.995 -2.0431 -1.8720  3.9366
 3947TIP3    H233257   1.763   6.243  13.862  3.6582 -1.9170  0.6603
 3948TIP3   OH233258   5.113   3.416   3.482  0.0300  0.2793 -0.2136
 3948TIP3    H133259   5.178   3.380   3.544 -0.5384 -2.4989 -1.0849
 3948TIP3    H233260   5.161   3.424   3.400 -0.1631  0.3693 -0.3165
 3949TIP3   OH233261   6.316   6.388   1.571  0.8233 -0.6774 -0.5058
 3949TIP3    H133262   6.285   6.347   1.651 -0.3008 -0.0242 -0.5906
 3949TIP3    H233263   6.408   6.360   1.564  1.2354 -0.0288  1.4789
 3950TIP3   OH233264   2.097   3.175   5.343  0.1206  0.2484 -0.3133
 3950TIP3    H133265   2.132   3.264   5.352 -0.8405  0.9637 -2.6834
 3950TIP3    H233266   2.058   3.155   5.428  2.1427  1.2566  0.9014
 3951TIP3   OH233267   5.670   1.888  12.171  0.6648 -0.0818  0.1624
 3951TIP3    H133268   5.721   1.832  12.112  0.2042  0.0142 -0.3321
 3951TIP3    H233269   5.736   1.939  12.217  1.0954 -1.0456  0.6460
 3952TIP3   OH233270   6.127   1.485   1.248  0.7365 -0.0408 -0.1076
 3952TIP3    H133271   6.202   1.481   1.307 -0.3467  2.9952  1.7026
 3952TIP3    H233272   6.149   1.551   1.184 -0.4112  1.0714  0.5942
 3953TIP3   OH233273   1.404   6.115   2.338  0.7640 -0.3540 -0.0938
 3953TIP3    H133274   1.497   6.133   2.351  0.4062  0.5286  1.4426
 3953TIP3    H233275   1.384   6.045   2.400  0.7292 -1.7155 -1.5764
 3954TIP3   OH233276   5.988   2.305  11.633 -0.1878 -0.0447 -0.3393
 3954TIP3    H133277   5.897   2.287  11.611 -0.4812  0.6687  0.2475
 3954TIP3    H233278   6.034   2.224  11.612 -0.9704 -0.4433 -0.5577
 3955TIP3   OH233279   4.911   1.988  15.479  0.2799  0.2449  0.3524
 3955TIP3    H133280   4.962   1.969  15.557 -1.0897  0.4579  1.3407
 3955TIP3    H233281   4.872   1.904  15.455  0.0760  0.3346  0.3653
 3956TIP3   OH233282   3.321   4.358  15.987  0.4994  0.4026  0.4999
 3956TIP3    H133283   3.383   4.365  16.060 -0.2009 -0.2513  1.1623
 3956TIP3    H233284   3.235   4.361  16.028  0.0650 -2.5329  0.0010
 3957TIP3   OH233285   4.703   5.930  16.976 -0.2785  0.3180 -0.3956
 3957TIP3    H133286   4.782   5.880  16.996 -0.7944 -1.2733 -2.0659
 3957TIP3    H233287   4.692   5.922  16.882 -1.7308  1.6301 -0.3925
 3958TIP3   OH233288   4.909   3.692   6.259  0.0821 -0.3330  0.2162
 3958TIP3    H133289   4.843   3.759   6.276  0.0412  0.2504 -1.9710
 3958TIP3    H233290   4.961   3.689   6.339 -1.0457  0.9899  1.0467
 3959TIP3   OH233291   3.372   6.090   6.086 -0.2320  0.2248  0.7660
 3959TIP3    H133292   3.333   6.098   6.173  0.4471  1.5602  0.9610
 3959TIP3    H233293   3.373   6.179   6.052 -0.3868 -0.2664 -0.5841
 3960TIP3   OH233294   0.550   1.510   3.929 -0.0419 -0.2063 -0.5972
 3960TIP3    H133295   0.461   1.504   3.893 -0.3289  0.0645  0.0380
 3960TIP3    H233296   0.542   1.473   4.017  0.2236  0.8529 -0.1177
 3961TIP3   OH233297   3.589   5.834  10.718 -0.1394 -0.7390  0.0986
 3961TIP3    H133298   3.640   5.893  10.663 -1.6413  0.9014  0.3701
 3961TIP3    H233299   3.653   5.770  10.750  1.5207  0.5687 -0.4316
 3962TIP3   OH233300   2.135   3.315  15.179  0.0013 -0.0561  0.5915
 3962TIP3    H133301   2.070   3.332  15.246 -0.8473  0.6800 -0.3914
 3962TIP3    H233302   2.127   3.222  15.161 -1.6878  0.2460 -0.4045
 3963TIP3   OH233303   0.248   2.112  10.589 -0.0898 -0.4038  0.0304
 3963TIP3    H133304   0.214   2.056  10.659 -2.0499  1.1683  0.3927
 3963TIP3    H233305   0.289   2.050  10.527  0.3001 -1.9536  1.7561
 3964TIP3   OH233306   0.305   4.374   0.590 -0.5289 -0.0079 -0.0794
 3964TIP3    H133307   0.249   4.367   0.513  2.8581 -2.3466 -2.6477
 3964TIP3    H233308   0.331   4.466   0.592 -0.4405  0.0547 -1.9979
 3965TIP3   OH233309   0.706   6.092  17.207 -0.2467 -0.3196 -0.6884
 3965TIP3    H133310   0.710   6.001  17.237  0.6125  0.1880  0.8396
 3965TIP3    H233311   0.796   6.113  17.182 -0.1830  0.4657  0.1366
 3966TIP3   OH233312   4.821   2.889   0.932  0.3320 -0.3771 -0.6340
 3966TIP3    H133313   4.913   2.865   0.921 -0.0211 -0.9299 -2.8406
 3966TIP3    H233314   4.821   2.984   0.936  1.0134 -0.3791 -0.5429
 3967TIP3   OH233315   4.755   5.406   3.492  0.3640 -0.1782  0.3773
 3967TIP3    H133316   4.822   5.437   3.431 -0.5141 -1.7015 -1.4413
 3967TIP3    H233317   4.800   5.342   3.547  0.4146 -1.3312 -0.9524
 3968TIP3   OH233318   0.778   5.363  15.382  0.0660  0.0108 -0.5558
 3968TIP3    H133319   0.736   5.366  15.296  0.6625 -0.1506 -0.8622
 3968TIP3    H233320   0.774   5.454  15.414 -1.1024 -0.1245 -0.2755
 3969TIP3   OH233321   3.364   4.337  13.719 -0.1638  0.9267  0.0531
 3969TIP3    H133322   3.365   4.431  13.701  0.4092  1.1685  1.2663
 3969TIP3    H233323   3.409   4.298  13.644 -3.3996  1.2289 -2.2328
 3970TIP3   OH233324   0.892   2.845   3.616  0.5937  0.0879 -0.0560
 3970TIP3    H133325   0.831   2.772   3.603 -1.3949  1.4990  0.7885
 3970TIP3    H233326   0.866   2.910   3.551 -0.9884  1.9797  2.2808
 3971TIP3   OH233327   6.541   3.711  11.461 -0.2646 -0.0206  0.2221
 3971TIP3    H133328   6.505   3.707  11.550  1.9553  0.2953  1.1879
 3971TIP3    H233329   6.565   3.803  11.450 -1.8759  0.2619 -1.3148
 3972TIP3   OH233330   6.456   5.845  14.151  0.3177  0.0553 -0.2146
 3972TIP3    H133331   6.460   5.783  14.078 -0.0725 -0.8740  0.5197
 3972TIP3    H233332   6.371   5.827  14.193  0.2784  0.9665  0.1293
 3973TIP3   OH233333   5.611   4.254  13.446 -0.3856  0.0483  0.4970
 3973TIP3    H133334   5.615   4.341  13.407 -0.7600 -0.0210  0.2954
 3973TIP3    H233335   5.666   4.259  13.524 -0.0505  0.3395  0.2429
 3974TIP3   OH233336   1.466   2.148   5.804  0.6850 -0.7416  0.2473
 3974TIP3    H133337   1.376   2.120   5.819  1.1043 -2.1327  0.2236
 3974TIP3    H233338   1.490   2.113   5.719  0.4111  1.8762 -1.0222
 3975TIP3   OH233339   3.674   5.066  13.893  0.2470 -0.0379 -0.4803
 3975TIP3    H133340   3.738   5.054  13.822  0.3661  0.3071 -0.4356
 3975TIP3    H233341   3.725   5.104  13.965  0.2850 -1.1006  0.0645
 3976TIP3   OH233342   1.150   5.159  13.225 -0.6031 -0.5539 -0.1887
 3976TIP3    H133343   1.134   5.188  13.135  0.5076  0.3208 -0.1244
 3976TIP3    H233344   1.163   5.065  13.218 -3.0334 -0.9136 -0.5773
 3977TIP3   OH233345   0.711   3.101   6.084  0.6803 -0.0365  0.3446
 3977TIP3    H133346   0.694   3.007   6.095 -1.6506 -0.4010 -4.1417
 3977TIP3    H233347   0.660   3.143   6.154 -1.6490 -2.0419 -0.0279
 3978TIP3   OH233348   0.168   0.800   6.317  0.2317 -0.1191  0.3087
 3978TIP3    H133349   0.195   0.885   6.351  1.0032 -0.3010  0.1776
 3978TIP3    H233350   0.144   0.750   6.395  1.4429 -0.3428  0.5645
 3979TIP3   OH233351   5.861   0.956  16.792 -0.6906  0.4548 -0.3497
 3979TIP3    H133352   5.870   0.990  16.703 -0.4821  1.9274  0.2003
 3979TIP3    H233353   5.867   0.861  16.782  0.7926  0.6404 -1.7373
 3980TIP3   OH233354   4.851   0.685  11.442  0.3992  0.5700  0.2514
 3980TIP3    H133355   4.828   0.751  11.507 -0.0816  0.3602  0.2984
 3980TIP3    H233356   4.767   0.647  11.415  0.7307 -0.7658  1.0072
 3981TIP3   OH233357   4.931   5.298   1.519 -0.2407 -0.7500 -0.3282
 3981TIP3    H133358   4.965   5.354   1.449  1.5386 -2.8866 -1.2783
 3981TIP3    H233359   4.836   5.307   1.513 -0.0848  0.0780 -2.2019
 3982TIP3   OH233360   4.479   0.431   4.055  0.0959 -0.2334  0.1196
 3982TIP3    H133361   4.563   0.469   4.027  0.5474 -0.8971  0.5479
 3982TIP3    H233362   4.444   0.494   4.118 -1.2203  1.5999 -2.2746
 3983TIP3   OH233363   2.673   5.184   2.448 -0.1850  0.0099 -0.0343
 3983TIP3    H133364   2.742   5.205   2.385 -0.3668 -0.9320 -0.5761
 3983TIP3    H233365   2.604   5.144   2.394 -1.3908  1.4183  0.4099
 3984TIP3   OH233366   2.295   2.629  16.890 -0.6119  0.6654 -0.4629
 3984TIP3    H133367   2.329   2.602  16.975 -1.0819  0.8019 -0.2319
 3984TIP3    H233368   2.217   2.681  16.910 -0.0035  1.7838 -0.9186
 3985TIP3   OH233369   1.323   1.177   2.057 -0.2892  0.1797  0.1321
 3985TIP3    H133370   1.249   1.150   2.111 -0.3372  0.0210 -0.0129
 3985TIP3    H233371   1.315   1.125   1.977  0.3271 -0.2775  0.3640
 3986TIP3   OH233372   6.586   4.878   1.707 -0.0030 -1.2747  0.3235
 3986TIP3    H133373   6.640   4.811   1.747 -1.0047 -2.9670 -1.0516
 3986TIP3    H233374   6.500   4.866   1.747  0.3881  1.0411  2.0967
 3987TIP3   OH233375   1.507   5.870   2.153  0.1313  0.3572 -0.7832
 3987TIP3    H133376   1.506   5.911   2.240 -2.0913 -0.7180 -0.2513
 3987TIP3    H233377   1.566   5.795   2.163 -0.4085  0.0148 -0.0751
 3988TIP3   OH233378   2.366   0.450  15.633 -0.1475  0.3500 -0.4319
 3988TIP3    H133379   2.416   0.377  15.596 -0.2938  0.8616 -1.6479
 3988TIP3    H233380   2.424   0.486  15.701  1.4875  1.3616 -2.2700
 3989TIP3   OH233381   1.443   4.032  13.344 -0.2157  0.2772  0.0610
 3989TIP3    H133382   1.441   4.090  13.268 -3.9426  0.3402  0.0204
 3989TIP3    H233383   1.415   4.088  13.417  0.3924 -0.4765  0.8913
 3990TIP3   OH233384   0.708   0.199   0.057 -0.2951  0.7249  0.2550
 3990TIP3    H133385   0.733   0.222  -0.032  0.8925  1.5946  0.7802
 3990TIP3    H233386   0.782   0.228   0.111 -0.3638 -1.0668  1.3839
 3991TIP3   OH233387   4.537   3.597  10.755 -0.7384  0.4661 -0.1551
 3991TIP3    H133388   4.446   3.621  10.736 -0.8836  1.2356  1.3374
 3991TIP3    H233389   4.586   3.678  10.742 -0.5559  0.5146  0.8023
 3992TIP3   OH233390   1.539   2.093  16.879 -0.0751 -0.0211 -0.2348
 3992TIP3    H133391   1.477   2.158  16.846  0.2516 -0.2052 -1.2345
 3992TIP3    H233392   1.557   2.121  16.969  1.1672  2.1181 -1.0982
 3993TIP3   OH233393   2.097   6.441  17.367  0.0576  0.1874 -0.0399
 3993TIP3    H133394   2.114   6.532  17.343 -0.0102  0.4168  0.7594
 3993TIP3    H233395   2.055   6.446  17.452 -0.6125 -0.5629 -0.3132
 3994TIP3   OH233396   3.381   4.625  13.671 -0.0844  0.1887 -0.3814
 3994TIP3    H133397   3.461   4.668  13.642 -0.1651 -0.2349 -1.2808
 3994TIP3    H233398   3.311   4.670  13.623 -0.5285  1.3589  1.2994
 3995TIP3   OH233399   3.798   4.029   0.740  0.1792  0.2204 -0.1518
 3995TIP3    H133400   3.725   4.015   0.799  1.7254  2.7140  2.5928
 3995TIP3    H233401   3.788   4.120   0.710  1.6568  0.3327 -0.3926
 3996TIP3   OH233402   2.279   5.568   5.751 -0.0160  0.3409  0.1084
 3996TIP3    H133403   2.331   5.574   5.831 -1.5239  4.2404  1.0407
 3996TIP3    H233404   2.189   5.560   5.781 -0.3947 -1.6423 -1.3633
 3997TIP3   OH233405   1.710   6.456  13.450  0.1307 -0.6720  0.0280
 3997TIP3    H133406   1.707   6.401  13.372 -3.3964  1.2693 -1.4566
 3997TIP3    H233407   1.726   6.396  13.522  0.8827 -2.9277 -1.9044
 3998TIP3   OH233408   6.556   2.036  14.722 -0.1187  0.0631 -0.4364
 3998TIP3    H133409   6.505   2.078  14.652  1.5506  1.0435 -1.1501
 3998TIP3    H233410   6.600   1.963  14.678  1.9118  1.4185 -0.8087
 3999TIP3   OH233411   4.427   3.981  14.561 -0.1077 -0.0625 -0.3754
 3999TIP3    H133412   4.361   3.926  14.518  0.5666 -1.6252  0.4792
 3999TIP3    H233413   4.390   4.069  14.559 -0.6263 -0.2572 -3.0460
 4000TIP3   OH233414   5.701   3.382   1.029 -0.2315  0.1657 -0.0698
 4000TIP3    H133415   5.671   3.472   1.020  0.3855  0.8024  3.1081
 4000TIP3    H233416   5.777   3.376   0.971 -0.6236  1.4939 -0.7600
 4001TIP3   OH233417   3.260   4.763   1.969 -0.3859  0.0707  0.0628
 4001TIP3    H133418   3.271   4.824   2.042 -0.0686 -0.3975  0.4162
 4001TIP3    H233419   3.165   4.751   1.962 -0.3760 -0.9504  1.3135
 4002TIP3   OH233420   3.611   4.401  15.270  0.5045 -0.1467  0.1849
 4002TIP3    H133421   3.618   4.396  15.175  2.4092  1.2267  0.2031
 4002TIP3    H233422   3.597   4.494  15.288  0.8646 -0.2860  1.2714
 4003TIP3   OH233423   2.386   6.723   2.430 -0.1427 -0.0264 -0.4226
 4003TIP3    H133424   2.347   6.754   2.348  0.0271 -0.1248 -0.5422
 4003TIP3    H233425   2.480   6.730   2.416 -0.1166  0.7483  0.0723
 4004TIP3   OH233426   3.205   6.418   2.769 -0.6113 -0.1836  0.6073
 4004TIP3    H133427   3.132   6.406   2.830 -2.6033  1.0231 -1.3832
 4004TIP3    H233428   3.165   6.410   2.683  2.0238 -1.4299 -0.6087
 4005TIP3   OH233429   6.707   3.212   6.970 -0.2311  0.0703 -0.3677
 4005TIP3    H133430   6.703   3.270   6.894  0.0865 -0.2483 -0.6301
 4005TIP3    H233431   6.753   3.135   6.939  0.0196 -0.0104  0.1854
 4006TIP3   OH233432   0.075   5.811  14.358  0.0726  0.3987  0.2012
 4006TIP3    H133433   0.034   5.868  14.423  0.5953 -0.7503  1.5928
 4006TIP3    H233434   0.168   5.831  14.363  0.2251 -0.3517  0.4930
 4007TIP3   OH233435   1.135   0.423   5.350  0.3769 -0.2308  0.3281
 4007TIP3    H133436   1.099   0.354   5.294  2.1789 -0.6264 -0.4213
 4007TIP3    H233437   1.123   0.391   5.439 -1.3886 -0.1675  0.1601
 4008TIP3   OH233438   2.714   5.913   4.324 -0.2089  0.6221  0.1310
 4008TIP3    H133439   2.642   5.920   4.387 -2.3371  1.4358 -2.2525
 4008TIP3    H233440   2.756   5.830   4.345 -1.3419  0.4759  2.0767
 4009TIP3   OH233441   6.217   2.765   2.519 -0.2042 -0.1074  0.2032
 4009TIP3    H133442   6.121   2.759   2.516 -0.1453 -1.0498 -1.9962
 4009TIP3    H233443   6.240   2.825   2.448  0.8020  1.8606  2.0885
 4010TIP3   OH233444   2.653   3.144  16.767 -0.3706 -0.3671 -0.4256
 4010TIP3    H133445   2.589   3.162  16.699 -0.0349  1.8559 -0.2127
 4010TIP3    H233446   2.600   3.127  16.846 -0.7932  2.5109  0.0087
 4011TIP3   OH233447   1.278   3.861   6.749 -0.0978 -0.4013  0.7937
 4011TIP3    H133448   1.264   3.914   6.670 -0.2114 -0.2879  0.8897
 4011TIP3    H233449   1.191   3.855   6.789 -0.3252 -1.6622  0.1559
 4012TIP3   OH233450   6.097   2.933   4.432 -0.3994 -0.4046 -0.3014
 4012TIP3    H133451   6.130   2.870   4.369 -0.5236 -1.8327  1.0008
 4012TIP3    H233452   6.036   2.988   4.382 -0.7825 -1.7295 -1.3358
 4013TIP3   OH233453   1.324   0.946  11.165 -0.3043 -0.2818 -0.0345
 4013TIP3    H133454   1.368   0.865  11.138  0.0459  0.4722 -1.8560
 4013TIP3    H233455   1.324   1.001  11.087 -3.9405  0.0551  0.0512
 4014TIP3   OH233456   1.425   4.815   5.919  0.5648 -0.1709  0.3295
 4014TIP3    H133457   1.329   4.822   5.922  0.7012  2.3077  0.7070
 4014TIP3    H233458   1.442   4.770   5.836 -0.8939 -0.1012 -0.0456
 4015TIP3   OH233459   6.139   1.228   3.807  0.3509 -0.0117 -0.0155
 4015TIP3    H133460   6.182   1.180   3.878  0.3364 -0.0081 -0.0042
 4015TIP3    H233461   6.057   1.180   3.792 -0.2425  0.6978  0.8197
 4016TIP3   OH233462   5.233   4.246   2.622  0.2135 -0.1157  0.1619
 4016TIP3    H133463   5.274   4.164   2.595 -0.5306  0.1497 -1.9267
 4016TIP3    H233464   5.244   4.248   2.718  0.4859 -2.4933  0.2340
 4017TIP3   OH233465   1.522   4.621   0.885  0.0081 -0.0775  0.3725
 4017TIP3    H133466   1.471   4.562   0.939 -1.0272 -0.0450 -0.5406
 4017TIP3    H233467   1.520   4.705   0.932 -2.1796  0.3735 -0.4148
 4018TIP3   OH233468   1.646   4.109  16.180 -0.2479  0.2342 -0.3913
 4018TIP3    H133469   1.686   4.091  16.265  1.0383  2.0370 -0.5618
 4018TIP3    H233470   1.557   4.075  16.188  0.2091 -0.6941  1.2445
 4019TIP3   OH233471   0.862   2.670   6.173 -0.5670 -0.1988  0.3419
 4019TIP3    H133472   0.834   2.754   6.208  1.2813  0.7322 -0.2897
 4019TIP3    H233473   0.920   2.634   6.240 -0.4754 -0.4567  0.1284
 4020TIP3   OH233474   5.701   5.820   2.422 -0.2617 -0.5775 -0.5266
 4020TIP3    H133475   5.667   5.858   2.341 -2.3327  0.6624  0.8002
 4020TIP3    H233476   5.623   5.787   2.467  0.2316  1.7855  2.4296
 4021TIP3   OH233477   3.998   5.815   2.592  0.0174  0.2339  0.1376
 4021TIP3    H133478   4.047   5.742   2.555  0.0369 -0.2165  1.0333
 4021TIP3    H233479   4.023   5.817   2.685 -3.3474 -1.4841  1.2536
 4022TIP3   OH233480   2.793   5.893  16.689  0.1331 -0.1033  0.8886
 4022TIP3    H133481   2.729   5.909  16.758 -1.0779 -2.1251  0.3176
 4022TIP3    H233482   2.742   5.892  16.608  1.5887  2.7373 -0.2227
 4023TIP3   OH233483   3.311   6.224  13.648 -1.2159 -0.2659 -0.3947
 4023TIP3    H133484   3.230   6.224  13.699 -1.5942 -2.9211 -0.8762
 4023TIP3    H233485   3.310   6.308  13.600 -3.2320  0.1090  0.2423
 4024TIP3   OH233486   3.138   5.677  14.656  0.3608  0.3867 -0.1530
 4024TIP3    H133487   3.078   5.709  14.723  0.7042  0.9199 -0.0975
 4024TIP3    H233488   3.113   5.724  14.577 -0.2466 -0.4658 -0.4945
 4025TIP3   OH233489   3.617   1.765   1.810 -0.4070 -0.6984  0.1841
 4025TIP3    H133490   3.565   1.845   1.811 -0.1428 -0.4998  1.9014
 4025TIP3    H233491   3.561   1.700   1.854  0.0595 -0.9783  0.3798
 4026TIP3   OH233492   3.921   4.118  15.787  0.6118 -0.1722 -0.2036
 4026TIP3    H133493   3.948   4.106  15.878 -2.1457 -0.8730  0.6152
 4026TIP3    H233494   3.968   4.051  15.738  1.6995 -0.1530  0.7844
 4027TIP3   OH233495   1.064   1.782  16.173  0.0167 -0.0325 -0.4168
 4027TIP3    H133496   0.989   1.726  16.193 -2.1447  2.5059 -0.8742
 4027TIP3    H233497   1.027   1.854  16.122  3.1410  0.3631 -2.3907
 4028TIP3   OH233498   3.606   1.727  12.066  0.1140 -0.0429 -0.2528
 4028TIP3    H133499   3.592   1.793  11.998 -2.2543 -0.7288 -0.5305
 4028TIP3    H233500   3.520   1.715  12.105  0.9502 -1.3883  1.2932
 4029TIP3   OH233501   2.253   3.765   1.940  0.3821 -0.9649  0.1584
 4029TIP3    H133502   2.166   3.742   1.906 -0.5381 -4.0101  3.8526
 4029TIP3    H233503   2.312   3.704   1.897  0.0597 -1.3880  0.3029
 4030TIP3   OH233504   3.498   2.043   4.767 -0.6560  0.0403 -0.4256
 4030TIP3    H133505   3.409   2.012   4.785 -0.3384 -1.3867 -1.1854
 4030TIP3    H233506   3.523   2.000   4.685  0.4675  1.0136 -0.6320
 4031TIP3   OH233507   0.736   2.930   5.331 -0.4031  0.5169  0.2994
 4031TIP3    H133508   0.807   2.925   5.267 -0.8249  0.8681 -0.2063
 4031TIP3    H233509   0.696   3.016   5.316  0.4024  1.2404  2.0224
 4032TIP3   OH233510   0.231   5.146  11.976 -0.1927 -0.0934 -0.3232
 4032TIP3    H133511   0.228   5.059  12.017 -1.2876  0.0078 -0.1350
 4032TIP3    H233512   0.322   5.158  11.949  0.6946 -0.0426  2.3769
 4033TIP3   OH233513   6.430   2.135  13.474  0.2120 -0.1281 -0.1792
 4033TIP3    H133514   6.415   2.041  13.465  0.4030 -0.3453  1.4516
 4033TIP3    H233515   6.404   2.171  13.389  1.9194 -1.8421 -1.5282
 4034TIP3   OH233516   0.685   4.368   0.247  0.3310 -0.5344 -0.4091
 4034TIP3    H133517   0.674   4.440   0.309 -1.2375  1.1180 -2.4634
 4034TIP3    H233518   0.774   4.381   0.212  0.3714 -0.1009 -0.1573
 4035TIP3   OH233519   2.652   1.020   1.331 -0.2096 -0.3578  0.1492
 4035TIP3    H133520   2.745   1.042   1.339 -0.3993  1.5168 -1.7767
 4035TIP3    H233521   2.650   0.925   1.331  1.4543 -0.4730  2.3474
 4036TIP3   OH233522   6.409   0.574   4.206  0.2735 -0.0481  0.5499
 4036TIP3    H133523   6.323   0.560   4.244  0.2701  0.0567  0.5805
 4036TIP3    H233524   6.468   0.524   4.263 -0.1037 -2.7119 -1.1963
 4037TIP3   OH233525   4.158   3.532   2.612 -0.4564 -0.4695  0.3753
 4037TIP3    H133526   4.069   3.567   2.620 -0.2622 -0.1148  0.9580
 4037TIP3    H233527   4.160   3.457   2.671 -0.5766 -0.9077 -0.1613
 4038TIP3   OH233528   3.330   5.069  14.251  0.0822 -0.4723  0.2533
 4038TIP3    H133529   3.344   4.996  14.311  0.1975 -0.3394  0.3889
 4038TIP3    H233530   3.244   5.104  14.276 -1.6726 -2.7819 -2.1470
 4039TIP3   OH233531   1.755   5.193   5.893 -0.6471 -0.1785  0.0911
 4039TIP3    H133532   1.675   5.190   5.945 -0.8781 -0.8594 -0.2989
 4039TIP3    H233533   1.800   5.111   5.913  0.3467  0.5226  0.8984
 4040TIP3   OH233534   0.524   6.628  13.648 -0.1792  0.1306  0.1824
 4040TIP3    H133535   0.431   6.648  13.646  0.0066  1.0271  0.1040
 4040TIP3    H233536   0.555   6.663  13.731  0.1658  0.1862  0.0324
 4041TIP3   OH233537   0.952   2.591  14.411 -0.2566 -0.4502  0.4168
 4041TIP3    H133538   1.044   2.574  14.431 -0.0324  0.2404  0.0250
 4041TIP3    H233539   0.911   2.604  14.497 -0.0235 -0.9063  0.6014
 4042TIP3   OH233540   1.025   5.867   6.174 -1.0913 -0.1656 -0.5715
 4042TIP3    H133541   1.017   5.798   6.240 -1.3645  0.1948 -0.2283
 4042TIP3    H233542   0.957   5.931   6.197  0.7864  1.4965  0.6325
 4043TIP3   OH233543   0.127   2.503  12.055 -0.1581 -0.1268 -0.0014
 4043TIP3    H133544   0.090   2.530  11.971  0.1828 -0.5603 -0.3013
 4043TIP3    H233545   0.148   2.585  12.100 -1.6117  0.1302  0.2444
 4044TIP3   OH233546   1.748   5.770  11.336 -0.2060 -0.1451 -0.4427
 4044TIP3    H133547   1.666   5.730  11.364 -0.3050 -0.1866 -0.7849
 4044TIP3    H233548   1.724   5.857  11.306  0.1423  0.5538  1.1873
 4045TIP3   OH233549   4.191   5.316   0.769 -0.2759 -0.5236  0.0318
 4045TIP3    H133550   4.259   5.307   0.837 -0.1275 -1.2613 -0.2088
 4045TIP3    H233551   4.183   5.411   0.756  0.6543 -0.4228  0.1234
 4046TIP3   OH233552   0.020   0.412   5.441 -0.6849 -0.0445  0.4425
 4046TIP3    H133553   0.038   0.475   5.371 -1.9781  0.7080  0.7656
 4046TIP3    H233554   0.076   0.337   5.420 -1.9680 -0.4007 -2.1658
 4047TIP3   OH233555   2.018   4.717   1.829 -0.2871  0.1223 -0.4902
 4047TIP3    H133556   2.112   4.721   1.850 -0.3805 -0.7901  0.1560
 4047TIP3    H233557   1.975   4.755   1.906 -0.4774 -0.0917 -0.4907
 4048TIP3   OH233558   3.231   6.374   1.021  0.0675  0.0363  0.4076
 4048TIP3    H133559   3.302   6.435   1.042  0.8960 -0.2167 -1.4354
 4048TIP3    H233560   3.155   6.408   1.068  1.3283  0.4697  2.2241
 4049TIP3   OH233561   0.567   4.335   0.828 -0.0547  0.6546 -0.1448
 4049TIP3    H133562   0.661   4.353   0.829 -0.0645  1.0242 -1.8388
 4049TIP3    H233563   0.559   4.256   0.773 -0.6612  0.0177  0.8345
 4050TIP3   OH233564   4.834   2.064  13.001 -0.8658 -0.4945  0.0926
 4050TIP3    H133565   4.885   2.033  13.075  0.3329  0.7665 -0.1775
 4050TIP3    H233566   4.770   2.124  13.038 -0.5591 -0.2103  0.1641
 4051TIP3   OH233567   1.727   2.483  14.657  0.5825  0.3372  0.0918
 4051TIP3    H133568   1.708   2.565  14.702  1.0298  0.0084  0.9211
 4051TIP3    H233569   1.646   2.459  14.613 -0.3846 -0.0917  1.9946
 4052TIP3   OH233570   3.605   0.406   3.865  0.4770  0.0917  1.0803
 4052TIP3    H133571   3.537   0.417   3.931 -0.4885  0.0963  0.1199
 4052TIP3    H233572   3.672   0.353   3.908 -1.5714 -2.7064  1.1552
 4053TIP3   OH233573   4.492   6.664  10.980 -0.1612 -0.0700 -0.0955
 4053TIP3    H133574   4.427   6.658  11.050  1.1087 -0.1302  1.1150
 4053TIP3    H233575   4.575   6.648  11.023  0.7340  0.6010 -1.5128
 4054TIP3   OH233576   3.257   3.681  14.126 -0.4589  0.1682  0.2262
 4054TIP3    H133577   3.182   3.724  14.085 -0.2115  0.9080  0.5285
 4054TIP3    H233578   3.317   3.753  14.147  1.0029 -0.5196 -1.3391
 4055TIP3   OH233579   3.949   4.738   6.756  0.3074  0.0059  0.3023
 4055TIP3    H133580   4.004   4.739   6.678  0.9213 -0.6444  0.7147
 4055TIP3    H233581   3.865   4.772   6.727  1.0446  1.4148 -0.2403
 4056TIP3   OH233582   4.489   5.843   0.415  0.3620 -0.1359  0.0422
 4056TIP3    H133583   4.577   5.868   0.386  1.6775 -2.4621  1.7229
 4056TIP3    H233584   4.466   5.909   0.480 -0.1660  1.7664 -1.9613
 4057TIP3   OH233585   2.322   1.350   5.082  0.0894  0.0195  0.1820
 4057TIP3    H133586   2.388   1.356   5.152 -0.2675 -1.5704  0.6924
 4057TIP3    H233587   2.324   1.436   5.040  1.4597  0.4795  1.1153
 4058TIP3   OH233588   2.939   0.614  17.347 -0.2185  0.4445  0.0587
 4058TIP3    H133589   2.959   0.620  17.254  0.0533  0.1990  0.0969
 4058TIP3    H233590   2.984   0.690  17.386 -0.1517  0.4270  0.0159
 4059TIP3   OH233591   3.263   2.476   3.696 -0.1692  0.5099  0.0136
 4059TIP3    H133592   3.304   2.521   3.622 -0.7825 -0.6140 -1.0401
 4059TIP3    H233593   3.333   2.424   3.735 -0.3811 -0.9319 -1.4114
 4060TIP3   OH233594   4.046   4.600  15.040 -0.2766 -0.7814 -0.3798
 4060TIP3    H133595   4.110   4.667  15.016 -0.8230 -0.6701 -1.6306
 4060TIP3    H233596   4.054   4.591  15.135  2.0223 -1.2339 -0.5623
 4061TIP3   OH233597   0.134   1.154   2.495 -0.3544 -0.7184  0.0232
 4061TIP3    H133598   0.057   1.207   2.474  1.0137  0.4965 -2.3983
 4061TIP3    H233599   0.196   1.175   2.426  2.3516 -1.3095  2.1243
 4062TIP3   OH233600   2.069   5.876   2.125  0.1005 -0.2062 -0.5101
 4062TIP3    H133601   1.994   5.869   2.185 -0.2259 -0.0890 -0.8963
 4062TIP3    H233602   2.070   5.793   2.078 -0.1074 -0.0065 -0.8717
 4063TIP3   OH233603   0.279   6.566   6.912  0.0017 -0.3293  0.0647
 4063TIP3    H133604   0.239   6.516   6.983 -1.6981  0.0141 -0.6141
 4063TIP3    H233605   0.285   6.655   6.945  1.9706 -0.6884  0.8403
 4064TIP3   OH233606   1.667   1.473  16.637  0.4091 -0.5096  0.4232
 4064TIP3    H133607   1.709   1.396  16.598  0.5590  0.6308 -1.8149
 4064TIP3    H233608   1.611   1.507  16.568 -0.8233  0.5491  1.8831
 4065TIP3   OH233609   0.065   1.645  16.137  0.1980 -0.1934 -1.0051
 4065TIP3    H133610   0.051   1.551  16.121 -0.3067 -0.5985  1.4296
 4065TIP3    H233611   0.159   1.653  16.150 -0.0666 -1.0796  2.2417
 4066TIP3   OH233612   0.286   4.197   2.294 -0.1277 -0.1900  0.0714
 4066TIP3    H133613   0.318   4.158   2.375 -1.3210  4.1951  3.0178
 4066TIP3    H233614   0.364   4.230   2.250  0.3999 -0.9470  0.4255
 4067TIP3   OH233615   0.750   6.250   1.133 -0.1665  0.5630  0.1176
 4067TIP3    H133616   0.770   6.183   1.067 -1.0508 -0.0065  0.4093
 4067TIP3    H233617   0.835   6.284   1.160  0.2115  1.7885 -2.2968
 4068TIP3   OH233618   4.469   4.939  14.503  0.0456 -0.0517  0.3288
 4068TIP3    H133619   4.466   5.001  14.430 -1.9647  1.8005  1.8624
 4068TIP3    H233620   4.439   4.857  14.465  0.4464  0.4694 -1.2257
 4069TIP3   OH233621   4.945   6.196  12.699  0.0652 -0.0892  0.2146
 4069TIP3    H133622   4.858   6.216  12.665  0.2878 -2.1947 -1.8975
 4069TIP3    H233623   4.944   6.101  12.713  1.4646  0.0883  1.9996
 4070TIP3   OH233624   5.091   0.116  15.323  0.0053  0.9371 -0.5894
 4070TIP3    H133625   5.133   0.056  15.262 -0.5156  1.1338 -1.1472
 4070TIP3    H233626   5.085   0.067  15.405 -1.1414 -0.0758 -1.2536
 4071TIP3   OH233627   1.489   2.231   3.309 -0.0029 -0.3485 -0.1788
 4071TIP3    H133628   1.461   2.152   3.355  0.9539 -0.6447 -0.0738
 4071TIP3    H233629   1.414   2.255   3.254 -0.0813 -1.7245 -0.7210
 4072TIP3   OH233630   1.117   4.421  14.175  0.2084 -0.0604 -0.4697
 4072TIP3    H133631   1.027   4.454  14.180 -0.9408 -3.0711  2.8554
 4072TIP3    H233632   1.132   4.407  14.082 -3.2533 -0.5460 -1.0959
 4073TIP3   OH233633   5.101   2.152  12.511 -0.3193  0.3341  0.1162
 4073TIP3    H133634   5.006   2.162  12.507 -0.6293 -0.8977  2.5857
 4073TIP3    H233635   5.134   2.242  12.522 -1.0540  0.8746 -1.6270
 4074TIP3   OH233636   2.570   4.714   5.482 -0.0902  0.9997 -0.2521
 4074TIP3    H133637   2.500   4.668   5.529  0.4510 -2.0100 -2.1370
 4074TIP3    H233638   2.534   4.731   5.395  1.4363 -0.7143 -1.2988
 4075TIP3   OH233639   2.185   5.750   5.314  0.5061 -0.0317 -0.0939
 4075TIP3    H133640   2.198   5.688   5.243  1.6533  2.3585 -2.1328
 4075TIP3    H233641   2.092   5.772   5.309  0.7112  0.6340 -1.3737
 4076TIP3   OH233642   1.132   6.538  16.498  0.5596  0.1173 -0.4002
 4076TIP3    H133643   1.092   6.451  16.492 -0.6280  0.7286 -2.1433
 4076TIP3    H233644   1.091   6.578  16.574  1.3015 -0.9101  0.5690
 4077TIP3   OH233645   2.089   1.333   0.672 -0.3581 -0.0501  0.0322
 4077TIP3    H133646   2.144   1.289   0.607 -1.1773 -1.5100  0.3017
 4077TIP3    H233647   2.120   1.424   0.671  0.4051 -0.2891 -1.5770
 4078TIP3   OH233648   3.451   4.597  12.656 -0.3344  0.0517 -0.2424
 4078TIP3    H133649   3.487   4.683  12.679 -0.3186 -0.3069  1.1822
 4078TIP3    H233650   3.526   4.548  12.623 -0.5996  0.9833 -2.3687
 4079TIP3   OH233651   1.556   6.018   1.097  0.1021 -0.1535 -0.6990
 4079TIP3    H133652   1.587   5.964   1.024  2.1728 -1.1183  0.8045
 4079TIP3    H233653   1.485   5.967   1.136  2.1831 -2.0587  0.8520
 4080TIP3   OH233654   6.410   5.287  14.336  0.5441 -0.6556 -0.0249
 4080TIP3    H133655   6.464   5.350  14.385  0.3949 -0.7809  0.3031
 4080TIP3    H233656   6.349   5.252  14.401 -0.5619  0.1619 -0.5902
 4081TIP3   OH233657   3.284   0.892   1.614  0.0050  0.1779  0.4441
 4081TIP3    H133658   3.318   0.832   1.548  1.2072 -0.7488  1.8593
 4081TIP3    H233659   3.267   0.837   1.690  2.5072  1.7670  2.2976
 4082TIP3   OH233660   0.605   3.505   4.023  0.0718 -0.4350  0.4334
 4082TIP3    H133661   0.567   3.593   4.017  1.4280  0.1281 -0.2634
 4082TIP3    H233662   0.658   3.507   4.103 -0.6575 -0.9561  0.9504
 4083TIP3   OH233663   2.362   1.039  11.423 -0.0894  0.2834  0.3640
 4083TIP3    H133664   2.412   0.958  11.412 -0.7414 -0.4520  2.4798
 4083TIP3    H233665   2.276   1.018  11.387 -0.6675 -0.4494  2.0823
 4084TIP3   OH233666   2.808   5.905   4.665 -0.1349  0.5729 -0.0482
 4084TIP3    H133667   2.843   5.849   4.596  1.0421  2.5111 -1.1205
 4084TIP3    H233668   2.714   5.886   4.667  0.0737 -0.6486 -1.0886
 4085TIP3   OH233669   4.443   6.312  14.630 -0.2911  0.4068 -0.0019
 4085TIP3    H133670   4.405   6.308  14.542 -2.1860  0.2812  0.7805
 4085TIP3    H233671   4.524   6.261  14.623 -0.4791  0.2739 -1.6262
 4086TIP3   OH233672   3.001   3.956  12.876 -0.0706 -0.2758 -0.5558
 4086TIP3    H133673   3.023   4.015  12.803  1.0668  2.4113  1.7769
 4086TIP3    H233674   2.921   3.994  12.913 -0.7797 -1.7585 -0.5121
 4087TIP3   OH233675   6.623   3.884   6.099 -0.1074 -0.1600 -0.2381
 4087TIP3    H133676   6.528   3.873   6.094  0.0881 -1.5815 -1.4348
 4087TIP3    H233677   6.635   3.969   6.141 -1.9116  0.6269 -1.2087
 4088TIP3   OH233678   3.425   5.304   0.421 -0.8007 -0.0286 -0.0572
 4088TIP3    H133679   3.486   5.231   0.428  2.8059  2.7922  2.7614
 4088TIP3    H233680   3.368   5.296   0.498  0.5834  0.7382  1.1087
 4089TIP3   OH233681   3.731   5.843  10.405 -0.5508 -0.0829  0.2442
 4089TIP3    H133682   3.766   5.897  10.475 -0.9429  0.7791 -0.2005
 4089TIP3    H233683   3.806   5.793  10.373 -0.5098 -1.0453  1.7330
 4090TIP3   OH233684   1.771   0.701   0.084  0.1729  1.0579  0.1969
 4090TIP3    H133685   1.708   0.727   0.017  0.0837  1.7186  0.5303
 4090TIP3    H233686   1.740   0.744   0.164  2.1075  3.0312 -0.0144
 4091TIP3   OH233687   1.834   6.686   3.011  0.0495  0.5990 -0.3860
 4091TIP3    H133688   1.801   6.608   2.966  0.6542 -0.8283  1.5064
 4091TIP3    H233689   1.761   6.715   3.066  0.3890  0.2661  0.2562
 4092TIP3   OH233690   1.029   2.690   1.510  0.6412 -0.4742  0.2824
 4092TIP3    H133691   1.066   2.694   1.598  0.6578  1.2856  0.2300
 4092TIP3    H233692   1.047   2.600   1.480  0.5683 -1.1219  2.0770
 4093TIP3   OH233693   4.393   3.971   4.797 -0.0903  0.9233 -0.3155
 4093TIP3    H133694   4.375   4.043   4.736 -1.2191  1.1884  0.3204
 4093TIP3    H233695   4.308   3.933   4.815  0.2758  0.6417  0.8579
 4094TIP3   OH233696   5.836   4.601   5.314 -0.0474 -0.7012  0.0395
 4094TIP3    H133697   5.881   4.526   5.275 -0.4289 -1.0724  0.2997
 4094TIP3    H233698   5.841   4.586   5.408 -0.5311 -0.6456  0.0802
 4095TIP3   OH233699   6.404   2.775   6.022  0.0308  0.0779  0.4756
 4095TIP3    H133700   6.498   2.791   6.017  0.0204  0.2670  0.8718
 4095TIP3    H233701   6.385   2.774   6.116 -0.5357  1.0139  0.3775
 4096TIP3   OH233702   3.877   4.247   0.944 -0.5102 -0.2867 -0.1316
 4096TIP3    H133703   3.864   4.272   0.853 -0.7339 -2.4395 -0.7449
 4096TIP3    H233704   3.794   4.268   0.987 -0.4710  0.5458 -0.4425
 4097TIP3   OH233705   5.039   5.480  10.422 -0.3699  0.6306  0.1404
 4097TIP3    H133706   5.039   5.439  10.336 -1.0911  1.7453 -0.4048
 4097TIP3    H233707   5.035   5.574  10.405 -1.5251  0.8403  1.3945
 4098TIP3   OH233708   4.210   2.416   6.718 -0.3110  0.9011  0.0877
 4098TIP3    H133709   4.132   2.417   6.773 -0.5631  0.2661 -0.2359
 4098TIP3    H233710   4.283   2.424   6.779 -0.5627 -0.3148  0.5803
 4099TIP3   OH233711   1.655   0.080   2.087 -0.0878 -0.8597 -0.5680
 4099TIP3    H133712   1.578   0.062   2.141  0.8494 -1.1993  0.7032
 4099TIP3    H233713   1.690  -0.007   2.065  1.0755 -0.7022  0.5822
 4100TIP3   OH233714   2.529   1.433  16.086  0.1880 -0.0457 -0.2001
 4100TIP3    H133715   2.476   1.463  16.160 -1.1487  1.6611 -1.7568
 4100TIP3    H233716   2.611   1.482  16.093 -0.4287  1.0628 -0.5052
 4101TIP3   OH233717   6.521   2.941  16.596  0.2210  0.2906  0.8490
 4101TIP3    H133718   6.583   2.907  16.532 -0.6924  0.5609 -0.2096
 4101TIP3    H233719   6.493   2.863  16.645 -0.5129 -0.2456 -0.3758
 4102TIP3   OH233720   4.000   5.696   1.806 -0.0943 -0.3893 -0.1542
 4102TIP3    H133721   3.982   5.732   1.893 -1.1972 -1.6243  0.1595
 4102TIP3    H233722   4.016   5.773   1.751  0.2372  0.4277  1.0520
 4103TIP3   OH233723   0.330   5.574   2.033  0.0714 -0.3695 -0.4457
 4103TIP3    H133724   0.259   5.638   2.033 -0.0615 -0.2888  3.0711
 4103TIP3    H233725   0.360   5.571   1.943 -2.5187  1.6873 -1.5224
 4104TIP3   OH233726   5.782   0.442   2.318  0.2029  0.0302  0.2943
 4104TIP3    H133727   5.727   0.377   2.274  1.1040 -0.4148 -0.1858
 4104TIP3    H233728   5.777   0.519   2.261 -0.2193  0.1236  0.4501
 4105TIP3   OH233729   3.438   3.948  15.294 -0.1563  0.0428 -0.3751
 4105TIP3    H133730   3.402   4.034  15.318 -2.4522 -0.5985 -1.2112
 4105TIP3    H233731   3.398   3.887  15.356 -0.3632 -0.6891 -1.2076
 4106TIP3   OH233732   4.925   4.936   4.287  0.1154  0.1424 -0.4010
 4106TIP3    H133733   4.881   4.877   4.348 -3.0190  0.1314 -2.4112
 4106TIP3    H233734   4.937   5.017   4.336  0.2796 -0.7175  1.0214
 4107TIP3   OH233735   0.912   0.973  14.034  0.4314  0.0112  0.6075
 4107TIP3    H133736   0.925   0.993  13.941  1.2174  1.9964  1.0954
 4107TIP3    H233737   0.985   1.015  14.078  0.4367 -1.4720  2.1071
 4108TIP3   OH233738   2.238   4.770   4.564  0.4402 -0.0025 -0.4061
 4108TIP3    H133739   2.158   4.820   4.578  0.0677 -0.6037 -0.3452
 4108TIP3    H233740   2.307   4.822   4.605  0.1601  0.7410 -0.8514
 4109TIP3   OH233741   4.763   1.138   6.056 -0.5142 -0.3723  0.3363
 4109TIP3    H133742   4.851   1.135   6.020  0.1592  0.4199  1.8442
 4109TIP3    H233743   4.775   1.153   6.150 -2.2612  0.8314  0.4164
 4110TIP3   OH233744   1.785   1.015  14.868 -0.2994 -0.5370  0.4957
 4110TIP3    H133745   1.859   1.055  14.823 -0.7804 -0.3164 -0.1152
 4110TIP3    H233746   1.715   1.080  14.862 -0.7339 -0.9938  0.5144
 4111TIP3   OH233747   3.463   0.368   0.010  0.4365  0.0720 -0.2475
 4111TIP3    H133748   3.531   0.351   0.075  0.1095  3.6174  1.2505
 4111TIP3    H233749   3.382   0.334   0.049  0.5620  0.4256  0.3296
 4112TIP3   OH233750   4.360   4.922   2.953  0.2645 -0.8319 -0.3579
 4112TIP3    H133751   4.315   4.952   3.032  0.4817 -1.1549 -0.1070
 4112TIP3    H233752   4.310   4.845   2.924  0.9362 -1.4933  0.2071
 4113TIP3   OH233753   6.335   1.399   3.317  0.0407 -0.3359  0.2611
 4113TIP3    H133754   6.256   1.446   3.292 -0.8186 -1.3910  0.8779
 4113TIP3    H233755   6.331   1.394   3.413  0.9045 -0.3396  0.3102
 4114TIP3   OH233756   6.268   5.890   3.674 -0.3569 -0.0364 -0.1403
 4114TIP3    H133757   6.311   5.848   3.749 -2.6461 -2.4557 -0.0411
 4114TIP3    H233758   6.230   5.970   3.711  0.1644 -0.2214  0.8358
 4115TIP3   OH233759   0.865   3.069   2.211  0.2187 -0.0059 -0.1647
 4115TIP3    H133760   0.877   3.160   2.183 -0.4518  0.0037 -0.4273
 4115TIP3    H233761   0.855   3.074   2.306 -0.9647  0.3192 -0.2960
 4116TIP3   OH233762   3.756   4.934  17.226  0.1083 -0.1442  0.0972
 4116TIP3    H133763   3.775   4.897  17.140  0.6350 -0.5003  0.3628
 4116TIP3    H233764   3.722   5.022  17.207 -2.1175 -1.0746 -0.6039
 4117TIP3   OH233765   4.967   4.642   6.265 -0.3942  0.2384  0.2771
 4117TIP3    H133766   5.012   4.566   6.301  1.3336 -0.1040 -2.3717
 4117TIP3    H233767   4.961   4.703   6.339  3.0903 -0.3414  1.2443
 4118TIP3   OH233768   2.368   0.486  13.061  0.9044  0.2175  0.5331
 4118TIP3    H133769   2.350   0.399  13.098 -0.6665 -0.5500 -1.7867
 4118TIP3    H233770   2.363   0.545  13.136 -1.2370 -1.3004  1.7193
 4119TIP3   OH233771   0.688   1.223  13.678 -0.1587  0.5146  0.0034
 4119TIP3    H133772   0.626   1.156  13.648 -1.3300  0.5276  2.2070
 4119TIP3    H233773   0.676   1.296  13.617  0.2651 -0.7552 -1.7010
 4120TIP3   OH233774   5.457   2.578  13.612 -0.5903 -0.8207 -0.0203
 4120TIP3    H133775   5.544   2.549  13.637  0.0706  0.0161 -1.2407
 4120TIP3    H233776   5.445   2.662  13.657  0.4900  0.5499 -2.1047
 4121TIP3   OH233777   4.947   2.196   5.560  0.9945  0.8248  0.0244
 4121TIP3    H133778   4.903   2.257   5.501  2.0575  0.8430 -0.7820
 4121TIP3    H233779   4.975   2.250   5.634  1.2266  1.1699 -0.3095
 4122TIP3   OH233780   2.440   4.585  16.679 -0.6416 -0.5156  0.6808
 4122TIP3    H133781   2.432   4.495  16.709  0.9296 -0.4588  1.3250
 4122TIP3    H233782   2.518   4.619  16.721 -1.0384  1.0808  0.2321
 4123TIP3   OH233783   5.649   4.084  15.272 -0.5805 -0.5105  0.0725
 4123TIP3    H133784   5.575   4.024  15.284 -0.2456 -0.9199  0.1608
 4123TIP3    H233785   5.720   4.043  15.322 -0.6382  0.5162  1.0275
 4124TIP3   OH233786   0.744   5.448  15.119  0.0389  0.5834 -0.0352
 4124TIP3    H133787   0.728   5.424  15.028  0.6486 -0.2712  0.0758
 4124TIP3    H233788   0.759   5.543  15.116  2.4667  0.2523 -1.1939
 4125TIP3   OH233789   5.887   5.595   2.388 -0.9889 -0.2307  0.1985
 4125TIP3    H133790   5.805   5.645   2.386 -1.3517 -0.7657  0.9515
 4125TIP3    H233791   5.915   5.591   2.297 -1.6213  0.2588 -0.0285
 4126TIP3   OH233792   5.521   4.134  16.905 -0.0727 -0.0215 -0.2373
 4126TIP3    H133793   5.553   4.131  16.995  0.7364  0.2228 -0.5055
 4126TIP3    H233794   5.439   4.184  16.910 -0.9218 -1.4441  0.5943
 4127TIP3   OH233795   6.311   4.885   4.725  0.8643 -0.1391 -0.2307
 4127TIP3    H133796   6.223   4.866   4.691  0.5904  1.0206 -0.2117
 4127TIP3    H233797   6.308   4.978   4.747  1.9320 -0.2226  0.2991
 4128TIP3   OH233798   3.426   6.488  11.483 -0.5935 -0.2147 -0.2953
 4128TIP3    H133799   3.431   6.583  11.468  1.7269 -0.2608 -0.2671
 4128TIP3    H233800   3.410   6.479  11.577  2.1106  0.2564  0.3107
 4129TIP3   OH233801   1.060   1.943  15.457 -0.0082  0.0145  0.3271
 4129TIP3    H133802   1.052   1.975  15.547  0.3930  1.2171 -0.0448
 4129TIP3    H233803   1.008   2.004  15.405  1.1629  0.3608 -0.4707
 4130TIP3   OH233804   6.332   0.486   6.112 -0.5346 -0.4165  0.0486
 4130TIP3    H133805   6.288   0.494   6.028 -1.2012 -2.7740  0.0983
 4130TIP3    H233806   6.425   0.487   6.091 -0.5853  2.0401 -0.3329
 4131TIP3   OH233807   0.813   6.565   0.975 -0.3122 -0.6022 -0.4373
 4131TIP3    H133808   0.740   6.557   1.037  0.7654  0.2457  1.0039
 4131TIP3    H233809   0.830   6.475   0.948 -0.6649 -1.0336  0.6967
 4132TIP3   OH233810   6.576   4.844  14.376  0.2818  0.2242 -0.3819
 4132TIP3    H133811   6.601   4.932  14.346 -1.0319  0.4175 -1.0194
 4132TIP3    H233812   6.658   4.803  14.401  1.0147  1.3802 -0.7746
 4133TIP3   OH233813   5.171   5.069   3.591 -0.1419  0.1157 -0.0305
 4133TIP3    H133814   5.210   4.982   3.582 -0.2269  0.1119 -0.3843
 4133TIP3    H233815   5.164   5.082   3.685  1.5023  0.4722  0.0725
 4134TIP3   OH233816   5.190   5.626  16.260  0.1046 -0.1070  0.1705
 4134TIP3    H133817   5.100   5.595  16.271 -0.3989  1.7869  1.8685
 4134TIP3    H233818   5.203   5.628  16.165 -0.6429 -2.9786 -0.1145
 4135TIP3   OH233819   1.336   6.736  11.747 -0.0224 -0.0140  0.0154
 4135TIP3    H133820   1.324   6.645  11.718  1.0528 -0.1341 -0.0834
 4135TIP3    H233821   1.272   6.786  11.695 -0.8305 -0.7473  0.2922
 4136TIP3   OH233822   4.914   5.620   4.391 -0.3032 -0.1714 -0.8120
 4136TIP3    H133823   4.892   5.636   4.299 -0.5186  0.3558 -0.6676
 4136TIP3    H233824   4.853   5.552   4.419 -1.1313  0.6191 -0.6795
 4137TIP3   OH233825   1.273   3.379  11.611 -0.1729  0.4703  0.3692
 4137TIP3    H133826   1.312   3.458  11.649 -0.0513  0.5052  0.1722
 4137TIP3    H233827   1.320   3.306  11.652  1.9297  0.5260 -1.7495
 4138TIP3   OH233828   2.579   2.413  11.511 -0.4302  0.1680 -0.0062
 4138TIP3    H133829   2.558   2.349  11.443  0.2075 -0.3585  0.2850
 4138TIP3    H233830   2.527   2.490  11.488  0.6263  0.4071 -1.7127
 4139TIP3   OH233831   4.664   5.567  11.205 -0.1204 -0.7933 -0.5783
 4139TIP3    H133832   4.687   5.654  11.171 -1.2569 -0.8544 -1.5361
 4139TIP3    H233833   4.571   5.556  11.185  0.1177 -2.4456 -0.9605
 4140TIP3   OH233834   0.253   1.625  11.672 -0.4244 -0.3110 -0.2607
 4140TIP3    H133835   0.327   1.564  11.670  0.4674  0.7359 -1.6326
 4140TIP3    H233836   0.239   1.648  11.580 -1.1566  1.0261  0.1561
 4141TIP3   OH233837   4.232   0.306  12.735 -0.4217 -0.0715  0.0356
 4141TIP3    H133838   4.138   0.320  12.744 -0.7619 -2.6937  1.5832
 4141TIP3    H233839   4.240   0.244  12.662  0.3559  1.6920 -1.4699
 4142TIP3   OH233840   5.984   1.235  12.082  0.0568  0.7131 -0.3999
 4142TIP3    H133841   5.988   1.187  12.000 -0.5775  0.1377 -0.1079
 4142TIP3    H233842   6.031   1.317  12.065  1.2947 -0.0672 -0.8621
 4143TIP3   OH233843   0.285   2.466  13.071 -0.3848 -0.4080  0.1702
 4143TIP3    H133844   0.344   2.507  13.134  0.5395 -0.6342 -0.5296
 4143TIP3    H233845   0.243   2.540  13.027  0.4976 -0.1985 -0.3566
 4144TIP3   OH233846   6.075   6.105  14.114  0.1614  0.4182  0.1508
 4144TIP3    H133847   6.107   6.187  14.150  1.6384 -0.5071  1.0247
 4144TIP3    H233848   6.034   6.130  14.031  1.1933  1.9518  0.0640
 4145TIP3   OH233849   3.452   1.372  13.302 -0.1218 -0.1018  0.6663
 4145TIP3    H133850   3.454   1.305  13.370 -2.2830  0.2741  1.1965
 4145TIP3    H233851   3.543   1.386  13.278  0.5557 -1.4542  2.2995
 4146TIP3   OH233852   1.900   5.332  10.918 -0.0989  0.5111  0.6430
 4146TIP3    H133853   1.861   5.325  11.005 -1.6873  1.9388  0.1041
 4146TIP3    H233854   1.842   5.392  10.870  1.4349  0.7774 -1.0065
 4147TIP3   OH233855   1.131   4.440   5.108 -0.5913 -0.4047  0.4687
 4147TIP3    H133856   1.187   4.503   5.062 -1.1846  0.1414  0.4862
 4147TIP3    H233857   1.138   4.464   5.200  2.3620 -2.8532  1.0451
 4148TIP3   OH233858   2.790   1.092  17.287  0.1853 -0.0713  0.2704
 4148TIP3    H133859   2.793   0.997  17.293 -1.3313 -0.2612 -1.0661
 4148TIP3    H233860   2.761   1.121  17.373 -1.1306 -0.9846  0.1643
 4149TIP3   OH233861   6.471   1.251  12.199  0.5176  0.3323  0.0994
 4149TIP3    H133862   6.508   1.315  12.140  1.6182 -0.8974 -0.6018
 4149TIP3    H233863   6.428   1.187  12.142 -0.9920  0.6577  0.8004
 4150TIP3   OH233864   5.642   0.100   4.049  0.3083  0.1875  0.2987
 4150TIP3    H133865   5.591   0.129   4.125  0.3664  0.6812  0.1586
 4150TIP3    H233866   5.590   0.126   3.973  0.0635 -0.6622  0.1709
 4151TIP3   OH233867   6.140   5.424   5.934 -0.1408  0.7945 -0.1670
 4151TIP3    H133868   6.220   5.475   5.918  0.3504 -0.3989 -1.7555
 4151TIP3    H233869   6.078   5.487   5.970  1.0690  2.0572 -0.2080
 4152TIP3   OH233870   6.730   2.622  13.935  0.6463  0.1571 -0.4588
 4152TIP3    H133871   6.819   2.618  13.899  0.1972  0.3233 -1.6285
 4152TIP3    H233872   6.695   2.705  13.903 -0.6260 -0.8394 -1.7263
 4153TIP3   OH233873   0.770   4.243  11.560  0.9539  0.2689 -0.0364
 4153TIP3    H133874   0.735   4.154  11.571 -0.0241  0.5783 -0.5172
 4153TIP3    H233875   0.707   4.286  11.502  1.4198  1.2816  0.1950
 4154TIP3   OH233876   2.735   3.606  14.465  0.1071  0.1896  0.4960
 4154TIP3    H133877   2.827   3.632  14.458  0.5659 -1.6463 -1.0921
 4154TIP3    H233878   2.736   3.512  14.452 -2.1056  0.2373 -0.4062
 4155TIP3   OH233879   1.735   1.822   3.813 -0.2903  0.0213  0.3110
 4155TIP3    H133880   1.804   1.821   3.747 -1.6244 -0.0350 -1.1460
 4155TIP3    H233881   1.718   1.730   3.832 -0.5534  0.0041  0.0063
 4156TIP3   OH233882   0.533   2.142  12.998  0.0308  0.0291 -0.0631
 4156TIP3    H133883   0.552   2.061  12.951 -0.7661 -0.5120  0.5200
 4156TIP3    H233884   0.577   2.211  12.947  1.0697 -0.8108 -0.3286
 4157TIP3   OH233885   1.963   5.074  15.736  0.1041  0.2868 -0.1649
 4157TIP3    H133886   2.015   5.043  15.661  1.6253  0.6203  0.6946
 4157TIP3    H233887   1.896   5.007  15.747  0.3486 -0.1862 -1.3234
 4158TIP3   OH233888   5.146   5.272  14.962 -0.1989 -0.4526 -0.2942
 4158TIP3    H133889   5.115   5.310  14.880 -0.0537 -1.3703 -0.7963
 4158TIP3    H233890   5.174   5.346  15.015 -0.3534  0.1560 -1.0550
 4159TIP3   OH233891   4.036   6.327  16.311  0.3832  0.2682 -0.0585
 4159TIP3    H133892   3.997   6.329  16.224 -1.6185 -1.1409  0.7009
 4159TIP3    H233893   4.129   6.343  16.297  0.0556  0.4524 -2.3971
 4160TIP3   OH233894   2.587   5.804  15.769  0.3178  0.2301  0.2995
 4160TIP3    H133895   2.581   5.717  15.730  1.2010  0.8670 -1.3331
 4160TIP3    H233896   2.514   5.853  15.731  1.3955  0.9608 -0.9098
 4161TIP3   OH233897   6.033   5.433  10.892 -0.5489 -0.0128 -0.4890
 4161TIP3    H133898   5.998   5.348  10.864  0.6281 -0.8016  0.3500
 4161TIP3    H233899   5.998   5.495  10.829 -1.4106 -1.1211 -1.1453
 4162TIP3   OH233900   3.827   2.937   2.118  0.5972 -0.3562 -0.4907
 4162TIP3    H133901   3.786   3.020   2.095 -2.5265 -0.6676  3.0231
 4162TIP3    H233902   3.900   2.962   2.175 -0.1930  0.0728  0.3732
 4163TIP3   OH233903   5.524   1.583   5.238  0.0813  0.1478  0.4959
 4163TIP3    H133904   5.449   1.525   5.250  0.1481 -0.0094  0.1755
 4163TIP3    H233905   5.600   1.526   5.252  0.1635  0.6873  2.6300
 4164TIP3   OH233906   4.006   6.370  15.784  0.2102 -0.6520 -0.4533
 4164TIP3    H133907   3.970   6.425  15.714  0.3402 -0.5419 -0.4335
 4164TIP3    H233908   3.984   6.280  15.757 -1.6814 -0.5129  0.4413
 4165TIP3   OH233909   5.856   1.834  11.658 -0.1689 -0.2321 -0.2937
 4165TIP3    H133910   5.897   1.758  11.699 -1.5101 -1.0204 -0.3673
 4165TIP3    H233911   5.797   1.798  11.593 -2.6946  0.6836  1.3331
 4166TIP3   OH233912   3.496   1.777  14.265  0.0333 -0.0507 -0.3158
 4166TIP3    H133913   3.449   1.731  14.334  0.2497 -0.3390 -0.3572
 4166TIP3    H233914   3.578   1.804  14.306 -0.6440  1.4954  0.1081
 4167TIP3   OH233915   0.832   3.599   4.520 -0.1713  0.2234 -0.3139
 4167TIP3    H133916   0.880   3.524   4.485 -2.3112 -0.4397 -1.9706
 4167TIP3    H233917   0.864   3.673   4.468 -0.9069 -0.2165 -1.4305
 4168TIP3   OH233918   4.268   6.460  16.267 -0.3665  0.2278 -0.3956
 4168TIP3    H133919   4.360   6.475  16.289 -0.5237 -0.7969  1.1138
 4168TIP3    H233920   4.257   6.501  16.181  1.2847  1.0827 -0.2471
 4169TIP3   OH233921   0.211   2.534   0.179 -0.1945 -0.8158  0.2622
 4169TIP3    H133922   0.295   2.559   0.141  0.1623 -0.6381  1.1424
 4169TIP3    H233923   0.190   2.605   0.240 -0.7529 -1.0822  0.3851
 4170TIP3   OH233924   1.144   3.810   2.644 -0.0907 -0.1811  0.2831
 4170TIP3    H133925   1.169   3.784   2.555 -0.3867 -0.7808  0.3660
 4170TIP3    H233926   1.226   3.811   2.693 -0.1746 -2.1673  0.5575
 4171TIP3   OH233927   6.165   5.912   0.832  0.2044  0.1925 -0.4027
 4171TIP3    H133928   6.157   5.828   0.788  0.6804 -1.1347  1.8656
 4171TIP3    H233929   6.215   5.967   0.772  1.9449 -1.9132 -0.9750
 4172TIP3   OH233930   6.177   1.738  14.261  0.0037  0.1982 -0.4220
 4172TIP3    H133931   6.160   1.674  14.192 -1.5484  1.4380 -1.2812
 4172TIP3    H233932   6.104   1.799  14.254  0.0439  0.6315  2.0444
 4173TIP3   OH233933   1.218   1.732   1.092  0.2468  0.3289 -0.0631
 4173TIP3    H133934   1.200   1.683   1.172  1.7113 -0.5917 -0.2556
 4173TIP3    H233935   1.132   1.747   1.052 -0.2877 -1.8811  0.1372
 4174TIP3   OH233936   3.153   4.268   0.475  0.0605  0.1255  0.1552
 4174TIP3    H133937   3.086   4.332   0.500 -0.5470  0.4889 -2.1600
 4174TIP3    H233938   3.235   4.307   0.505 -0.4514  1.2888  0.1062
 4175TIP3   OH233939   1.762   4.725   2.601  0.3125  0.4839  0.4095
 4175TIP3    H133940   1.768   4.639   2.642 -0.3467  0.0702 -0.3201
 4175TIP3    H233941   1.669   4.746   2.602 -0.1305 -0.6711 -3.0118
 4176TIP3   OH233942   3.511   0.592   2.614 -0.2630 -0.6029 -0.1741
 4176TIP3    H133943   3.569   0.648   2.562  0.0947 -0.1048  0.7367
 4176TIP3    H233944   3.498   0.514   2.560 -0.8047  0.3749 -1.4891
 4177TIP3   OH233945   6.570   3.954  13.319  0.4030  0.3099 -0.2062
 4177TIP3    H133946   6.533   4.039  13.297 -1.2956 -0.7281 -1.5672
 4177TIP3    H233947   6.664   3.964  13.306  0.2229  1.9506 -0.3619
 4178TIP3   OH233948   5.094   5.462   6.094 -0.0099 -0.5468 -0.2823
 4178TIP3    H133949   5.029   5.527   6.124  1.4676  0.6324  0.4979
 4178TIP3    H233950   5.117   5.491   6.006  3.0125  2.1032  1.1495
 4179TIP3   OH233951   1.677   5.285   3.428  0.0440 -0.3543  0.2067
 4179TIP3    H133952   1.747   5.350   3.420  0.9270 -1.1237  1.3781
 4179TIP3    H233953   1.641   5.299   3.516 -0.0495 -1.1522  0.3004
 4180TIP3   OH233954   1.700   1.566   3.022 -0.8220 -0.0015  0.4993
 4180TIP3    H133955   1.622   1.534   2.976 -0.8059  0.1575  0.3582
 4180TIP3    H233956   1.773   1.517   2.985 -0.7803  0.3024  0.1819
 4181TIP3   OH233957   0.620   4.315  12.589 -0.1519 -0.6189  0.1323
 4181TIP3    H133958   0.668   4.361  12.658  0.1025 -1.6865  0.6844
 4181TIP3    H233959   0.642   4.223  12.601 -3.2378 -1.3461  1.1570
 4182TIP3   OH233960   1.552   1.593  10.976  0.1454  0.2843 -0.5906
 4182TIP3    H133961   1.467   1.559  10.947 -0.0003 -1.2749  1.4827
 4182TIP3    H233962   1.548   1.590  11.071  1.3661  3.2822 -0.3506
 4183TIP3   OH233963   5.887   0.472   2.564  0.1780 -0.2959  0.1839
 4183TIP3    H133964   5.834   0.418   2.622  0.4107 -1.2961 -0.5038
 4183TIP3    H233965   5.834   0.479   2.484 -0.6108  1.9385  0.8449
 4184TIP3   OH233966   2.286   4.715   2.765 -0.1783  0.0823  0.0917
 4184TIP3    H133967   2.228   4.751   2.698 -0.2787  1.3547  0.8366
 4184TIP3    H233968   2.357   4.779   2.773  2.2113 -2.0991 -1.8352
 4185TIP3   OH233969   2.008   0.297  14.994  0.3735  0.5191 -0.3653
 4185TIP3    H133970   2.019   0.222  14.935  0.6895 -0.4358  0.8545
 4185TIP3    H233971   1.948   0.265  15.061 -0.5813  1.8385 -0.5626
 4186TIP3   OH233972   2.921   3.907  16.017 -0.1526  0.3049 -0.1942
 4186TIP3    H133973   2.888   3.991  16.047  1.5293  1.0229 -0.2273
 4186TIP3    H233974   2.998   3.891  16.072  1.4926  0.4162 -2.3563
 4187TIP3   OH233975   0.247   4.649   0.871  0.3279  0.5543  0.1592
 4187TIP3    H133976   0.237   4.638   0.965  1.7356 -1.1139  0.1666
 4187TIP3    H233977   0.177   4.709   0.846  0.7770  2.1681  2.4674
 4188TIP3   OH233978   5.532   5.833  14.733 -0.7220 -0.0549 -0.1589
 4188TIP3    H133979   5.518   5.861  14.823 -0.7224 -1.4884  0.3115
 4188TIP3    H233980   5.575   5.908  14.691 -0.9638  0.7316  0.9506
 4189TIP3   OH233981   3.527   0.657  14.524  0.1904 -0.1757 -0.0402
 4189TIP3    H133982   3.537   0.572  14.483  1.6149  0.0185 -0.1462
 4189TIP3    H233983   3.509   0.717  14.452 -1.1756 -0.4054  0.0699
 4190TIP3   OH233984   3.357   5.606  12.735  0.0171  0.3209 -0.0515
 4190TIP3    H133985   3.303   5.681  12.711  1.3169  0.4707 -2.8486
 4190TIP3    H233986   3.295   5.533  12.742 -1.0477  1.3032  1.1331
 4191TIP3   OH233987   0.940   4.922   6.049 -0.0030 -0.2289 -0.2050
 4191TIP3    H133988   0.903   4.849   6.098 -0.6009  1.6939  2.4257
 4191TIP3    H233989   0.950   4.992   6.114  4.3544  0.8053 -1.6192
 4192TIP3   OH233990   1.526   0.552  12.116  0.4842  0.5617  0.0508
 4192TIP3    H133991   1.577   0.511  12.186  0.6825 -0.5045 -0.6975
 4192TIP3    H233992   1.475   0.620  12.160  0.3775 -0.2904  1.2885
 4193TIP3   OH233993   1.585   3.018   2.051 -0.2670  0.0057 -0.2329
 4193TIP3    H133994   1.660   3.065   2.014 -0.5523  0.5139 -0.1756
 4193TIP3    H233995   1.512   3.078   2.041 -0.9899 -1.0336 -1.6123
 4194TIP3   OH233996   0.119   4.469  10.456 -0.2577 -0.3513 -0.7636
 4194TIP3    H133997   0.054   4.495  10.390 -0.7232 -0.1057 -0.2130
 4194TIP3    H233998   0.100   4.378  10.475 -2.0091  0.3487  1.1491
 4195TIP3   OH233999   6.414   5.560   5.849  0.5701 -0.8068  0.0113
 4195TIP3    H134000   6.422   5.649   5.885  2.4971 -0.9659  0.1071
 4195TIP3    H234001   6.413   5.573   5.754 -0.5981 -0.6192  0.0351
 4196TIP3   OH234002   6.713   5.606  13.025  0.2305 -0.2251  0.1861
 4196TIP3    H134003   6.798   5.566  13.044 -0.2468 -1.6299 -0.4953
 4196TIP3    H234004   6.726   5.657  12.945  0.8855  1.1730  1.1512
 4197TIP3   OH234005   3.446   2.174   3.556 -0.3188  0.6825 -0.3502
 4197TIP3    H134006   3.521   2.129   3.596 -0.4179 -0.0794 -1.0005
 4197TIP3    H234007   3.486   2.236   3.495 -0.2194 -0.0177 -1.0044
 4198TIP3   OH234008   1.270   1.268   3.849 -0.4891 -0.2957  0.4442
 4198TIP3    H134009   1.207   1.337   3.867 -0.1822  0.0651  0.1310
 4198TIP3    H234010   1.351   1.297   3.892 -0.6295 -0.9253  1.1526
 4199TIP3   OH234011   0.748   3.635  12.466 -0.2679 -0.6332 -0.3090
 4199TIP3    H134012   0.816   3.636  12.533 -0.8194  1.2186  0.2966
 4199TIP3    H234013   0.707   3.721  12.473 -2.9225 -1.7802 -0.3719
 4200TIP3   OH234014   2.397   0.525   3.798  0.0352  0.3148  0.1959
 4200TIP3    H134015   2.359   0.528   3.710  0.7480  0.2122 -0.1225
 4200TIP3    H234016   2.330   0.564   3.854 -0.6367 -0.0833 -0.3141
 4201TIP3   OH234017   6.526   3.715   0.761 -0.1980  0.5237  0.0182
 4201TIP3    H134018   6.552   3.744   0.674  2.0591  0.8855  0.7283
 4201TIP3    H234019   6.507   3.795   0.809 -1.6044  0.3164 -0.1515
 4202TIP3   OH234020   2.868   2.001  13.432 -0.6552 -0.2927 -0.1337
 4202TIP3    H134021   2.803   1.993  13.362  0.1704 -0.6213 -0.8754
 4202TIP3    H234022   2.819   2.039  13.506 -0.7870  3.7363 -2.0139
 4203TIP3   OH234023   5.258   2.215   0.216  0.4804  0.3575 -0.1311
 4203TIP3    H134024   5.244   2.142   0.155  1.6566  1.6586 -2.0870
 4203TIP3    H234025   5.177   2.220   0.267 -0.2812 -1.2449 -1.0948
 4204TIP3   OH234026   5.366   3.286  11.827 -0.1190  0.0899  0.1599
 4204TIP3    H134027   5.366   3.361  11.886  0.4807 -0.8109  1.3649
 4204TIP3    H234028   5.451   3.289  11.783  0.4840 -0.6249  1.2355
 4205TIP3   OH234029   4.723   5.116   1.723  0.3502 -0.2337  0.4162
 4205TIP3    H134030   4.680   5.185   1.673 -1.4248 -1.3956  0.2585
 4205TIP3    H234031   4.800   5.158   1.761 -1.8747  2.5415  2.2630
 4206TIP3   OH234032   2.970   6.017   4.220  0.1716 -0.0342  0.1041
 4206TIP3    H134033   2.979   6.083   4.289 -0.0516 -0.0047  0.1048
 4206TIP3    H234034   2.877   5.995   4.220  0.3337 -0.7765  0.5045
 4207TIP3   OH234035   0.544   6.662  15.565  0.0183 -0.0075 -0.1561
 4207TIP3    H134036   0.454   6.668  15.534  0.2865  0.2051 -0.9241
 4207TIP3    H234037   0.539   6.684  15.658 -0.6513  0.5060 -0.3047
 4208TIP3   OH234038   3.004   0.542  16.385 -0.4261  0.7587  0.6235
 4208TIP3    H134039   3.020   0.634  16.402  0.4701  0.0978  3.9983
 4208TIP3    H234040   2.920   0.523  16.429 -0.4197 -0.1199  0.2930
 4209TIP3   OH234041   5.844   6.364  10.481 -0.2578  0.0241  0.4876
 4209TIP3    H134042   5.894   6.402  10.553  0.4285  1.0748 -0.5113
 4209TIP3    H234043   5.859   6.270  10.489 -0.4060  0.0910  1.8544
 4210TIP3   OH234044   1.080   4.236  15.750 -0.7360 -0.6434  0.0157
 4210TIP3    H134045   1.044   4.148  15.732  0.1906 -0.9842 -0.2344
 4210TIP3    H234046   1.174   4.222  15.757 -0.6775  0.1773  1.0373
 4211TIP3   OH234047   4.308   1.457   1.170 -0.0559 -0.8157  0.3705
 4211TIP3    H134048   4.223   1.495   1.148  0.5282  0.7502  0.6827
 4211TIP3    H234049   4.341   1.423   1.087 -1.2809 -2.1044  0.3789
 4212TIP3   OH234050   1.954   3.257  16.584 -0.5090 -0.5444  0.3353
 4212TIP3    H134051   2.019   3.242  16.515  0.2368  0.9353  0.6836
 4212TIP3    H234052   1.998   3.232  16.665 -0.1126  0.9908  0.6385
 4213TIP3   OH234053   4.797   5.076   5.333  0.6833 -0.0548 -0.0178
 4213TIP3    H134054   4.766   5.004   5.388  0.6306 -0.2371 -0.2851
 4213TIP3    H234055   4.846   5.132   5.393 -3.1009  2.2054  1.2955
 4214TIP3   OH234056   3.799   5.275   4.945 -0.4314  0.4313  0.4012
 4214TIP3    H134057   3.790   5.356   4.896  0.1174 -0.6296 -1.5525
 4214TIP3    H234058   3.712   5.235   4.943 -0.1094 -0.2658 -0.9856
 4215TIP3   OH234059   5.447   5.456   5.034  0.0472 -0.0054 -0.1228
 4215TIP3    H134060   5.379   5.505   4.990  2.9500  3.2790 -1.4188
 4215TIP3    H234061   5.479   5.395   4.968  1.0049  1.3511 -0.9648
 4216TIP3   OH234062   6.446   1.952   0.757 -0.0299 -0.0782 -0.5271
 4216TIP3    H134063   6.361   1.932   0.716 -0.2419  1.5514 -0.9586
 4216TIP3    H234064   6.471   2.037   0.720 -0.0327  1.3026  2.3855
 4217TIP3   OH234065   5.036   3.086  14.966  0.6017  0.0767 -0.5056
 4217TIP3    H134066   5.075   3.059  15.049  0.6112 -0.3328 -0.6404
 4217TIP3    H234067   5.021   3.180  14.976  0.6999  0.0501 -0.0810
 4218TIP3   OH234068   0.010   0.851   6.067 -0.3156  0.0439  0.0843
 4218TIP3    H134069   0.062   0.828   6.144 -0.6946 -1.5797 -0.1007
 4218TIP3    H234070  -0.067   0.895   6.103 -0.6004 -0.9056  0.6850
 4219TIP3   OH234071   3.143   6.590  16.594 -0.1699  0.0835  0.9579
 4219TIP3    H134072   3.139   6.684  16.611 -1.7076  0.1272  0.5170
 4219TIP3    H234073   3.234   6.567  16.608 -0.0256  1.3827  2.4213
 4220TIP3   OH234074   4.653   5.047  13.256  0.2030  0.0463 -0.5634
 4220TIP3    H134075   4.570   5.095  13.251 -0.8462 -1.8355 -3.4271
 4220TIP3    H234076   4.717   5.105  13.215 -0.1256  0.6035 -0.3148
 4221TIP3   OH234077   2.314   0.977  15.090 -0.4709  0.4118 -0.5788
 4221TIP3    H134078   2.257   0.985  15.166  0.4379  0.1871  0.1460
 4221TIP3    H234079   2.260   0.933  15.024 -0.8993 -0.5232  0.3541
 4222TIP3   OH234080   2.696   4.833  13.512  0.1641 -0.0730  0.3657
 4222TIP3    H134081   2.612   4.842  13.557  0.4397  1.0432  0.6774
 4222TIP3    H234082   2.738   4.759  13.556 -0.6666 -0.6878  0.1594
 4223TIP3   OH234083   4.512   3.548  11.894 -0.1747  0.2513 -0.1895
 4223TIP3    H134084   4.439   3.525  11.952  0.2531 -2.4407 -0.5883
 4223TIP3    H234085   4.574   3.595  11.951  0.0217 -1.8966  1.5202
 4224TIP3   OH234086   2.899   5.046   5.340  0.0041 -0.4319  0.2183
 4224TIP3    H134087   2.968   4.981   5.353 -0.8870 -1.5947 -0.7886
 4224TIP3    H234088   2.832   5.023   5.404 -0.4372 -0.6659 -0.3321
 4225TIP3   OH234089   5.496   3.830   5.263  0.1253 -0.9040 -0.1424
 4225TIP3    H134090   5.552   3.856   5.189 -1.0515 -0.1561 -0.8030
 4225TIP3    H234091   5.549   3.849   5.341  0.6023  0.3390 -0.7370
 4226TIP3   OH234092   6.738   6.654  16.471 -0.1440 -0.0149 -0.1411
 4226TIP3    H134093   6.769   6.743  16.456  0.5414 -0.6988 -3.7132
 4226TIP3    H234094   6.646   6.664  16.495 -0.0395  1.6234 -0.3301
 4227TIP3   OH234095   0.337   0.847  17.235 -0.4582 -0.0669  0.3170
 4227TIP3    H134096   0.316   0.760  17.268  0.2683 -0.7725 -1.0058
 4227TIP3    H234097   0.275   0.905  17.280  0.3271 -0.9612  2.7320
 4228TIP3   OH234098   0.003   2.189  14.841  0.4919  0.0626  0.1128
 4228TIP3    H134099  -0.030   2.247  14.773 -0.6991  0.5094  1.0277
 4228TIP3    H234100  -0.005   2.101  14.804 -0.4324  0.2769 -0.2239
 4229TIP3   OH234101   3.740   1.376  11.375 -0.2095  0.6983 -0.1515
 4229TIP3    H134102   3.775   1.465  11.369  1.4715  0.0839 -0.0364
 4229TIP3    H234103   3.772   1.332  11.296 -0.5053  0.0267  0.0915
 4230TIP3   OH234104   0.648   5.422   2.417  0.5469  0.1976 -0.3707
 4230TIP3    H134105   0.630   5.452   2.327  0.5725 -2.5033 -1.3877
 4230TIP3    H234106   0.723   5.364   2.408 -0.6612 -1.7196  1.0037
 4231TIP3   OH234107   4.440   4.898   4.533 -0.5922  0.3227  0.2997
 4231TIP3    H134108   4.417   4.819   4.484  0.6384 -0.8697  1.5377
 4231TIP3    H234109   4.356   4.936   4.560 -1.2706  0.5904 -1.9983
 4232TIP3   OH234110   1.527   2.163  17.150 -0.7252  0.4458 -0.2690
 4232TIP3    H134111   1.482   2.100  17.206 -2.3985  0.3033 -1.6993
 4232TIP3    H234112   1.502   2.249  17.184 -0.8909  0.3618 -0.1822
 4233TIP3   OH234113   1.583   4.876   2.035 -0.1211 -0.1338 -0.1219
 4233TIP3    H134114   1.591   4.813   2.107  0.0069  0.1819  0.1427
 4233TIP3    H234115   1.663   4.863   1.983 -0.6756 -1.0493 -0.7717
 4234TIP3   OH234116   0.119   5.496  14.324 -0.1068  0.3067 -1.0136
 4234TIP3    H134117   0.085   5.581  14.295 -0.4499  0.2808 -0.6871
 4234TIP3    H234118   0.127   5.504  14.419 -0.6893 -0.2188 -0.9132
 4235TIP3   OH234119   4.701   1.737  16.604 -0.7317  0.5332 -0.3760
 4235TIP3    H134120   4.696   1.746  16.699  0.4402  0.6489 -0.3136
 4235TIP3    H234121   4.779   1.683  16.589 -0.9119  0.5086 -1.2679
 4236TIP3   OH234122   0.035   2.835   2.243 -0.0424  0.3335 -0.5006
 4236TIP3    H134123   0.083   2.877   2.172  0.5405 -0.3429 -0.5193
 4236TIP3    H234124   0.035   2.742   2.220  1.6478 -0.1519  1.1973
 4237TIP3   OH234125   5.756   1.426  14.759 -0.5050  0.1799  0.8446
 4237TIP3    H134126   5.813   1.503  14.752  1.7321 -1.1021  3.4027
 4237TIP3    H234127   5.796   1.361  14.700 -0.3331 -0.1574  1.3302
 4238TIP3   OH234128   3.976   0.827  16.965  0.1119 -0.9685 -0.4968
 4238TIP3    H134129   4.013   0.873  17.040 -3.1160  2.0183 -0.4420
 4238TIP3    H234130   4.038   0.841  16.894  1.8153 -1.3240  0.8684
 4239TIP3   OH234131   0.175   0.684  13.567  0.1151  0.4232  0.0759
 4239TIP3    H134132   0.174   0.754  13.632 -0.9227  0.3401  0.1775
 4239TIP3    H234133   0.095   0.698  13.516 -0.6578 -1.2330  0.7375
 4240TIP3   OH234134   4.628   5.703  15.742 -0.4414  0.1082  0.5493
 4240TIP3    H134135   4.651   5.619  15.702 -0.3913 -0.4561  1.7110
 4240TIP3    H234136   4.533   5.709  15.734 -0.7792 -1.2566  2.5989
 4241TIP3   OH234137   5.997   2.720   2.210  0.0472  0.2542 -0.3522
 4241TIP3    H134138   5.903   2.712   2.193 -0.1957  1.5392  0.2663
 4241TIP3    H234139   6.031   2.770   2.137 -0.3292  2.4623  0.8947
 4242TIP3   OH234140   6.418   1.399  17.030 -0.4937 -0.6664  0.0025
 4242TIP3    H134141   6.409   1.476  17.085  0.3578 -1.1931  0.9198
 4242TIP3    H234142   6.507   1.404  16.996 -0.8057 -0.6726 -0.8402
 4243TIP3   OH234143   3.705   4.536   5.658  0.5493 -0.7479 -0.0210
 4243TIP3    H134144   3.701   4.455   5.709  1.2554 -0.2761  0.8169
 4243TIP3    H234145   3.721   4.507   5.569 -1.4677 -1.6294 -0.1441
 4244TIP3   OH234146   2.582   0.530  15.235  0.3320 -0.0393  0.4246
 4244TIP3    H134147   2.494   0.525  15.273  1.0169 -0.8507  2.0279
 4244TIP3    H234148   2.641   0.516  15.310  1.8740  1.8535 -0.3593
 4245TIP3   OH234149   2.517   1.669  16.720  0.4299 -0.0133 -0.1685
 4245TIP3    H134150   2.547   1.612  16.791  1.1741 -1.0437 -1.2629
 4245TIP3    H234151   2.471   1.611  16.660 -1.8221  1.1571  0.3185
 4246TIP3   OH234152   4.745   6.639  15.007  0.4262  0.3690  0.4101
 4246TIP3    H134153   4.752   6.584  15.085 -1.0070 -0.2342  0.1436
 4246TIP3    H234154   4.816   6.702  15.016  0.1948  0.4171  2.2850
 4247TIP3   OH234155   4.543   5.327   3.316  0.2433 -0.6222  0.2432
 4247TIP3    H134156   4.626   5.342   3.362  0.5361  0.8175 -0.7017
 4247TIP3    H234157   4.566   5.269   3.243  0.7207  0.8451 -0.8128
 4248TIP3   OH234158   6.167   1.277  14.720  0.2737 -0.4828 -0.3273
 4248TIP3    H134159   6.175   1.372  14.731  2.5224 -0.3864 -2.0778
 4248TIP3    H234160   6.153   1.244  14.809  2.0035  1.2958  0.6984
 4249TIP3   OH234161   0.429   0.952   1.795  0.5470  0.1401  0.1090
 4249TIP3    H134162   0.456   0.921   1.709 -3.0264  0.1441 -1.1766
 4249TIP3    H234163   0.429   1.047   1.787 -1.4937  0.1235 -0.5729
 4250TIP3   OH234164   0.896   6.564   6.285 -0.0019  1.1026  0.1668
 4250TIP3    H134165   0.818   6.516   6.310  1.5373 -2.3478 -1.0015
 4250TIP3    H234166   0.934   6.594   6.368 -0.5149 -0.7330  1.1168
 4251TIP3   OH234167   3.078   0.720  14.335 -0.2069  0.1559  0.9053
 4251TIP3    H134168   3.070   0.805  14.379  1.3559  0.0598  1.4455
 4251TIP3    H234169   3.120   0.664  14.399 -0.9205 -0.9506  0.4313
 4252TIP3   OH234170   5.204   2.026   3.886  0.6244  0.1040 -0.1995
 4252TIP3    H134171   5.270   1.973   3.841 -0.0263  0.9832 -2.3552
 4252TIP3    H234172   5.241   2.042   3.973  2.2497 -1.2037 -0.5898
 4253TIP3   OH234173   5.949   3.753  16.857 -0.5033 -0.4129 -0.2799
 4253TIP3    H134174   5.866   3.739  16.903 -0.1431 -3.2408 -0.2949
 4253TIP3    H234175   6.009   3.781  16.926 -1.3050  1.2170 -0.1862
 4254TIP3   OH234176   6.357   1.734  16.842  0.1644 -0.1632 -0.0982
 4254TIP3    H134177   6.337   1.648  16.880 -1.8541 -0.0364 -0.7556
 4254TIP3    H234178   6.434   1.764  16.891 -0.9982 -0.9418  2.3853
 4255TIP3   OH234179   3.230   2.041   5.116 -0.3374 -0.3877  0.2148
 4255TIP3    H134180   3.229   2.097   5.194  0.0387 -1.4951  1.0377
 4255TIP3    H234181   3.287   1.968   5.139 -2.3654 -2.1697 -0.0674
 4256TIP3   OH234182   0.391   1.518  15.479  0.5168  0.5633 -0.0955
 4256TIP3    H134183   0.369   1.611  15.481 -1.3375  0.1755 -0.4436
 4256TIP3    H234184   0.462   1.512  15.416 -0.5993  1.5373 -1.5169
 4257TIP3   OH234185   1.556   5.460   5.953 -0.2598 -0.3257 -0.2046
 4257TIP3    H134186   1.553   5.517   5.877 -0.5363 -1.7954 -1.3284
 4257TIP3    H234187   1.465   5.433   5.967 -0.1497 -0.4064  0.3965
 4258TIP3   OH234188   6.521   2.995  12.956 -0.4527 -0.0068 -0.1946
 4258TIP3    H134189   6.501   3.083  12.987  0.9186 -0.1351  1.1551
 4258TIP3    H234190   6.593   2.965  13.011 -0.3736 -1.6929 -1.1271
 4259TIP3   OH234191   6.552   2.423  11.692 -0.3872 -0.2778  0.0264
 4259TIP3    H134192   6.562   2.493  11.627 -1.1122 -1.6519 -1.6320
 4259TIP3    H234193   6.586   2.461  11.773 -2.1756  2.5547 -0.4120
 4260TIP3   OH234194   4.123   3.722   5.196 -0.2592 -0.0982 -0.4715
 4260TIP3    H134195   4.176   3.752   5.269 -2.3904 -0.0786  1.1696
 4260TIP3    H234196   4.160   3.637   5.172 -0.3367 -0.7706  1.5999
 4261TIP3   OH234197   5.756   5.057   5.048  0.0695 -0.1477 -0.5447
 4261TIP3    H134198   5.768   5.147   5.019  0.1652  0.0690  0.1360
 4261TIP3    H234199   5.673   5.030   5.009  1.2565 -0.6635 -2.8736
 4262TIP3   OH234200   3.211   0.472  16.785 -0.1312 -0.1982  0.4592
 4262TIP3    H134201   3.238   0.448  16.874  2.3229  0.5516 -0.0181
 4262TIP3    H234202   3.282   0.526  16.752 -1.7378  0.8909 -1.4221
 4263TIP3   OH234203   0.447   4.214  13.461  0.2895 -0.2179 -0.2157
 4263TIP3    H134204   0.536   4.179  13.459  0.3982  0.0318 -2.0542
 4263TIP3    H234205   0.391   4.138  13.444  0.2723 -0.1449 -0.5044
 4264TIP3   OH234206   2.126   5.602  14.880 -0.1468  0.1656  0.0314
 4264TIP3    H134207   2.049   5.614  14.825 -1.0095  0.2470  1.2189
 4264TIP3    H234208   2.171   5.687  14.877 -0.2503  0.2060 -0.4415
 4265TIP3   OH234209   5.833   2.781  13.486  0.2005  0.1281  0.0998
 4265TIP3    H134210   5.822   2.686  13.491  0.5356  0.0439 -0.6535
 4265TIP3    H234211   5.807   2.803  13.397  1.4353  0.5657 -0.1631
 4266TIP3   OH234212   2.048   1.348  11.456 -0.2301  0.2494 -0.2579
 4266TIP3    H134213   2.006   1.393  11.529 -1.2929 -0.6546 -0.2868
 4266TIP3    H234214   2.107   1.286  11.497 -0.8557 -0.2850 -0.1498
 4267TIP3   OH234215   4.390   1.061  14.167  0.0490 -0.1827 -0.0190
 4267TIP3    H134216   4.308   1.014  14.152 -0.1680  0.5114 -1.1048
 4267TIP3    H234217   4.377   1.105  14.251 -0.8458  0.2141 -0.3545
 4268TIP3   OH234218   5.314   0.024  16.370 -0.3417  0.6903  0.0740
 4268TIP3    H134219   5.256   0.089  16.410 -0.0354  0.3990  0.9935
 4268TIP3    H234220   5.257  -0.049  16.349 -0.4513  0.7344  0.2196
 4269TIP3   OH234221   3.959   4.231  11.474  0.6282 -0.1670  0.1180
 4269TIP3    H134222   4.045   4.219  11.433  0.3790 -0.2441 -0.3956
 4269TIP3    H234223   3.953   4.325  11.488  0.5534 -0.0899 -0.3986
 4270TIP3   OH234224   2.105   4.929  13.463 -0.0493  0.7129  0.2183
 4270TIP3    H134225   2.111   4.843  13.423  0.4854  0.5035  0.7375
 4270TIP3    H234226   2.027   4.969  13.423 -0.6253 -0.2169  0.3912
 4271TIP3   OH234227   1.970   3.066  14.897  0.3314 -0.2974  0.1853
 4271TIP3    H134228   1.993   2.980  14.932  0.0593 -0.4126  0.0796
 4271TIP3    H234229   2.024   3.127  14.947  1.4658 -0.6253 -0.5862
 4272TIP3   OH234230   3.123   6.195  14.972  0.1805  0.0161 -0.0069
 4272TIP3    H134231   3.118   6.262  15.040 -1.0439 -0.6982  0.6555
 4272TIP3    H234232   3.149   6.115  15.018  1.4145 -0.0305 -0.7483
 4273TIP3   OH234233   6.687   5.947   2.930  0.3515  0.5068 -0.5361
 4273TIP3    H134234   6.594   5.930   2.945  0.5629 -1.0689 -0.8075
 4273TIP3    H234235   6.699   6.038   2.957 -1.0726  0.4564  0.4212
 4274TIP3   OH234236   4.080   4.352   6.084 -0.2362  0.1828 -0.0842
 4274TIP3    H134237   4.093   4.259   6.062 -0.7252  0.0754  0.0824
 4274TIP3    H234238   4.110   4.360   6.174 -1.4016 -0.0857  0.3333
 4275TIP3   OH234239   6.589   5.598   5.593 -0.3782 -0.2746  0.7611
 4275TIP3    H134240   6.605   5.506   5.569  0.6362  0.1139 -0.1712
 4275TIP3    H234241   6.659   5.646   5.548 -1.9828  1.1639 -0.3104
 4276TIP3   OH234242   1.306   1.973  13.264  0.4674 -0.1085  0.9581
 4276TIP3    H134243   1.217   1.981  13.299 -0.1573  0.9392 -0.7127
 4276TIP3    H234244   1.293   1.953  13.171  2.0220 -1.4347  0.9885
 4277TIP3   OH234245   1.800   0.568   0.981  0.7606 -0.5144  0.3951
 4277TIP3    H134246   1.886   0.544   0.946  0.1831 -1.4922 -0.3994
 4277TIP3    H234247   1.738   0.538   0.915 -0.1593  1.0663  0.4805
 4278TIP3   OH234248   6.746   3.992   1.050  0.3037  0.2061  0.7395
 4278TIP3    H134249   6.765   4.007   1.142  1.1294  2.1021  0.3160
 4278TIP3    H234250   6.803   4.054   1.003 -1.9976  1.2257 -0.9280
 4279TIP3   OH234251   5.068   0.638   0.188 -0.0205 -0.3751 -0.1319
 4279TIP3    H134252   5.048   0.716   0.136  1.5344 -0.4749 -0.9338
 4279TIP3    H234253   4.985   0.615   0.230 -0.8974  0.7277 -1.1978
 4280TIP3   OH234254   1.269   3.646   4.824  0.1893  0.2277  0.0182
 4280TIP3    H134255   1.216   3.711   4.778 -0.1829 -1.4880 -2.1644
 4280TIP3    H234256   1.355   3.686   4.833 -0.0731  1.1035 -1.1134
 4281TIP3   OH234257   1.742   4.101  14.868  0.2586  0.1433 -0.2091
 4281TIP3    H134258   1.752   4.069  14.779  1.9556  0.7690 -0.2759
 4281TIP3    H234259   1.724   4.194  14.859  0.8915  0.3032  0.0928
 4282TIP3   OH234260   2.405   1.796   0.007 -0.2514 -0.2162 -0.0068
 4282TIP3    H134261   2.390   1.882   0.046 -1.4240  0.4307 -1.7892
 4282TIP3    H234262   2.384   1.807  -0.085  3.0195 -1.5270 -1.0437
 4283TIP3   OH234263   3.427   0.338   5.461 -0.1818  0.3228  0.4225
 4283TIP3    H134264   3.357   0.297   5.512 -1.1977 -0.8048 -1.7612
 4283TIP3    H234265   3.390   0.422   5.432  0.5439  1.1567  1.7683
 4284TIP3   OH234266   4.170   1.878  12.536  0.2526 -0.5710 -0.0970
 4284TIP3    H134267   4.252   1.861  12.489  0.5562 -0.3177  0.3344
 4284TIP3    H234268   4.194   1.873  12.628 -0.4048 -1.3733  0.0425
 4285TIP3   OH234269   0.899   3.647  11.262 -0.3716  0.3027 -0.4339
 4285TIP3    H134270   0.941   3.638  11.176  0.2253 -0.8737 -0.0315
 4285TIP3    H234271   0.968   3.626  11.325 -1.1372 -0.0921  0.2952
 4286TIP3   OH234272   2.249   1.228  11.602 -0.8675  0.7153  0.1251
 4286TIP3    H134273   2.220   1.154  11.655 -0.2390  0.9228  0.7885
 4286TIP3    H234274   2.323   1.194  11.552  0.3868  1.2309  1.5240
 4287TIP3   OH234275   3.144   6.487  11.776  0.4138 -0.1662  0.3090
 4287TIP3    H134276   3.234   6.466  11.753  0.2590  0.9560 -1.5627
 4287TIP3    H234277   3.151   6.555  11.843  0.9664  0.1055 -0.0218
 4288TIP3   OH234278   5.854   0.679  13.799  0.0814 -0.4320 -0.0159
 4288TIP3    H134279   5.780   0.620  13.812 -0.4361  0.0534 -0.6961
 4288TIP3    H234280   5.911   0.662  13.874 -0.1954 -1.5742 -0.0401
 4289TIP3   OH234281   0.957   2.188   6.229 -0.2535 -0.3655  0.5566
 4289TIP3    H134282   0.980   2.098   6.205  1.3682  0.1293  0.1032
 4289TIP3    H234283   1.039   2.237   6.219 -1.0898  1.1577  0.8391
 4290TIP3   OH234284   0.979   6.546   1.607 -0.1351  0.5017 -0.8153
 4290TIP3    H134285   0.909   6.594   1.562 -1.9066 -0.1248  1.1352
 4290TIP3    H234286   1.047   6.611   1.623 -1.5436  1.8470 -0.1618
 4291TIP3   OH234287   0.229   4.540  10.972 -0.3677  0.2533 -0.3785
 4291TIP3    H134288   0.209   4.547  10.879 -2.0023  0.4112 -0.0459
 4291TIP3    H234289   0.245   4.630  11.001 -0.3907  0.2618 -0.3928
 4292TIP3   OH234290   5.738   0.435  15.264 -0.3399  0.0741 -0.3775
 4292TIP3    H134291   5.713   0.350  15.300  0.6857 -0.7642 -1.5509
 4292TIP3    H234292   5.729   0.496  15.337 -0.2474 -1.1997  0.7236
 4293TIP3   OH234293   3.152   4.566   5.658  0.1766  0.0091  0.1260
 4293TIP3    H134294   3.127   4.487   5.706  0.7907  0.1049  0.6136
 4293TIP3    H234295   3.073   4.590   5.609 -0.7294  0.3674  1.7073
 4294TIP3   OH234296   1.557   6.155   0.324 -0.1544  0.7529  0.3384
 4294TIP3    H134297   1.484   6.166   0.385  0.6670  2.4556  1.0769
 4294TIP3    H234298   1.552   6.063   0.296 -1.9057  0.5556  1.2016
 4295TIP3   OH234299   4.131   4.482   6.326  0.0014  0.3070 -0.1307
 4295TIP3    H134300   4.122   4.530   6.408 -1.4279 -1.2303  0.6611
 4295TIP3    H234301   4.223   4.457   6.322  0.0582  0.2644  1.0775
 4296TIP3   OH234302   5.729   4.727  11.781 -1.2587 -0.4595  0.1029
 4296TIP3    H134303   5.660   4.771  11.830 -1.3960 -0.2756 -0.2488
 4296TIP3    H234304   5.699   4.729  11.690 -1.3071 -1.3475  0.0883
 4297TIP3   OH234305   3.680   3.562   4.109 -0.1620 -0.1483  0.4133
 4297TIP3    H134306   3.688   3.498   4.179 -0.4249 -0.8428 -0.1727
 4297TIP3    H234307   3.648   3.511   4.034 -1.5043  0.8843  0.2590
 4298TIP3   OH234308   4.444   4.742  16.017  0.0550 -0.5933 -0.7207
 4298TIP3    H134309   4.411   4.826  16.051 -0.5333 -1.2745  0.4740
 4298TIP3    H234310   4.414   4.677  16.081  2.5507 -1.4519 -0.3014
 4299TIP3   OH234311   0.829   1.584  14.222  0.1509  0.6017 -0.7734
 4299TIP3    H134312   0.747   1.536  14.208 -0.1933  1.1236 -0.5517
 4299TIP3    H234313   0.801   1.673  14.242  0.7032  0.3924  1.1063
 4300TIP3   OH234314   4.688   6.626  13.055  0.0683  0.2820 -0.1210
 4300TIP3    H134315   4.734   6.566  12.997  0.1101 -1.5197  1.6585
 4300TIP3    H234316   4.742   6.706  13.054 -0.1748  0.4905 -2.7966
 4301TIP3   OH234317   5.874   6.473  16.117 -0.6860  0.2213  0.2394
 4301TIP3    H134318   5.814   6.539  16.082 -0.5993 -0.0631 -0.4610
 4301TIP3    H234319   5.955   6.521  16.133 -1.1410  0.6418  1.3417
 4302TIP3   OH234320   3.064   0.534   5.696 -0.4301  0.0241  0.2956
 4302TIP3    H134321   3.066   0.625   5.723 -0.8796  0.0198  0.3485
 4302TIP3    H234322   2.972   0.509   5.702 -0.1865 -0.7097  1.2044
 4303TIP3   OH234323   2.639   6.757  16.849 -0.3424  0.7901  0.6228
 4303TIP3    H134324   2.644   6.852  16.861  0.8059  0.9309 -0.8128
 4303TIP3    H234325   2.723   6.733  16.811 -0.9496 -0.6934  0.1669
 4304TIP3   OH234326   0.402   2.161  10.979  1.1339 -0.0642 -0.1325
 4304TIP3    H134327   0.473   2.111  11.020  1.9996  1.2634  0.0547
 4304TIP3    H234328   0.411   2.142  10.885  2.2819  0.7411 -0.2013
 4305TIP3   OH234329   3.037   3.171  15.779  0.0592  0.4216  0.1206
 4305TIP3    H134330   3.080   3.209  15.856 -1.3936  1.1776  0.6070
 4305TIP3    H234331   2.972   3.237  15.753  0.6193  0.2617 -1.8868
 4306TIP3   OH234332   2.836   3.780  17.028  0.2198 -0.0182  0.5123
 4306TIP3    H134333   2.898   3.848  17.001 -1.2861  1.2623  0.1153
 4306TIP3    H234334   2.839   3.781  17.123 -0.2247  1.0567  0.5259
 4307TIP3   OH234335   2.595   0.984   4.198  0.9156  0.1271  0.3916
 4307TIP3    H134336   2.611   0.895   4.228 -1.4754 -0.8006 -0.8127
 4307TIP3    H234337   2.682   1.022   4.186  2.0034 -2.1451  0.6455
 4308TIP3   OH234338   5.570   1.303   5.089  0.2827 -0.2242 -0.0238
 4308TIP3    H134339   5.540   1.244   5.019  0.3177 -0.6465  0.3151
 4308TIP3    H234340   5.665   1.309   5.075  0.3366 -0.5664  0.1793
 4309TIP3   OH234341   4.203   2.577  12.455  0.6464 -0.0847  0.0438
 4309TIP3    H134342   4.213   2.527  12.374 -0.2556 -1.2271  0.6098
 4309TIP3    H234343   4.208   2.511  12.524  1.5336  0.8866  0.9413
 4310TIP3   OH234344   0.906   4.885  14.177  0.3071  0.1850  0.3745
 4310TIP3    H134345   0.982   4.939  14.153 -0.9241  1.4860 -0.8245
 4310TIP3    H234346   0.830   4.937  14.150 -1.0293 -1.0723  1.5350
 4311TIP3   OH234347   0.377   6.564   1.610  0.3061  0.1772  0.9250
 4311TIP3    H134348   0.308   6.502   1.585  0.7737  0.0994 -0.2355
 4311TIP3    H234349   0.433   6.515   1.670  0.4719 -0.4320  0.2914
 4312TIP3   OH234350   0.920   6.139  13.360 -0.0452  0.0709  0.8237
 4312TIP3    H134351   0.993   6.118  13.418  1.5683 -0.6628 -1.3260
 4312TIP3    H234352   0.861   6.063  13.367  1.5486 -1.3680 -0.5389
 4313TIP3   OH234353   3.487   1.074   3.016 -0.2324 -0.5432  0.4344
 4313TIP3    H134354   3.485   1.168   3.033 -3.0809 -0.3956 -0.2579
 4313TIP3    H234355   3.419   1.038   3.072 -0.1636 -1.9967 -0.3568
 4314TIP3   OH234356   4.515   1.786  11.991  0.2648  0.0799  0.2265
 4314TIP3    H134357   4.552   1.830  12.067 -1.2190  0.6449  0.6623
 4314TIP3    H234358   4.528   1.848  11.919  2.4154 -0.7971 -0.2180
 4315TIP3   OH234359   4.585   4.388  12.882 -0.2703  0.4198  0.2034
 4315TIP3    H134360   4.517   4.368  12.946 -0.8748  1.3772 -0.1222
 4315TIP3    H234361   4.538   4.412  12.802  0.4663 -0.1136 -0.4144
 4316TIP3   OH234362   2.981   6.034   0.504 -0.3674  0.5147  0.1402
 4316TIP3    H134363   2.899   6.014   0.460  0.1158  0.6529 -0.8633
 4316TIP3    H234364   3.016   6.110   0.456  0.8034 -0.1398 -0.0955
 4317TIP3   OH234365   1.077   1.570   5.248  0.1829 -0.5249  0.3055
 4317TIP3    H134366   1.058   1.516   5.325 -0.7163  0.9922  1.2030
 4317TIP3    H234367   1.113   1.651   5.284 -0.7187  0.4124 -0.8328
 4318TIP3   OH234368   1.072   1.550  13.888 -0.5217  1.0802  0.2952
 4318TIP3    H134369   1.041   1.547  13.979  1.0683 -0.7080  0.8533
 4318TIP3    H234370   1.028   1.475  13.846 -0.6860  1.4642 -0.2242
 4319TIP3   OH234371   4.139   6.702   1.938 -0.2271 -0.1424 -0.6661
 4319TIP3    H134372   4.219   6.654   1.917  0.2927  1.1030 -1.5982
 4319TIP3    H234373   4.091   6.706   1.855 -0.3048  0.8666 -0.5786
 4320TIP3   OH234374   2.534   2.218   0.879 -0.0528  0.1941 -0.2215
 4320TIP3    H134375   2.601   2.189   0.941  0.1947  1.0338 -0.0924
 4320TIP3    H234376   2.458   2.241   0.933 -0.1730  0.0097 -0.3080
 4321TIP3   OH234377   2.332   6.467   5.195 -0.6756 -0.0424  0.2108
 4321TIP3    H134378   2.396   6.535   5.177 -0.7168 -0.4029 -1.4704
 4321TIP3    H234379   2.351   6.399   5.131 -0.2026 -1.9576  2.2620
 4322TIP3   OH234380   2.962   3.800  13.738  0.0533 -0.0927 -0.2721
 4322TIP3    H134381   2.978   3.875  13.795  1.3180 -0.6586  0.1557
 4322TIP3    H234382   2.895   3.830  13.676 -0.0677  1.0982  0.4185
 4323TIP3   OH234383   1.303   5.314   5.992 -0.5903  0.2740 -0.4718
 4323TIP3    H134384   1.235   5.348   6.050  1.4754  1.5222  1.3826
 4323TIP3    H234385   1.300   5.219   6.005 -0.2467  0.5052  1.7003
 4324TIP3   OH234386   1.175   3.879  13.772  0.4906 -0.2247  0.1145
 4324TIP3    H134387   1.182   3.791  13.808 -1.8603 -0.6622 -0.3542
 4324TIP3    H234388   1.097   3.916  13.813 -0.5938  0.3181 -2.2419
 4325TIP3   OH234389   5.458   5.258   1.737  0.2110 -0.2040  0.5055
 4325TIP3    H134390   5.399   5.208   1.793  0.1210 -0.2239  0.3922
 4325TIP3    H234391   5.438   5.229   1.649  1.5908 -1.4936  0.5862
 4326TIP3   OH234392   5.622   0.132  16.034 -0.4601 -0.3763 -0.3042
 4326TIP3    H134393   5.591   0.222  16.038  2.3633  0.6934 -0.6134
 4326TIP3    H234394   5.591   0.092  16.115 -0.7617  1.2139  0.3895
 4327TIP3   OH234395   2.509   2.111  11.994 -0.6621 -0.0206  0.3391
 4327TIP3    H134396   2.529   2.171  11.922 -0.0799 -1.9044 -1.1545
 4327TIP3    H234397   2.413   2.103  11.993 -0.6675  0.0939 -0.1220
 4328TIP3   OH234398   4.902   1.386   0.534 -0.4702  0.0075  0.1802
 4328TIP3    H134399   4.859   1.301   0.520  1.7071 -0.7156 -3.3950
 4328TIP3    H234400   4.836   1.451   0.510 -1.5933 -0.7088  1.2093
 4329TIP3   OH234401   6.137   0.211  14.869  0.2264  0.2028 -0.6839
 4329TIP3    H134402   6.152   0.146  14.938 -2.2346  1.2738  0.9692
 4329TIP3    H234403   6.071   0.171  14.813 -2.4802  1.7031  1.2071
 4330TIP3   OH234404   5.189   5.635   5.580 -0.1828  0.2905 -0.4404
 4330TIP3    H134405   5.235   5.700   5.634 -1.4619  1.2717 -0.4523
 4330TIP3    H234406   5.125   5.687   5.531  1.2366 -0.4900 -3.3440
 4331TIP3   OH234407   6.565   4.713   2.329  0.3842  0.1373  0.1755
 4331TIP3    H134408   6.505   4.691   2.257 -2.2509  0.9869  1.9678
 4331TIP3    H234409   6.603   4.628   2.354 -1.0994 -0.6729 -0.1648
 4332TIP3   OH234410   6.069   0.790  16.505  0.2061 -0.0759 -0.3195
 4332TIP3    H134411   6.165   0.796  16.510  0.2470  0.6787 -1.4226
 4332TIP3    H234412   6.042   0.878  16.479 -0.7501 -0.3997 -0.4442
 4333TIP3   OH234413   3.295   2.959  16.495  0.3862 -0.7809 -0.4724
 4333TIP3    H134414   3.313   2.865  16.503 -0.9111 -0.9042  1.8997
 4333TIP3    H234415   3.200   2.964  16.489  0.4744  0.3824 -1.1041
 4334TIP3   OH234416   4.120   0.816   1.915 -0.5488 -1.0348 -0.4117
 4334TIP3    H134417   4.195   0.758   1.924 -0.8087 -1.3605 -0.3404
 4334TIP3    H234418   4.048   0.759   1.890 -1.0882 -0.9236  0.8277
 4335TIP3   OH234419   2.451   4.600  11.793  0.6851  0.2221 -0.2019
 4335TIP3    H134420   2.459   4.659  11.868 -1.7343  0.3557  0.0534
 4335TIP3    H234421   2.400   4.649  11.729 -2.1402 -1.7232  0.3430
 4336TIP3   OH234422   5.529   3.359  15.366  0.1522 -0.7122  0.2323
 4336TIP3    H134423   5.541   3.276  15.321  0.0004 -0.3675 -0.4571
 4336TIP3    H234424   5.461   3.404  15.317  0.6988  0.0968  0.1963
 4337TIP3   OH234425   1.096   5.992  16.018 -0.4165 -0.6624  0.4590
 4337TIP3    H134426   1.023   6.000  16.080 -0.9113 -0.4141 -0.1448
 4337TIP3    H234427   1.125   5.902  16.027  0.5488 -0.2296  2.1884
 4338TIP3   OH234428   1.166   3.491   1.084 -0.3134 -0.2635 -0.1595
 4338TIP3    H134429   1.155   3.579   1.048  0.6950  0.4554  1.1805
 4338TIP3    H234430   1.076   3.459   1.096 -0.6853  0.1533 -1.5960
 4339TIP3   OH234431   5.306   4.153   3.144 -0.0853 -0.2416 -0.2993
 4339TIP3    H134432   5.299   4.170   3.238  0.6154 -2.1136  0.1303
 4339TIP3    H234433   5.392   4.112   3.134  0.5140  1.3121 -2.0094
 4340TIP3   OH234434   6.238   3.402   4.665 -0.2759 -0.1165  0.1188
 4340TIP3    H134435   6.311   3.450   4.704 -0.0619 -0.4491  0.1334
 4340TIP3    H234436   6.279   3.332   4.615 -0.5545  0.1840 -0.5444
 4341TIP3   OH234437   6.220   2.341  15.335 -0.1206  0.1682 -0.0215
 4341TIP3    H134438   6.229   2.246  15.336 -0.6698  0.0575  2.9160
 4341TIP3    H234439   6.132   2.357  15.370  0.9345  1.7788  2.0923
 4342TIP3   OH234440   5.329   5.120  12.502 -0.1111 -0.3370 -0.3339
 4342TIP3    H134441   5.308   5.149  12.591  1.2823  0.5333 -0.2580
 4342TIP3    H234442   5.373   5.036  12.514 -0.1507 -0.3398 -0.2064
 4343TIP3   OH234443   0.647   2.932   2.983  0.3858 -0.2847  0.8516
 4343TIP3    H134444   0.657   2.999   3.050 -2.6578 -0.6052  1.8034
 4343TIP3    H234445   0.606   2.977   2.909 -0.7005 -0.8151  1.0981
 4344TIP3   OH234446   3.880   2.069   2.435  0.2593 -0.7219  0.2376
 4344TIP3    H134447   3.832   2.086   2.516 -0.3555  1.0216 -0.4326
 4344TIP3    H234448   3.834   1.997   2.393 -0.5870 -0.3761  0.5530
 4345TIP3   OH234449   1.628   5.732  11.688 -0.1067  0.8344  0.4717
 4345TIP3    H134450   1.612   5.654  11.742 -1.4620  0.5874 -0.2406
 4345TIP3    H234451   1.580   5.802  11.732 -1.4836  0.5650 -0.5121
 4346TIP3   OH234452   4.862   4.405   4.656  0.4173  0.5843 -0.0114
 4346TIP3    H134453   4.857   4.333   4.720  0.4106  1.3258  0.8438
 4346TIP3    H234454   4.849   4.484   4.709 -0.6813  1.1591 -1.0947
 4347TIP3   OH234455   5.243   0.716   0.561 -0.0113  0.1590  0.0537
 4347TIP3    H134456   5.293   0.716   0.480  0.6046 -0.2676  0.4312
 4347TIP3    H234457   5.276   0.791   0.611  0.0405  0.0522  0.1794
 4348TIP3   OH234458   3.620   6.385   4.448 -0.2238  0.0661 -0.1019
 4348TIP3    H134459   3.666   6.456   4.402  0.5108 -1.1401 -1.2920
 4348TIP3    H234460   3.545   6.428   4.488 -0.5305  1.3227 -1.8988
 4349TIP3   OH234461   0.424   6.411  12.824 -0.1890  0.1632 -0.0916
 4349TIP3    H134462   0.385   6.411  12.911  0.2119 -0.7531  0.1022
 4349TIP3    H234463   0.514   6.438  12.838  0.4293 -1.8185  0.0790
 4350TIP3   OH234464   2.678   1.848  14.102  0.4081  0.2669 -0.6590
 4350TIP3    H134465   2.586   1.825  14.113  0.9998 -1.1184  2.3370
 4350TIP3    H234466   2.677   1.943  14.088 -1.4330  0.4475  0.3360
 4351TIP3   OH234467   2.745   4.564   4.517 -0.3018  0.1550  0.3470
 4351TIP3    H134468   2.759   4.504   4.590  1.2170 -0.1449 -0.1627
 4351TIP3    H234469   2.833   4.583   4.484 -0.9209  0.7009 -1.0611
 4352TIP3   OH234470   5.685   5.239   0.758  0.6121  0.5662 -0.3935
 4352TIP3    H134471   5.747   5.195   0.699 -0.0378  0.9258 -1.3624
 4352TIP3    H234472   5.633   5.168   0.796 -0.6380  0.4524 -2.1815
 4353TIP3   OH234473   0.683   2.039  17.030  0.2457  0.1346 -0.0066
 4353TIP3    H134474   0.686   2.106  17.099 -0.5186  0.7324 -0.5463
 4353TIP3    H234475   0.773   2.006  17.025  0.5754  0.9428  0.4396
 4354TIP3   OH234476   6.587   4.781  13.750  0.0631 -0.4425 -0.2002
 4354TIP3    H134477   6.634   4.713  13.798 -0.5544 -2.8360 -2.6871
 4354TIP3    H234478   6.655   4.842  13.722  0.8755 -0.8545  0.8263
 4355TIP3   OH234479   2.392   4.532  13.665 -0.0758  0.4539 -0.4130
 4355TIP3    H134480   2.309   4.488  13.684 -0.4323  0.5482 -1.6650
 4355TIP3    H234481   2.425   4.560  13.750 -1.5744  0.8581  0.0599
 4356TIP3   OH234482   0.413   5.671  15.949  0.0574  0.0124  0.4397
 4356TIP3    H134483   0.381   5.584  15.971  1.3042 -0.2887  1.1170
 4356TIP3    H234484   0.501   5.657  15.913 -0.5794  0.8048 -1.6025
 4357TIP3   OH234485   4.413   1.619   6.610 -0.2967  0.6739  0.0688
 4357TIP3    H134486   4.323   1.587   6.605 -0.5034  1.4042 -1.1487
 4357TIP3    H234487   4.463   1.557   6.557  0.0337 -0.0457  1.1829
 4358TIP3   OH234488   2.265   3.526   5.924 -0.4437 -0.3374 -0.5043
 4358TIP3    H134489   2.202   3.513   5.994 -2.0792  1.1666 -1.6138
 4358TIP3    H234490   2.228   3.479   5.849 -0.0147  0.1585 -1.0399
 4359TIP3   OH234491   0.104   4.661   3.473  0.0867 -0.0854 -0.1765
 4359TIP3    H134492   0.038   4.650   3.542 -0.7058  1.7940 -0.5539
 4359TIP3    H234493   0.053   4.669   3.392  0.9762 -1.5899 -0.9248
 4360TIP3   OH234494   3.586   1.811  13.085 -0.7084  0.1038 -0.0040
 4360TIP3    H134495   3.594   1.822  12.990 -1.7279  2.3893  0.1279
 4360TIP3    H234496   3.520   1.742  13.095 -0.2235 -0.5280 -0.9256
 4361TIP3   OH234497   0.274   4.078   3.571 -0.2634  0.0212 -0.3389
 4361TIP3    H134498   0.345   4.123   3.524 -1.5476  1.0513 -1.3833
 4361TIP3    H234499   0.196   4.128   3.548 -1.2813 -0.8592  1.0955
 4362TIP3   OH234500   4.658   5.784  13.215  0.2865 -0.2328 -0.2348
 4362TIP3    H134501   4.575   5.792  13.168 -0.6803  0.9330  1.5856
 4362TIP3    H234502   4.716   5.848  13.172 -0.4494  0.5230 -0.1267
 4363TIP3   OH234503   1.064   2.319  15.224 -0.4791  0.2846  0.0173
 4363TIP3    H134504   1.086   2.380  15.154  0.9650  1.7925  1.7000
 4363TIP3    H234505   0.988   2.359  15.267  1.6410  2.1254  2.3591
 4364TIP3   OH234506   0.998   0.216   5.893 -0.0889  0.0512  0.9108
 4364TIP3    H134507   1.077   0.249   5.936  0.3996 -0.1398  0.1800
 4364TIP3    H234508   1.007   0.120   5.897 -0.1153  0.0315  0.5246
 4365TIP3   OH234509   4.402   5.278   3.994 -0.0012  0.4716  0.6929
 4365TIP3    H134510   4.391   5.194   3.949  2.1698 -0.5399  1.9335
 4365TIP3    H234511   4.414   5.341   3.923 -1.4823 -0.2526 -0.2580
 4366TIP3   OH234512   6.309   4.466   5.848 -0.0341  0.2186  0.3768
 4366TIP3    H134513   6.255   4.508   5.782 -1.3690 -0.9819  0.6581
 4366TIP3    H234514   6.256   4.468   5.927  0.5932 -0.4137  0.8208
 4367TIP3   OH234515   3.082   3.161  15.362 -0.0969 -0.3474  0.4694
 4367TIP3    H134516   3.109   3.190  15.275  0.6167  0.8475  1.0661
 4367TIP3    H234517   2.986   3.152  15.355 -0.2196  1.0888 -0.0622
 4368TIP3   OH234518   4.680   2.252   5.851 -0.0670 -0.3468 -0.0133
 4368TIP3    H134519   4.746   2.254   5.920  1.2960 -0.2548 -1.2836
 4368TIP3    H234520   4.648   2.342   5.846 -0.3343 -0.3990  0.6243
 4369TIP3   OH234521   1.459   4.012   0.482 -0.3396  0.6063 -0.5592
 4369TIP3    H134522   1.518   4.033   0.554  0.4061 -0.7555 -0.7550
 4369TIP3    H234523   1.373   4.001   0.523  0.1425 -0.4840  0.1851
 4370TIP3   OH234524   4.806   4.762   4.527  0.4743 -0.2548  0.9384
 4370TIP3    H134525   4.750   4.817   4.582  1.6370 -0.4094  2.3405
 4370TIP3    H234526   4.747   4.694   4.492 -0.6716  0.9867  0.3838
 4371TIP3   OH234527   0.262   0.976   3.032  0.1951 -0.2631 -0.3750
 4371TIP3    H134528   0.300   0.974   3.120  0.8481 -0.5651 -0.6561
 4371TIP3    H234529   0.215   1.059   3.028 -2.1242 -1.3974  1.1930
 4372TIP3   OH234530   3.157   1.922   0.230 -0.3037 -0.4122  0.2248
 4372TIP3    H134531   3.083   1.980   0.214 -0.9172 -1.5816 -1.3877
 4372TIP3    H234532   3.205   1.921   0.147 -0.5483 -2.4893  0.0412
 4373TIP3   OH234533   3.480   5.932   3.807 -0.7652  0.3184 -0.5174
 4373TIP3    H134534   3.556   5.908   3.755 -2.0547  0.3911 -2.5382
 4373TIP3    H234535   3.484   5.874   3.883  0.4256 -0.7840 -1.3774
 4374TIP3   OH234536   6.049   5.375   0.478  0.5030  0.0819  0.6139
 4374TIP3    H134537   6.045   5.418   0.563  1.4369  0.3864  0.5186
 4374TIP3    H234538   5.958   5.355   0.457  0.3216 -0.6209  1.9795
 4375TIP3   OH234539   2.780   1.565   2.238 -0.5552 -0.8526 -0.1348
 4375TIP3    H134540   2.787   1.481   2.284  0.0236 -1.3356 -1.0519
 4375TIP3    H234541   2.801   1.543   2.147 -0.5244  0.2729 -0.4106
 4376TIP3   OH234542   2.479   1.535   4.795 -0.5559  0.1615  0.4756
 4376TIP3    H134543   2.505   1.627   4.801 -0.8887  0.2274  0.9728
 4376TIP3    H234544   2.383   1.538   4.791 -0.6252 -0.2066  1.5440
 4377TIP3   OH234545   1.776   2.867  16.834 -0.8617  0.2217 -0.2327
 4377TIP3    H134546   1.755   2.783  16.875  1.2409 -0.5321 -0.5826
 4377TIP3    H234547   1.730   2.931  16.887  0.5257 -0.8445  2.4760
 4378TIP3   OH234548   4.134   5.497   5.962 -0.7316 -0.1804  0.0311
 4378TIP3    H134549   4.126   5.543   6.046  0.2696  1.6875 -0.8177
 4378TIP3    H234550   4.044   5.472   5.940 -1.6451  2.8953 -0.2034
 4379TIP3   OH234551   6.037   3.365   5.871 -0.1204 -0.5821  0.1005
 4379TIP3    H134552   5.954   3.323   5.896 -1.0454  0.5094 -1.0284
 4379TIP3    H234553   6.096   3.347   5.944 -0.8060 -2.8617  0.1860
 4380TIP3   OH234554   3.009   6.726  14.573 -0.0413 -0.7380 -0.1496
 4380TIP3    H134555   2.951   6.651  14.584  0.1160 -0.8830 -0.2971
 4380TIP3    H234556   3.069   6.721  14.647 -1.6155  0.7121  1.3164
 4381TIP3   OH234557   2.932   6.674  15.698 -0.2175 -0.5730  0.1482
 4381TIP3    H134558   2.938   6.596  15.753  1.0984 -0.0617  0.7752
 4381TIP3    H234559   3.019   6.713  15.702 -0.5587  0.3731 -0.9983
 4382TIP3   OH234560   6.704   5.759  15.637  0.4212  0.9160  0.3160
 4382TIP3    H134561   6.693   5.854  15.628 -2.2178  0.5960 -0.7321
 4382TIP3    H234562   6.642   5.734  15.705  1.5833 -0.0109  1.0703
 4383TIP3   OH234563   6.732   5.880  11.830  0.5835  0.1140 -0.4646
 4383TIP3    H134564   6.728   5.956  11.772 -1.3283  0.2007 -0.2868
 4383TIP3    H234565   6.763   5.915  11.914  2.5015  0.1380 -1.1262
 4384TIP3   OH234566   1.214   5.007  13.500  0.5069 -0.8262  0.3697
 4384TIP3    H134567   1.271   4.979  13.429  1.0935 -1.9926  1.2608
 4384TIP3    H234568   1.135   4.952  13.491  0.7611 -1.2824  0.8509
 4385TIP3   OH234569   1.967   2.397  17.146  0.3352 -0.1317 -0.1519
 4385TIP3    H134570   2.037   2.402  17.211 -0.3282  0.1340  0.5481
 4385TIP3    H234571   1.900   2.342  17.187 -0.3721  0.5841 -0.3403
 4386TIP3   OH234572   4.687   0.142  14.850 -0.1125 -0.5663 -0.3098
 4386TIP3    H134573   4.617   0.170  14.909 -0.9541 -3.1069 -0.0063
 4386TIP3    H234574   4.654   0.165  14.762 -0.5716 -0.2393 -0.0575
 4387TIP3   OH234575   1.559   5.450   0.290 -0.0003  0.6241  0.3588
 4387TIP3    H134576   1.508   5.372   0.267 -1.9837  1.5900  1.3038
 4387TIP3    H234577   1.565   5.499   0.208  0.3217  0.0147  0.0098
 4388TIP3   OH234578   6.307   4.041   3.090  0.3430  0.0877  0.0905
 4388TIP3    H134579   6.365   3.988   3.145  1.1792  1.6517  0.7881
 4388TIP3    H234580   6.350   4.127   3.086 -1.4441  1.0156 -0.1739
 4389TIP3   OH234581   6.355   4.624  16.952 -0.3530  0.7050  0.0156
 4389TIP3    H134582   6.422   4.594  16.890  0.6485  0.2138  1.2820
 4389TIP3    H234583   6.283   4.654  16.897  0.2666 -0.2460 -1.3784
 4390TIP3   OH234584   0.767   2.603  16.377 -0.3516 -0.0307  0.7032
 4390TIP3    H134585   0.698   2.636  16.320 -0.3404 -0.5651  0.3699
 4390TIP3    H234586   0.833   2.672  16.378 -0.1647 -0.1771 -0.2680
 4391TIP3   OH234587   4.136   5.167   4.154  0.4246 -0.0998 -1.0942
 4391TIP3    H134588   4.105   5.157   4.064 -0.2268 -1.2461 -0.7538
 4391TIP3    H234589   4.058   5.152   4.208  1.0672 -0.6654 -0.2998
 4392TIP3   OH234590   6.139   5.545   3.853  0.4632 -0.0380  0.3450
 4392TIP3    H134591   6.142   5.515   3.762  1.0028  1.6305 -0.2285
 4392TIP3    H234592   6.046   5.552   3.873  0.3285 -1.8411  0.4374
 4393TIP3   OH234593   6.297   5.404  15.123 -0.0412 -0.1641  0.1460
 4393TIP3    H134594   6.211   5.361  15.122 -1.9706  3.2851  0.7123
 4393TIP3    H234595   6.327   5.395  15.213  0.0643 -1.1391  0.0193
 4394TIP3   OH234596   4.610   2.613  16.829  0.1381  1.1691  0.3766
 4394TIP3    H134597   4.599   2.588  16.921 -3.1234 -1.2442 -0.4837
 4394TIP3    H234598   4.697   2.582  16.806  0.0043 -0.6409  2.0198
 4395TIP3   OH234599   2.555   3.112   3.868  0.2312 -1.0772 -0.5773
 4395TIP3    H134600   2.570   3.121   3.962  2.1260  0.9994 -0.9838
 4395TIP3    H234601   2.591   3.027   3.845  0.0605 -1.4527  0.5150
 4396TIP3   OH234602   3.168   0.909  14.709  0.8723  0.0788 -0.3425
 4396TIP3    H134603   3.175   0.957  14.792  0.2443  0.4687 -0.5127
 4396TIP3    H234604   3.177   0.817  14.735 -0.8177  0.0820  0.3734
 4397TIP3   OH234605   5.902   2.668   2.981  0.3114 -0.4558 -0.4480
 4397TIP3    H134606   5.916   2.761   2.964  0.9801 -0.3020  0.7994
 4397TIP3    H234607   5.990   2.630   2.986  0.1534 -0.6750  1.4048
 4398TIP3   OH234608   5.710   0.208   5.089  0.0279 -0.5511  0.2481
 4398TIP3    H134609   5.720   0.267   5.164 -0.7197 -0.2978  0.1604
 4398TIP3    H234610   5.769   0.243   5.023  0.3178 -0.4793  0.5412
 4399TIP3   OH234611   5.029   3.770  16.431  0.1541 -0.1366 -0.1522
 4399TIP3    H134612   5.013   3.800  16.342  1.8232 -0.1183 -0.4722
 4399TIP3    H234613   5.084   3.693  16.422  1.4577  0.6118  0.8594
 4400TIP3   OH234614   2.855   1.009  15.590  0.3715  0.1151 -0.0905
 4400TIP3    H134615   2.944   1.040  15.577 -0.2080  1.5507 -0.8257
 4400TIP3    H234616   2.837   0.954  15.514  0.7922 -0.6209  0.3288
 4401TIP3   OH234617   6.323   0.540   4.486 -0.2201  0.3149 -0.2166
 4401TIP3    H134618   6.234   0.547   4.521 -0.7299  1.7250 -1.6656
 4401TIP3    H234619   6.363   0.625   4.506  1.2278 -0.6923  1.4177
 4402TIP3   OH234620   2.132   3.202   1.923  0.3902 -0.5919 -0.2096
 4402TIP3    H134621   2.078   3.173   1.997 -0.8677 -0.1345 -0.9049
 4402TIP3    H234622   2.167   3.122   1.886 -0.0243 -0.9261  0.1073
 4403TIP3   OH234623   6.059   0.896   5.110  0.0258 -0.0950  0.1253
 4403TIP3    H134624   6.023   0.935   5.190  0.3841  1.0273 -0.2458
 4403TIP3    H234625   6.121   0.831   5.141 -1.6667 -1.4856  0.7739
 4404TIP3   OH234626   5.761   4.168  14.043  0.6206  0.0325  0.0226
 4404TIP3    H134627   5.839   4.132  14.001 -0.2384 -1.1795 -0.6171
 4404TIP3    H234628   5.720   4.221  13.975  1.1713  1.1442  0.5390
 4405TIP3   OH234629   2.973   1.769  15.681  0.2202 -0.5062 -0.1494
 4405TIP3    H134630   3.057   1.742  15.719  0.0230  0.7250  1.2615
 4405TIP3    H234631   2.997   1.808  15.597  1.3516  1.5189  1.0130
 4406TIP3   OH234632   5.726   1.162   2.362  0.1535 -0.1317 -0.3175
 4406TIP3    H134633   5.654   1.225   2.359 -0.9715 -1.2995  0.8786
 4406TIP3    H234634   5.784   1.196   2.430  0.4108  0.4605 -0.8203
 4407TIP3   OH234635   3.252   2.232   1.701  0.0198  0.0324  0.1779
 4407TIP3    H134636   3.194   2.295   1.657 -0.2774 -0.0263  0.4820
 4407TIP3    H234637   3.198   2.195   1.771  1.1355  1.7435  2.0374
 4408TIP3   OH234638   5.158   4.548  17.285  0.2744  0.6544  0.2697
 4408TIP3    H134639   5.094   4.478  17.298 -0.7131  1.1499 -1.6981
 4408TIP3    H234640   5.124   4.621  17.337 -0.0042  0.4693  0.3507
 4409TIP3   OH234641   3.303   1.286   4.402 -0.9488  0.1061 -0.4756
 4409TIP3    H134642   3.289   1.381   4.399  3.0352  0.9023  0.0118
 4409TIP3    H234643   3.283   1.262   4.492  2.6734  1.6359  0.9410
 4410TIP3   OH234644   1.970   1.043  15.125 -0.2960 -0.5045 -0.3581
 4410TIP3    H134645   1.930   1.107  15.066 -0.8489 -0.9779 -0.5101
 4410TIP3    H234646   1.943   0.958  15.089  1.7498 -0.8935 -1.1343
 4411TIP3   OH234647   4.783   5.432  12.747 -0.7137 -0.1095 -0.3136
 4411TIP3    H134648   4.812   5.415  12.657 -0.5061 -0.8240 -0.1222
 4411TIP3    H234649   4.719   5.363  12.765  0.1353 -0.7222  0.4856
 4412TIP3   OH234650   3.143   6.393   1.963  0.7140  0.1105  0.2386
 4412TIP3    H134651   3.179   6.340   1.892  2.6626  0.8269  0.6412
 4412TIP3    H234652   3.152   6.339   2.041 -0.9914 -0.4873  0.0659
 4413TIP3   OH234653   0.274   3.598  16.430 -0.3306 -0.5427  0.0568
 4413TIP3    H134654   0.221   3.518  16.437 -0.2326 -0.6287 -0.1686
 4413TIP3    H234655   0.343   3.586  16.495 -0.0324 -0.8633 -0.3160
 4414TIP3   OH234656   2.470   0.267   2.566  0.5210 -0.4759  0.1799
 4414TIP3    H134657   2.409   0.196   2.551 -0.0219 -0.4050  1.8092
 4414TIP3    H234658   2.554   0.223   2.585  1.3223 -0.5590 -3.0449
 4415TIP3   OH234659   4.474   1.615   4.706  0.2187 -0.3711  0.4084
 4415TIP3    H134660   4.526   1.653   4.777  0.6349 -0.0672 -0.0647
 4415TIP3    H234661   4.392   1.665   4.708  0.6518  0.3714 -0.0276
 4416TIP3   OH234662   6.613   3.557  15.270  0.0577  0.0827 -0.4274
 4416TIP3    H134663   6.650   3.554  15.358  0.3082  0.1362 -0.5288
 4416TIP3    H234664   6.689   3.559  15.212 -0.1029  0.4128 -0.6330
 4417TIP3   OH234665   6.055   0.341   3.650  0.2306  0.6795  0.1722
 4417TIP3    H134666   6.087   0.259   3.613 -0.3234 -0.1841  1.5061
 4417TIP3    H234667   6.130   0.379   3.696  0.2040  0.3231  0.5179
 4418TIP3   OH234668   5.917   6.345   3.301  0.4297 -0.4910 -0.1252
 4418TIP3    H134669   5.982   6.297   3.249  0.6367 -0.1191 -0.2122
 4418TIP3    H234670   5.951   6.341   3.391  0.6739 -0.1368 -0.1985
 4419TIP3   OH234671   5.360   5.601  13.224 -0.4409 -0.8436  0.4081
 4419TIP3    H134672   5.410   5.558  13.155 -0.7841 -1.7570  0.7037
 4419TIP3    H234673   5.389   5.558  13.305  1.1080  1.2718  1.0555
 4420TIP3   OH234674   2.879   4.147   5.273  0.3727  0.2404  0.6077
 4420TIP3    H134675   2.856   4.096   5.196 -1.3038 -0.8212  1.7365
 4420TIP3    H234676   2.965   4.184   5.253 -1.2513  2.6503 -3.0444
 4421TIP3   OH234677   3.164   0.009  16.265 -0.4756  0.1007  0.3114
 4421TIP3    H134678   3.234  -0.054  16.246 -1.1632 -0.3072 -1.0033
 4421TIP3    H234679   3.199   0.063  16.336  2.1463  1.4118 -1.7914
 4422TIP3   OH234680   2.639   4.907  14.919  0.2634  0.2478  0.2623
 4422TIP3    H134681   2.715   4.951  14.958  0.9843 -0.6182 -0.1239
 4422TIP3    H234682   2.671   4.876  14.834 -0.4837 -0.2498  0.1556
 4423TIP3   OH234683   1.682   3.798   0.875 -0.1322  0.0303  0.0112
 4423TIP3    H134684   1.671   3.873   0.933 -0.2623  0.3357 -0.4050
 4423TIP3    H234685   1.607   3.802   0.815 -0.2374 -0.5329  0.1004
 4424TIP3   OH234686   2.299   4.911  16.357  0.5754 -0.1027 -0.3974
 4424TIP3    H134687   2.257   4.887  16.439 -0.0014 -1.0755 -0.9570
 4424TIP3    H234688   2.267   4.847  16.294 -0.4594  1.6876 -1.8168
 4425TIP3   OH234689   2.438   5.144   4.177  0.3651 -0.4754 -0.2232
 4425TIP3    H134690   2.509   5.093   4.139  1.0971  0.1506  0.2769
 4425TIP3    H234691   2.438   5.120   4.270  0.3572  0.0271 -0.0919
 4426TIP3   OH234692   4.861   5.509  15.369  0.5856 -0.4921 -0.3241
 4426TIP3    H134693   4.817   5.426  15.351  1.3904 -1.2683  1.1272
 4426TIP3    H234694   4.937   5.485  15.422  0.9836  1.1473 -0.1009
 4427TIP3   OH234695   1.971   3.711  16.198 -0.1388 -0.1731  0.0715
 4427TIP3    H134696   1.940   3.707  16.288  1.3033  2.4270  0.7789
 4427TIP3    H234697   1.917   3.647  16.151 -3.8987  1.3318  1.9232
 4428TIP3   OH234698   0.479   2.106  12.174  0.4833 -0.5389 -0.5721
 4428TIP3    H134699   0.408   2.162  12.144 -1.1977 -1.6404  1.1896
 4428TIP3    H234700   0.503   2.141  12.260  1.0237 -1.1179 -0.4751
 4429TIP3   OH234701   0.734   6.367   2.848 -0.3858 -1.0746  0.4143
 4429TIP3    H134702   0.735   6.314   2.927 -0.3097 -1.3392  0.2364
 4429TIP3    H234703   0.790   6.442   2.869  0.2813 -1.5425  0.3399
 4430TIP3   OH234704   2.034   6.461  14.693  0.0006  0.0410  0.4791
 4430TIP3    H134705   1.978   6.528  14.654 -0.8550 -1.0363 -0.2071
 4430TIP3    H234706   2.123   6.488  14.670 -0.3586  0.6483 -0.2590
 4431TIP3   OH234707   2.259   0.436   5.370  0.0479  0.0106  0.3321
 4431TIP3    H134708   2.240   0.507   5.432 -0.5567  0.1278  0.0173
 4431TIP3    H234709   2.275   0.481   5.287 -2.2547 -0.2876 -0.3391
 4432TIP3   OH234710   4.757   4.058   0.360  0.0633 -0.1401  0.2387
 4432TIP3    H134711   4.779   3.990   0.424  0.2341 -0.2368  0.0789
 4432TIP3    H234712   4.836   4.066   0.306 -0.1375 -0.1778 -0.0629
 4433TIP3   OH234713   1.943   0.902  15.363 -0.0646 -0.1982 -0.1517
 4433TIP3    H134714   1.998   0.854  15.424 -1.8202 -1.9430  0.1669
 4433TIP3    H234715   1.964   0.864  15.277  0.4549  0.3661 -0.2829
 4434TIP3   OH234716   2.004   2.922  14.115  0.3346  0.6360  0.3850
 4434TIP3    H134717   2.088   2.893  14.150  1.1799  1.2413 -1.0301
 4434TIP3    H234718   1.967   2.845  14.072 -0.4026  0.0650  1.9964
 4435TIP3   OH234719   2.968   3.735  14.762  0.1360  0.0879 -0.3140
 4435TIP3    H134720   2.923   3.651  14.772  1.2456 -0.4695  0.1496
 4435TIP3    H234721   2.925   3.793  14.825  0.3651 -0.5764  0.4710
 4436TIP3   OH234722   0.739   6.180   3.979  0.2280 -0.2525 -0.1628
 4436TIP3    H134723   0.688   6.118   4.032 -0.3197 -0.0723 -0.4795
 4436TIP3    H234724   0.758   6.253   4.039 -1.0600  0.3151 -0.4280
 4437TIP3   OH234725   6.617   3.149  17.288 -0.3174 -0.3233 -0.8682
 4437TIP3    H134726   6.632   3.171  17.196  0.8518  1.7140 -0.2420
 4437TIP3    H234727   6.704   3.151  17.327 -0.8976 -0.3562  0.4487
 4438TIP3   OH234728   2.267   1.259   0.496 -0.0942 -0.4183  0.3062
 4438TIP3    H134729   2.268   1.342   0.447  2.8324 -0.1421  0.6886
 4438TIP3    H234730   2.303   1.195   0.435 -1.9936 -1.4219  0.1501
 4439TIP3   OH234731   6.507   1.622  11.306  0.2298  0.4241 -0.1255
 4439TIP3    H134732   6.559   1.609  11.385  1.2873  1.2423 -0.6714
 4439TIP3    H234733   6.471   1.710  11.314  0.4351  0.5569 -0.6018
 4440TIP3   OH234734   1.473   6.585  10.961 -0.2423 -0.2724  0.0684
 4440TIP3    H134735   1.438   6.495  10.962  0.8218 -0.6924  0.4467
 4440TIP3    H234736   1.429   6.626  10.886  0.1382 -1.4749 -0.8576
 4441TIP3   OH234737   5.396   3.593  16.184 -0.2625  0.5197  0.3658
 4441TIP3    H134738   5.436   3.680  16.172 -1.1763  1.1485  1.6756
 4441TIP3    H234739   5.306   3.604  16.153 -0.1409 -0.2261 -0.2829
 4442TIP3   OH234740   4.037   3.973  14.632 -0.3706 -0.5850  0.8011
 4442TIP3    H134741   4.019   3.976  14.726 -1.5341  1.4521  0.5721
 4442TIP3    H234742   4.014   4.061  14.600  0.8447 -0.9390 -1.2455
 4443TIP3   OH234743   1.384   3.217   2.063  0.0690 -0.3507 -0.0491
 4443TIP3    H134744   1.360   3.307   2.086 -1.4371 -0.3451 -1.4476
 4443TIP3    H234745   1.332   3.162   2.121  0.9345 -0.3299  0.7559
 4444TIP3   OH234746   1.460   2.480  12.957  0.1398 -0.1537  0.1848
 4444TIP3    H134747   1.522   2.430  13.010  0.6682 -1.6468 -1.7652
 4444TIP3    H234748   1.374   2.461  12.996  0.6987  0.9070  2.0943
 4445TIP3   OH234749   6.062   1.143  14.491 -0.0383 -0.1808 -0.4994
 4445TIP3    H134750   6.080   1.175  14.580 -0.1712 -0.1491 -0.4833
 4445TIP3    H234751   5.979   1.185  14.467 -0.0764 -0.3027 -0.5825
 4446TIP3   OH234752   0.500   1.754  14.069  0.9350  0.0763 -0.0229
 4446TIP3    H134753   0.518   1.788  14.157  2.1856 -0.7765  0.0893
 4446TIP3    H234754   0.457   1.670  14.085  1.2270 -0.1122 -0.2093
 4447TIP3   OH234755   3.700   2.804  12.431 -0.8659 -0.0962  0.5082
 4447TIP3    H134756   3.789   2.814  12.398 -0.9491  1.2988  0.6554
 4447TIP3    H234757   3.669   2.722  12.393  0.4308 -0.5284  0.3527
 4448TIP3   OH234758   2.944   0.247   4.926 -0.2324  0.2333 -0.4131
 4448TIP3    H134759   2.979   0.159   4.940 -1.0549  0.1520  1.4283
 4448TIP3    H234760   3.005   0.288   4.865 -0.0633 -1.7372 -1.6736
 4449TIP3   OH234761   2.397   4.194   1.086  0.3114 -0.5952  0.5067
 4449TIP3    H134762   2.432   4.162   1.170 -0.1064  0.5095  1.1158
 4449TIP3    H234763   2.302   4.191   1.097  0.2441 -1.0919 -0.1863
 4450TIP3   OH234764   4.340   1.921   1.077 -0.1815  0.2122 -0.0676
 4450TIP3    H134765   4.344   1.831   1.045  1.8141  0.2775 -0.1170
 4450TIP3    H234766   4.293   1.916   1.160  0.8059 -1.0532  0.4427
 4451TIP3   OH234767   1.702   6.229  16.291 -0.2873 -0.1791  0.1868
 4451TIP3    H134768   1.652   6.173  16.231  0.4863 -0.3467 -0.3158
 4451TIP3    H234769   1.692   6.188  16.377  1.0947 -1.7086 -0.3277
 4452TIP3   OH234770   1.966   1.402   4.166 -0.2288 -0.6593 -0.2129
 4452TIP3    H134771   2.060   1.392   4.179  0.1685  0.4278 -1.9123
 4452TIP3    H234772   1.932   1.313   4.166  0.7112 -1.0398  0.9126
 4453TIP3   OH234773   1.317   4.824  12.496  0.1503 -0.4663  0.1041
 4453TIP3    H134774   1.259   4.885  12.450 -2.3947 -3.3693 -0.8479
 4453TIP3    H234775   1.389   4.809  12.434 -1.5470 -1.8044 -1.6441
 4454TIP3   OH234776   5.441   5.316  17.303  0.1606 -0.0065  0.3609
 4454TIP3    H134777   5.511   5.374  17.275  0.1393 -0.2586 -0.2252
 4454TIP3    H234778   5.435   5.329  17.398  2.7001 -1.8193  0.8689
 4455TIP3   OH234779   1.465   3.725   5.901 -0.4128  0.2109 -0.1701
 4455TIP3    H134780   1.427   3.651   5.854 -0.6136  0.3842 -0.2863
 4455TIP3    H234781   1.538   3.754   5.846 -0.3421  0.1067 -0.1306
 4456TIP3   OH234782   4.364   3.125   2.700  0.4242  0.5033  0.8358
 4456TIP3    H134783   4.416   3.202   2.678  0.0844 -0.0096 -2.0655
 4456TIP3    H234784   4.339   3.088   2.616 -1.8298 -1.1745  2.1455
 4457TIP3   OH234785   0.030   4.009   1.318  0.0118  0.2091  0.1394
 4457TIP3    H134786   0.120   4.016   1.347 -0.1913 -0.4551  0.9868
 4457TIP3    H234787  -0.016   3.966   1.391 -0.3290 -2.4275 -1.4618
 4458TIP3   OH234788   3.093   4.675  16.732  0.3990  0.2036  0.1432
 4458TIP3    H134789   3.074   4.765  16.755 -2.0364 -0.0699 -0.4996
 4458TIP3    H234790   3.068   4.668  16.640  2.2884 -0.6968 -0.3475
 4459TIP3   OH234791   5.057   4.281   0.939  0.4634  0.1409 -0.3317
 4459TIP3    H134792   4.979   4.236   0.971  0.6557 -0.6020 -0.8881
 4459TIP3    H234793   5.097   4.318   1.018 -0.2896  0.2977 -0.0053
 4460TIP3   OH234794   5.140   0.330   1.433 -0.3515  0.0106  0.2467
 4460TIP3    H134795   5.215   0.300   1.381 -0.8547  1.6760 -1.5310
 4460TIP3    H234796   5.104   0.249   1.469  0.6831 -1.1262 -1.0998
 4461TIP3   OH234797   5.407   2.982  14.095 -0.1486 -0.4961 -0.3134
 4461TIP3    H134798   5.486   2.993  14.150  0.2111  2.0442 -1.1821
 4461TIP3    H234799   5.438   3.000  14.006 -1.7277  0.7817 -0.6393
 4462TIP3   OH234800   1.464   4.474  14.965 -0.0940  0.3881  0.7656
 4462TIP3    H134801   1.544   4.436  14.929  0.2608  0.7988  1.0999
 4462TIP3    H234802   1.421   4.515  14.890 -0.7157 -1.0365  0.3116
 4463TIP3   OH234803   4.166   4.592  11.289 -0.5539  0.2955  0.0298
 4463TIP3    H134804   4.111   4.616  11.364 -1.5542  0.9077 -0.8632
 4463TIP3    H234805   4.202   4.674  11.258  3.3139 -0.3257  2.2997
 4464TIP3   OH234806   4.308   1.611   0.068  0.2119 -0.5322 -0.0577
 4464TIP3    H134807   4.379   1.553   0.097 -1.5563 -2.5157  0.5525
 4464TIP3    H234808   4.345   1.699   0.076  2.6502 -1.4773  0.0373
 4465TIP3   OH234809   5.631   6.527  14.968  0.6838 -0.5330 -0.4606
 4465TIP3    H134810   5.542   6.526  14.934  0.2520  0.2444  0.6159
 4465TIP3    H234811   5.674   6.453  14.924 -0.1133 -0.1711 -1.9300
 4466TIP3   OH234812   5.382   0.710   1.492 -0.2560  0.3028  0.1397
 4466TIP3    H134813   5.410   0.695   1.582  2.9181 -1.6421 -1.0090
 4466TIP3    H234814   5.341   0.628   1.466 -1.7763  1.0895 -0.0277
 4467TIP3   OH234815   3.921   0.657  12.443 -0.2082 -0.6203  0.2967
 4467TIP3    H134816   3.863   0.587  12.415  0.0968 -0.7349 -0.0650
 4467TIP3    H234817   4.008   0.628  12.415  0.2576 -1.1811  2.1752
 4468TIP3   OH234818   5.810   5.554  16.991 -0.2114 -0.0959  0.4456
 4468TIP3    H134819   5.761   5.483  16.949  1.8602 -0.9752 -0.6211
 4468TIP3    H234820   5.849   5.603  16.918  2.3522 -0.8251  1.2424
 4469TIP3   OH234821   5.566   1.218  13.186  0.2589  0.0204  0.3427
 4469TIP3    H134822   5.541   1.310  13.197 -1.0332 -0.2968  0.1644
 4469TIP3    H234823   5.598   1.212  13.096  1.5126  0.5357  0.7302
 4470TIP3   OH234824   6.595   0.639  10.771  0.4465  0.0854 -0.4257
 4470TIP3    H134825   6.588   0.717  10.717  0.3071  0.8124  0.6035
 4470TIP3    H234826   6.688   0.632  10.790  0.2149  1.5347  1.5871
 4471TIP3   OH234827   5.379   4.578  13.530 -0.6023  0.4923  0.2719
 4471TIP3    H134828   5.298   4.555  13.483 -0.4550  2.2826 -0.9614
 4471TIP3    H234829   5.349   4.611  13.614 -0.9438 -1.5748  1.0312
 4472TIP3   OH234830   2.006   2.263   3.256 -0.2643  0.3084  0.1017
 4472TIP3    H134831   1.934   2.308   3.212  0.8019 -0.4676 -2.5883
 4472TIP3    H234832   2.084   2.309   3.227  0.4552  0.5126  2.2110
 4473TIP3   OH234833   3.930   5.601   0.542 -0.3213  0.1362 -0.4821
 4473TIP3    H134834   3.914   5.629   0.452 -1.4185 -2.5833 -1.2618
 4473TIP3    H234835   3.916   5.679   0.595  0.0092  1.7355 -2.6216
 4474TIP3   OH234836   6.316   2.302  10.961  0.0546 -0.2357  0.1655
 4474TIP3    H134837   6.406   2.275  10.982  0.1495 -0.3844 -0.3929
 4474TIP3    H234838   6.285   2.234  10.901  0.4270  1.0434 -1.5636
 4475TIP3   OH234839   6.489   3.786  12.309  0.1400  0.2196  0.3248
 4475TIP3    H134840   6.540   3.864  12.288 -2.0170  1.0320 -2.4056
 4475TIP3    H234841   6.536   3.715  12.266  1.3894  0.1631  1.7074
 4476TIP3   OH234842   4.267   5.264   4.883 -0.1385 -0.4661 -0.0664
 4476TIP3    H134843   4.302   5.296   4.966 -0.0045 -0.5264 -0.1001
 4476TIP3    H234844   4.213   5.337   4.851  0.5724 -0.0767 -0.3864
 4477TIP3   OH234845   2.408   6.461   2.564 -1.1821 -0.5394  0.1193
 4477TIP3    H134846   2.401   6.556   2.553 -0.2096 -0.4959 -0.1943
 4477TIP3    H234847   2.363   6.425   2.488 -1.7211 -0.3473  0.3353
 4478TIP3   OH234848   1.741   1.544   5.844 -0.0380 -0.2133  0.1420
 4478TIP3    H134849   1.746   1.634   5.813 -0.6888  0.0087  0.6522
 4478TIP3    H234850   1.832   1.516   5.850  0.2577  0.9026  1.3720
 4479TIP3   OH234851   3.974   4.888   4.380 -0.1919 -0.1954 -0.1453
 4479TIP3    H134852   3.926   4.955   4.330  0.9299  0.3256 -0.5506
 4479TIP3    H234853   4.055   4.931   4.406 -0.5464 -0.6183  1.7662
 4480TIP3   OH234854   6.234   3.597  14.344  0.0752  0.0590  0.1758
 4480TIP3    H134855   6.245   3.692  14.356 -0.6688  0.1344  0.2824
 4480TIP3    H234856   6.169   3.589  14.274 -0.4222 -0.3703  0.6769
 4481TIP3   OH234857   0.720   0.160   0.973 -0.4706  0.0698  0.5584
 4481TIP3    H134858   0.639   0.114   0.951  0.3947 -1.7886  1.0529
 4481TIP3    H234859   0.704   0.197   1.060 -1.4828  1.5200 -0.2105
 4482TIP3   OH234860   5.593   0.062   1.235  0.2925  0.8995  0.0440
 4482TIP3    H134861   5.563   0.150   1.259  2.0704  1.4404  0.3968
 4482TIP3    H234862   5.667   0.077   1.176  0.5868 -0.3745  0.0669
 4483TIP3   OH234863   0.910   4.747  13.844  0.2566  0.8698 -0.1296
 4483TIP3    H134864   0.965   4.776  13.916 -0.3810 -0.2667  0.8390
 4483TIP3    H234865   0.828   4.796  13.855 -0.8963 -1.3000  1.6240
 4484TIP3   OH234866   6.305   4.201  12.597 -0.0582 -0.1170 -0.0597
 4484TIP3    H134867   6.214   4.173  12.597  0.0751 -0.5676 -0.3675
 4484TIP3    H234868   6.337   4.179  12.510 -0.0309  1.3199 -0.4351
 4485TIP3   OH234869   0.543   4.586  12.652  0.4541  0.8170 -0.5030
 4485TIP3    H134870   0.457   4.605  12.691  1.1462  1.1824  0.9020
 4485TIP3    H234871   0.561   4.495  12.674  0.8983  1.0577  0.1664
 4486TIP3   OH234872   5.161   5.554   5.853  0.0660  0.5044  0.9997
 4486TIP3    H134873   5.083   5.609   5.858  0.2567  0.7625  1.1613
 4486TIP3    H234874   5.177   5.543   5.760 -0.4655  0.0139  0.9559
 4487TIP3   OH234875   1.088   6.223  12.677  0.1137  0.3020  0.2047
 4487TIP3    H134876   1.038   6.147  12.704 -1.5806  1.3560  0.1718
 4487TIP3    H234877   1.054   6.295  12.731  0.8648  1.2645 -0.5574
 4488TIP3   OH234878   5.591   4.719  13.019  0.7835  0.0768 -0.4767
 4488TIP3    H134879   5.523   4.770  12.976  0.5394  1.9225  1.8902
 4488TIP3    H234880   5.661   4.782  13.036  2.1221 -1.2630 -0.7726
 4489TIP3   OH234881   4.134   4.125  13.793 -0.3281  0.0479  0.0065
 4489TIP3    H134882   4.165   4.182  13.722 -0.5615  0.5425  0.2978
 4489TIP3    H234883   4.198   4.053  13.796  1.0667  1.2681  0.8864
 4490TIP3   OH234884   3.717   1.630  16.175  1.2751  0.0011  0.2456
 4490TIP3    H134885   3.665   1.632  16.095  1.3488 -0.7272  0.1742
 4490TIP3    H234886   3.727   1.537  16.195  2.8006  0.1082  0.0880
 4491TIP3   OH234887   3.700   4.080  16.153 -0.2275  0.0596 -0.0869
 4491TIP3    H134888   3.742   4.146  16.098  0.8178  0.8860  1.6177
 4491TIP3    H234889   3.760   4.067  16.226 -2.0920 -0.0347  1.5436
 4492TIP3   OH234890   2.026   2.023   0.555  0.1430 -0.4424  0.2426
 4492TIP3    H134891   2.000   1.983   0.638 -0.6607 -0.7109 -0.1337
 4492TIP3    H234892   2.009   1.956   0.489 -0.9630  0.3982 -0.3630
 4493TIP3   OH234893   2.575   0.355   4.556 -0.2165  0.4201  0.0644
 4493TIP3    H134894   2.484   0.384   4.558 -0.5637 -0.6098 -0.0012
 4493TIP3    H234895   2.603   0.357   4.647 -0.1658  1.1529  0.0340
 4494TIP3   OH234896   5.857   2.618   5.486  0.2002  0.4377  0.0333
 4494TIP3    H134897   5.896   2.530   5.490  2.3964  1.3738  2.6653
 4494TIP3    H234898   5.891   2.655   5.404  0.1469 -0.7559 -0.5540
 4495TIP3   OH234899   1.650   4.975  13.632  0.4112 -0.1041  0.3521
 4495TIP3    H134900   1.687   4.887  13.622  0.8930  0.2824 -1.8465
 4495TIP3    H234901   1.721   5.027  13.670  0.1709 -0.6188  1.5275
 4496TIP3   OH234902   1.207   4.483  12.371 -0.0107  0.3020 -0.3424
 4496TIP3    H134903   1.193   4.446  12.458  0.5826 -1.4377 -0.9358
 4496TIP3    H234904   1.141   4.441  12.316  0.1327  0.7726 -0.8803
 4497TIP3   OH234905   2.561   4.297  15.149 -0.1331 -0.0772  0.1711
 4497TIP3    H134906   2.491   4.356  15.177  0.3692  0.4909  0.2507
 4497TIP3    H234907   2.515   4.218  15.120 -0.7340 -0.3367  1.7149
 4498TIP3   OH234908   0.369   2.465  11.549  0.3089 -0.0897 -0.2243
 4498TIP3    H134909   0.391   2.480  11.457  1.0167  0.4259  0.0127
 4498TIP3    H234910   0.347   2.552  11.582  2.5860  0.2069  0.7167
 4499TIP3   OH234911   1.162   5.101   6.124  0.1060 -0.3855  0.1317
 4499TIP3    H134912   1.075   5.108   6.161 -0.4268 -0.3369 -1.0631
 4499TIP3    H234913   1.222   5.123   6.196 -0.7824 -1.8484  1.3500
 4500TIP3   OH234914   0.972   6.741  11.852  0.4358 -0.5105 -0.1237
 4500TIP3    H134915   0.974   6.698  11.766  0.6243 -0.9885  0.1135
 4500TIP3    H234916   0.965   6.668  11.915 -2.3578 -0.1138  0.1803
 4501TIP3   OH234917   2.691   2.605   1.476 -0.2697  0.0297  0.0281
 4501TIP3    H134918   2.596   2.607   1.487 -0.4978 -0.9398 -1.4945
 4501TIP3    H234919   2.710   2.682   1.423 -0.5417 -0.9911 -1.6345
 4502TIP3   OH234920   0.596   2.555  14.984 -0.4078  0.0482  0.3683
 4502TIP3    H134921   0.547   2.633  15.011 -2.0750 -0.1173 -1.8784
 4502TIP3    H234922   0.533   2.504  14.931  0.7752 -2.5803  1.3055
 4503TIP3   OH234923   0.851   1.655   2.616  0.0488  0.7347 -0.3659
 4503TIP3    H134924   0.770   1.686   2.656 -0.9218 -1.9855  0.0105
 4503TIP3    H234925   0.914   1.654   2.688 -0.6985 -0.7366  0.3214
 4504TIP3   OH234926   1.412   1.332  11.077 -0.5417 -0.1364  0.4566
 4504TIP3    H134927   1.444   1.361  10.992  0.4339  1.6506  1.3846
 4504TIP3    H234928   1.445   1.243  11.086  0.3407  0.0699 -0.5464
 4505TIP3   OH234929   2.579   3.767   4.634 -0.5101 -0.1501  0.5360
 4505TIP3    H134930   2.537   3.762   4.719  2.0061 -1.3981  1.8208
 4505TIP3    H234931   2.585   3.676   4.605 -1.3339  0.2553 -1.0208
 4506TIP3   OH234932   1.436   2.370   1.707  0.1155 -0.3864  0.0659
 4506TIP3    H134933   1.410   2.443   1.651  1.4233 -0.9185 -1.2945
 4506TIP3    H234934   1.438   2.407   1.795 -1.0465  0.7266 -0.3454
 4507TIP3   OH234935   2.860   3.702   4.070 -0.3017 -0.5602 -0.0456
 4507TIP3    H134936   2.944   3.690   4.025  0.4063  1.8976  0.4380
 4507TIP3    H234937   2.882   3.695   4.163 -1.1179 -2.2104  0.0524
 4508TIP3   OH234938   5.979   2.159   2.479  0.2250  0.5902 -0.1102
 4508TIP3    H134939   5.931   2.125   2.403 -2.4998  1.2993  1.2037
 4508TIP3    H234940   5.995   2.082   2.533  0.1567  0.4203 -0.3264
 4509TIP3   OH234941   5.114   0.310  13.273  0.8266  0.0348 -0.0207
 4509TIP3    H134942   5.161   0.334  13.193 -0.1197  1.4517 -0.1820
 4509TIP3    H234943   5.024   0.334  13.256  0.2188 -1.5577  0.7332
 4510TIP3   OH234944   6.039   0.785  15.862  0.2283  0.6434  0.2574
 4510TIP3    H134945   5.961   0.838  15.880 -0.5931 -0.8028  1.0887
 4510TIP3    H234946   6.101   0.808  15.931  0.2449  1.1845  0.0724
 4511TIP3   OH234947   2.926   2.053   2.736 -0.0972 -0.5887  0.1755
 4511TIP3    H134948   3.014   2.026   2.712 -0.4629 -0.7556 -1.0154
 4511TIP3    H234949   2.871   1.976   2.717 -0.6223 -0.2058  0.1286
 4512TIP3   OH234950   0.627   2.482   1.968  0.5203  0.1704  0.4774
 4512TIP3    H134951   0.684   2.522   2.034  0.8586  0.7158 -0.1435
 4512TIP3    H234952   0.671   2.496   1.885  0.0764 -0.4845  0.1151
 4513TIP3   OH234953   0.099   5.130   0.912 -0.1726 -0.0541 -0.2047
 4513TIP3    H134954   0.011   5.109   0.882 -0.2582 -0.0648  0.0444
 4513TIP3    H234955   0.144   5.045   0.914  0.2730  0.1333 -1.6594
 4514TIP3   OH234956   3.228   3.971   0.379  0.5289 -0.4783  0.1449
 4514TIP3    H134957   3.141   3.939   0.404 -0.6784  1.3495 -1.3973
 4514TIP3    H234958   3.236   4.056   0.422  1.9476 -0.9775  0.9314
 4515TIP3   OH234959   0.884   5.748   0.500 -0.0051 -0.2415 -0.0875
 4515TIP3    H134960   0.843   5.739   0.414  1.5760  0.1807 -0.9206
 4515TIP3    H234961   0.831   5.693   0.557 -0.4751 -1.3737 -1.5428
 4516TIP3   OH234962   6.503   1.445  14.712 -0.1723 -0.1709  0.3417
 4516TIP3    H134963   6.542   1.407  14.633 -0.3237  2.5477 -1.1908
 4516TIP3    H234964   6.578   1.458  14.771  0.0617 -1.5748  0.3684
 4517TIP3   OH234965   4.066   5.528  16.947  0.2951  0.0055 -0.1222
 4517TIP3    H134966   4.119   5.558  17.021  0.9985  0.1058 -0.6485
 4517TIP3    H234967   3.976   5.534  16.977  0.4269  2.1980 -0.0220
 4518TIP3   OH234968   5.159   0.387   3.924 -0.1557  0.1572  0.2431
 4518TIP3    H134969   5.224   0.373   3.856 -0.0423 -1.2129  0.6145
 4518TIP3    H234970   5.089   0.437   3.881  0.3317  0.1121 -0.6160
 4519TIP3   OH234971   5.246   2.978  12.378  0.2459  0.5378  0.5593
 4519TIP3    H134972   5.216   3.004  12.466  2.2262  1.4073  1.0310
 4519TIP3    H234973   5.296   2.898  12.393  2.4222  1.8417  0.6101
 4520TIP3   OH234974   4.002   3.427   4.301 -0.1092  0.1568 -0.1155
 4520TIP3    H134975   4.064   3.365   4.341 -0.0099  0.6258  0.4830
 4520TIP3    H234976   3.974   3.384   4.220 -0.0417 -0.6681  0.2834
 4521TIP3   OH234977   2.029   0.734   0.221 -0.2893 -0.5117  0.0947
 4521TIP3    H134978   2.032   0.828   0.208 -1.2121 -0.3784  0.7410
 4521TIP3    H234979   1.937   0.710   0.205  0.0401 -1.3889 -0.6035
 4522TIP3   OH234980   0.920   6.687   4.718  0.9267  0.3207  0.0451
 4522TIP3    H134981   0.913   6.717   4.627  0.1720  0.1113  0.0255
 4522TIP3    H234982   1.009   6.653   4.725  1.0472  0.4946 -0.5715
 4523TIP3   OH234983   4.847   3.557  12.628  0.5640  1.1548 -0.1734
 4523TIP3    H134984   4.842   3.652  12.626  0.2463  1.1234 -1.0324
 4523TIP3    H234985   4.774   3.530  12.683  0.9056  1.4154  0.4249
 4524TIP3   OH234986   5.684   1.359   0.049  0.3662 -0.1849  0.3137
 4524TIP3    H134987   5.749   1.424   0.022 -1.0951  0.9572 -0.6022
 4524TIP3    H234988   5.731   1.303   0.111  3.0810 -1.1669 -2.3417
 4525TIP3   OH234989   0.220   2.511  15.293  0.3741 -0.0530 -0.4977
 4525TIP3    H134990   0.144   2.460  15.265 -1.0099  0.6748  1.6499
 4525TIP3    H234991   0.226   2.583  15.231 -1.4671  0.5301 -0.0593
 4526TIP3   OH234992   4.288   2.041   0.134  0.4884 -0.3008 -0.4366
 4526TIP3    H134993   4.198   2.026   0.104  0.2531 -0.4461  0.3382
 4526TIP3    H234994   4.337   1.967   0.099  0.2298 -0.4415 -0.5041
 4527TIP3   OH234995   6.378   2.781   3.016  0.2855 -0.0633  0.0356
 4527TIP3    H134996   6.405   2.690   3.014 -1.1966 -0.5246  0.0556
 4527TIP3    H234997   6.359   2.803   2.924 -1.1221 -0.3542  0.2309
 4528TIP3   OH234998   0.608   0.710   1.149 -0.2695 -0.5174 -0.4720
 4528TIP3    H134999   0.594   0.617   1.133 -0.2122 -0.6432  0.1529
 4528TIP3    H235000   0.637   0.745   1.065 -0.0889 -1.1056 -0.6611
 4529TIP3   OH235001   0.090   1.001  11.693  0.1677 -0.2545 -0.2667
 4529TIP3    H135002   0.023   1.056  11.653 -1.4995 -1.9700  0.0050
 4529TIP3    H235003   0.068   1.001  11.786  1.7116  0.6417  0.1348
 4530TIP3   OH235004   1.583   4.558  11.535  0.4729 -0.4632  0.3378
 4530TIP3    H135005   1.495   4.541  11.500 -0.0450 -1.1277  1.8791
 4530TIP3    H235006   1.626   4.610  11.467 -1.3610  0.5041 -0.1432
 4531TIP3   OH235007   3.141   6.217  12.567 -0.7666  0.0891  0.3554
 4531TIP3    H135008   3.146   6.195  12.660 -1.6223 -0.0536  0.3697
 4531TIP3    H235009   3.138   6.133  12.522  0.4565  0.1420  0.1357
 4532TIP3   OH235010   1.793   0.223   1.531  0.0508  0.0470 -0.2227
 4532TIP3    H135011   1.699   0.229   1.515  0.0857 -1.5413 -1.2787
 4532TIP3    H235012   1.809   0.282   1.605 -1.5478  1.3195 -0.8337
 4533TIP3   OH235013   2.203   6.496  14.031  0.5215  0.4554 -0.0256
 4533TIP3    H135014   2.149   6.565  13.994  2.3772  1.4146 -1.0603
 4533TIP3    H235015   2.141   6.426  14.053 -1.1017  1.4542 -1.2354
 4534TIP3   OH235016   3.323   1.849  11.977 -0.6176  0.7120  0.0360
 4534TIP3    H135017   3.260   1.921  11.987 -0.2680  1.1314 -0.6449
 4534TIP3    H235018   3.300   1.787  12.046 -2.7323  0.1357 -1.1188
 4535TIP3   OH235019   2.336   0.414  13.708 -0.1531  0.3126 -0.0985
 4535TIP3    H135020   2.411   0.448  13.757 -0.3718  0.5352  0.0824
 4535TIP3    H235021   2.274   0.385  13.775 -0.5253  0.7736 -0.2349
 4536TIP3   OH235022   1.646   0.113  12.729 -0.0256  0.2873  0.2067
 4536TIP3    H135023   1.599   0.196  12.737 -0.1047  0.0923  2.2965
 4536TIP3    H235024   1.713   0.117  12.797  0.1422 -1.2278  0.1570
 4537TIP3   OH235025   2.533   6.657  12.332 -0.0480 -0.2745 -0.4473
 4537TIP3    H135026   2.606   6.690  12.384 -0.9270  0.6703  0.2084
 4537TIP3    H235027   2.574   6.595  12.271  1.4319  0.9813 -0.7789
 4538TIP3   OH235028   1.939   0.829   1.174 -0.1093 -0.3431 -0.7188
 4538TIP3    H135029   1.848   0.841   1.203  0.6415  0.0671  1.6881
 4538TIP3    H235030   1.968   0.916   1.149 -0.0582 -0.2865 -0.4630
 4539TIP3   OH235031   3.592   1.944  16.930 -0.0605  0.1397  0.1597
 4539TIP3    H135032   3.581   2.013  16.996  0.4874 -0.5270  0.9668
 4539TIP3    H235033   3.545   1.869  16.966  0.2107 -0.2215 -0.2279
 4540TIP3   OH235034   4.357   4.600   5.177  0.8700  0.6192  0.4878
 4540TIP3    H135035   4.367   4.665   5.108 -0.0280  0.2333 -0.0275
 4540TIP3    H235036   4.324   4.648   5.252 -1.0482  0.5889 -0.2806
 4541TIP3   OH235037   6.079   3.830  11.041 -0.5652 -0.1918  0.8472
 4541TIP3    H135038   6.082   3.891  10.968  0.3423 -2.0170 -0.7427
 4541TIP3    H235039   5.999   3.780  11.027 -1.0614  0.2801  1.8706
 4542TIP3   OH235040   4.463   1.595  13.175 -0.7768  0.6838  0.0946
 4542TIP3    H135041   4.475   1.521  13.116  0.4013  1.1218 -0.2454
 4542TIP3    H235042   4.543   1.598  13.227 -2.3322 -0.5439  2.7570
 4543TIP3   OH235043   4.218   3.279  13.550 -0.3148  0.2281  0.4860
 4543TIP3    H135044   4.177   3.265  13.465  2.5442 -1.6655 -0.7386
 4543TIP3    H235045   4.158   3.239  13.613 -0.4821 -2.4195 -1.1915
 4544TIP3   OH235046   3.355   6.141  11.342  0.5011 -0.5554  0.4110
 4544TIP3    H135047   3.269   6.131  11.381  0.6112  0.1678  0.8465
 4544TIP3    H235048   3.349   6.222  11.292 -0.0633 -2.1099 -2.2343
 4545TIP3   OH235049   3.971   6.471  16.538 -0.5090  0.5798 -0.0464
 4545TIP3    H135050   3.940   6.542  16.481  0.2856  0.1802 -0.9805
 4545TIP3    H235051   4.005   6.405  16.479 -0.1163 -0.0607  0.8743
 4546TIP3   OH235052   3.172   1.099   3.981  0.1606 -0.4447 -0.4054
 4546TIP3    H135053   3.260   1.135   3.996 -1.1046  2.2316  1.7037
 4546TIP3    H235054   3.146   1.134   3.896 -0.5236  2.8880  1.0233
 4547TIP3   OH235055   1.794   4.856  15.679 -0.3613  0.0002 -0.5480
 4547TIP3    H135056   1.706   4.844  15.644 -0.5525 -2.0094  0.4719
 4547TIP3    H235057   1.852   4.812  15.617 -0.1465  0.6092 -0.7919
 4548TIP3   OH235058   5.537   2.517   3.404 -0.2625 -0.6076 -0.1469
 4548TIP3    H135059   5.544   2.461   3.481 -0.6457 -2.3660 -1.3210
 4548TIP3    H235060   5.627   2.540   3.382 -0.1733  0.1874  0.9973
 4549TIP3   OH235061   5.447   0.493  11.428 -0.1152 -0.2671  0.7098
 4549TIP3    H135062   5.477   0.535  11.348  0.9451 -1.3735  0.4991
 4549TIP3    H235063   5.353   0.482  11.415 -0.0296 -0.0243 -0.1866
 4550TIP3   OH235064   0.411   4.048  11.083 -0.1457 -0.3869  0.6396
 4550TIP3    H135065   0.487   4.038  11.026 -0.0997 -0.1295  0.6513
 4550TIP3    H235066   0.372   4.132  11.056  0.9842  0.7290  2.2677
 4551TIP3   OH235067   0.326   3.749  14.950 -0.3741 -0.6413 -0.2398
 4551TIP3    H135068   0.261   3.719  14.886 -1.3206  2.4235 -0.8882
 4551TIP3    H235069   0.409   3.713  14.918 -1.2934 -1.9579 -1.2522
 4552TIP3   OH235070   5.951   5.400   0.733 -0.6284  0.1876 -0.1646
 4552TIP3    H135071   5.882   5.335   0.720 -0.0643 -0.3175 -0.7682
 4552TIP3    H235072   6.016   5.356   0.787 -0.0429  0.0889 -0.9324
 4553TIP3   OH235073   4.401   3.076   5.705 -0.9419 -0.3760 -0.2038
 4553TIP3    H135074   4.318   3.031   5.693 -2.5216  2.5893 -1.3355
 4553TIP3    H235075   4.449   3.059   5.624 -2.2708  1.2962 -1.4087
 4554TIP3   OH235076   6.054   3.667   3.029 -0.2144  0.9984  0.0850
 4554TIP3    H135077   6.083   3.602   3.092  2.1897  1.1452 -0.7886
 4554TIP3    H235078   5.966   3.638   3.004 -0.3928 -0.2038  1.9077
 4555TIP3   OH235079   6.613   3.320  13.147 -0.0722 -0.0699 -0.9882
 4555TIP3    H135080   6.639   3.392  13.090 -1.4407  1.7887  0.6231
 4555TIP3    H235081   6.530   3.289  13.110 -0.5311  0.5769 -0.5184
 4556TIP3   OH235082   2.068   2.943   0.660 -0.4788 -0.1738  0.2579
 4556TIP3    H135083   2.035   2.904   0.741 -0.7640 -0.0250  0.2146
 4556TIP3    H235084   1.995   2.936   0.598 -0.5173  0.3844  0.2349
 4557TIP3   OH235085   0.695   5.511  14.493 -0.8308 -0.1094  0.0059
 4557TIP3    H135086   0.688   5.592  14.544  1.4525  0.5759 -0.6686
 4557TIP3    H235087   0.611   5.466  14.507 -1.9896  2.1629  0.7159
 4558TIP3   OH235088   0.184   4.898  13.119 -0.0075 -0.1561 -0.0571
 4558TIP3    H135089   0.090   4.918  13.118  0.0716  0.2582  0.5370
 4558TIP3    H235090   0.189   4.803  13.108 -0.5031 -0.1983  0.0837
 4559TIP3   OH235091   2.295   2.067   0.540 -0.3104  0.0184  0.0620
 4559TIP3    H135092   2.319   1.975   0.530 -1.9027 -0.5502  1.0755
 4559TIP3    H235093   2.200   2.066   0.549 -0.4705  1.8807 -0.9831
 4560TIP3   OH235094   0.155   0.792   4.640 -0.0075 -0.0023  0.2579
 4560TIP3    H135095   0.236   0.838   4.620  0.0813 -0.2727 -0.0079
 4560TIP3    H235096   0.115   0.844   4.710 -1.9204  2.8626 -2.6486
 4561TIP3   OH235097   1.821   4.769  13.662 -0.2300  0.0173  0.2594
 4561TIP3    H135098   1.782   4.717  13.732  0.0869 -2.1195 -1.0653
 4561TIP3    H235099   1.909   4.734  13.651 -0.1542  0.5290 -0.9827
 4562TIP3   OH235100   4.206   4.264  12.904  0.8096 -0.3464  0.4691
 4562TIP3    H135101   4.200   4.238  12.812 -1.7143  0.3726  0.3530
 4562TIP3    H235102   4.227   4.357  12.902  1.6817 -0.5210  0.6886
 4563TIP3   OH235103   1.552   2.572   0.350 -0.0841 -0.1247  0.6048
 4563TIP3    H135104   1.523   2.576   0.259 -1.1428 -0.7307  0.8981
 4563TIP3    H235105   1.639   2.534   0.346 -0.1738 -0.2633 -0.1502
 4564TIP3   OH235106   0.855   4.969   1.028  0.1968 -0.4566  0.1819
 4564TIP3    H135107   0.919   5.031   0.994  2.1881 -1.0340  2.5926
 4564TIP3    H235108   0.798   5.022   1.084  1.6699 -0.6622  1.9472
 4565TIP3   OH235109   0.734   4.901  15.886  0.0381 -0.1566 -0.5411
 4565TIP3    H135110   0.689   4.978  15.922  0.5494  0.4785 -1.2437
 4565TIP3    H235111   0.670   4.830  15.895 -0.5028  0.3779 -0.0357
 4566TIP3   OH235112   1.870   6.603   3.826 -0.1222 -0.2097 -0.3248
 4566TIP3    H135113   1.876   6.644   3.912 -1.6545 -0.7537  0.0698
 4566TIP3    H235114   1.953   6.557   3.815 -0.3544 -1.1028  1.3785
 4567TIP3   OH235115   3.903   2.238  14.463 -0.5058  0.3738 -0.4352
 4567TIP3    H135116   3.971   2.288  14.507 -1.1228 -1.2815  2.7168
 4567TIP3    H235117   3.833   2.302  14.446  0.1666  1.2708  0.0958
 4568TIP3   OH235118   4.801   0.802  13.515 -0.0555 -0.1346  0.2036
 4568TIP3    H135119   4.888   0.837  13.534 -0.1157 -0.4271  1.0614
 4568TIP3    H235120   4.814   0.708  13.503 -0.2637 -0.1946  0.4316
 4569TIP3   OH235121   5.833   5.690  11.274 -0.3883  0.0261 -0.3384
 4569TIP3    H135122   5.880   5.754  11.221 -1.9996  1.5164 -0.0411
 4569TIP3    H235123   5.840   5.608  11.225  3.0065 -0.0334  0.0023
 4570TIP3   OH235124   1.150   0.306  16.719  0.0799  0.3098  0.4793
 4570TIP3    H135125   1.214   0.235  16.720 -1.2995 -0.9747  1.5126
 4570TIP3    H235126   1.135   0.323  16.626  1.2967  0.0696  0.2233
 4571TIP3   OH235127   1.216   4.370   3.436  0.0470  0.0896  0.2107
 4571TIP3    H135128   1.277   4.340   3.369  1.1841  0.5776  0.9994
 4571TIP3    H235129   1.188   4.289   3.480 -0.5132 -0.2075 -0.6742
 4572TIP3   OH235130   1.802   3.085  13.276 -0.0933  0.3214 -0.2248
 4572TIP3    H135131   1.868   3.141  13.235  0.0439 -0.7573 -1.5690
 4572TIP3    H235132   1.733   3.076  13.210 -0.1138 -1.0483 -0.0567
 4573TIP3   OH235133   5.746   4.233  11.877 -0.3116 -0.0161  0.5985
 4573TIP3    H135134   5.807   4.283  11.932  2.7614 -1.8443 -0.8566
 4573TIP3    H235135   5.741   4.147  11.919 -0.6494 -0.3768 -0.1613
 4574TIP3   OH235136   5.011   6.353  11.841  0.3285 -0.0424 -0.1783
 4574TIP3    H135137   5.074   6.325  11.908  0.0421 -1.6695 -0.5291
 4574TIP3    H235138   4.926   6.329  11.877  0.2210 -1.6796 -1.3896
 4575TIP3   OH235139   5.344   0.231   3.181  0.3817 -0.4237  0.0996
 4575TIP3    H135140   5.438   0.243   3.176  0.6715 -1.6353  1.5970
 4575TIP3    H235141   5.324   0.234   3.275 -0.6847 -2.4278  0.0073
 4576TIP3   OH235142   2.744   2.033   4.171  0.4185 -0.0145 -0.0314
 4576TIP3    H135143   2.808   2.000   4.107 -0.4352 -0.9780 -0.4110
 4576TIP3    H235144   2.790   2.030   4.255  1.2780  0.4885 -0.4698
 4577TIP3   OH235145   0.970   4.266  12.424  0.4382 -0.4475 -0.5401
 4577TIP3    H135146   1.022   4.191  12.453 -0.1667 -0.7751 -0.2911
 4577TIP3    H235147   0.975   4.329  12.496 -0.0751 -0.7642 -0.2247
 4578TIP3   OH235148   1.788   4.291  11.224  0.1515 -0.1974  0.2595
 4578TIP3    H135149   1.870   4.251  11.195 -0.5247 -1.0961 -0.5041
 4578TIP3    H235150   1.758   4.341  11.148 -0.8572 -1.3028 -0.1089
 4579TIP3   OH235151   1.136   1.653   1.696  0.2897 -0.4109 -0.4612
 4579TIP3    H135152   1.163   1.624   1.609  1.0769  0.7323 -0.6200
 4579TIP3    H235153   1.042   1.632   1.700  0.6207 -2.1398 -0.8637
 4580TIP3   OH235154   2.094   6.680   5.085 -0.1029  0.2031  0.3664
 4580TIP3    H135155   2.108   6.760   5.135 -1.1444  0.3819  0.3864
 4580TIP3    H235156   2.160   6.619   5.119 -0.0622  0.6746  1.1621
 4581TIP3   OH235157   5.954   5.943  11.771  0.1852  0.0458 -0.2962
 4581TIP3    H135158   5.981   6.020  11.722  0.4160 -0.3265 -0.7647
 4581TIP3    H235159   5.860   5.954  11.783  0.1249  0.1505 -0.8217
 4582TIP3   OH235160   5.346   4.390  11.921 -0.0710 -0.0173 -0.4335
 4582TIP3    H135161   5.280   4.328  11.892 -1.9066  0.7612  1.7781
 4582TIP3    H235162   5.325   4.471  11.874 -0.7471  0.2241  0.2524
 4583TIP3   OH235163   4.043   0.436  16.455 -0.3836  0.0154 -0.2235
 4583TIP3    H135164   4.085   0.461  16.373  0.6461 -0.1004  0.2501
 4583TIP3    H235165   4.002   0.517  16.487 -0.6428  0.0990 -0.7520
 4584TIP3   OH235166   3.171   6.718   0.555 -0.1312 -0.3176 -0.2300
 4584TIP3    H135167   3.203   6.784   0.617 -0.9275 -0.2822  0.1566
 4584TIP3    H235168   3.166   6.764   0.471  0.8804 -0.3452 -0.3166
 4585TIP3   OH235169   5.069   1.092  12.163  0.5884 -0.1762 -0.0721
 4585TIP3    H135170   5.137   1.115  12.099  1.6008  0.5545  1.2257
 4585TIP3    H235171   5.035   1.176  12.193  0.8690 -0.4760  1.1206
 4586TIP3   OH235172   2.079   0.726  13.259 -0.0875  0.3324  0.4575
 4586TIP3    H135173   2.172   0.735  13.238  0.5166 -1.6121  1.8969
 4586TIP3    H235174   2.037   0.802  13.220  1.8221  0.3125 -1.8514
 4587TIP3   OH235175   1.433   3.497  16.540  0.1102 -0.0032  0.2750
 4587TIP3    H135176   1.358   3.452  16.579 -0.5639  1.7175  1.0544
 4587TIP3    H235177   1.505   3.480  16.601  0.2392 -1.1717 -0.1735
 4588TIP3   OH235178   0.232   3.675   2.433  0.1237  0.5954 -0.1985
 4588TIP3    H135179   0.216   3.604   2.495  3.4855  0.9801  1.3437
 4588TIP3    H235180   0.194   3.753   2.475  2.4991  0.8830  1.6374
 4589TIP3   OH235181   5.975   2.649   3.974 -0.5860 -0.0717 -0.4696
 4589TIP3    H135182   6.034   2.574   3.961 -2.2454 -1.4471 -0.3608
 4589TIP3    H235183   5.978   2.696   3.891  0.5321 -0.1849 -0.5182
 4590TIP3   OH235184   2.105   3.306  12.663  0.2441 -0.1318 -0.2058
 4590TIP3    H135185   2.176   3.366  12.640 -0.8865  2.2387  2.0045
 4590TIP3    H235186   2.027   3.345  12.624 -0.3744 -0.7780  0.3682
 4591TIP3   OH235187   1.477   6.352  11.379  0.0495 -0.1053  0.0274
 4591TIP3    H135188   1.479   6.301  11.298  1.3715 -0.5926  0.3338
 4591TIP3    H235189   1.562   6.395  11.383 -0.2441  0.4386  0.8424
 4592TIP3   OH235190   6.523   1.208   2.606 -0.3526  0.2264 -0.2106
 4592TIP3    H135191   6.589   1.276   2.620  1.2104 -1.2910  0.2456
 4592TIP3    H235192   6.449   1.235   2.660 -0.3842  2.3102 -1.2220
 4593TIP3   OH235193   4.646   0.026   5.977 -0.3465  0.6916  0.2862
 4593TIP3    H135194   4.675   0.107   6.019  0.5488  0.5351 -0.0033
 4593TIP3    H235195   4.569   0.051   5.926 -0.9138  1.0665  1.3067
 4594TIP3   OH235196   1.846   1.200  14.004  0.0685 -0.5766 -0.5504
 4594TIP3    H135197   1.853   1.155  14.088 -0.0599 -1.7416 -1.1457
 4594TIP3    H235198   1.805   1.284  14.026 -2.6160 -1.9552  0.2201
 4595TIP3   OH235199   0.481   4.567  13.289  0.5675  0.7174  0.4288
 4595TIP3    H135200   0.535   4.497  13.327  1.1365  2.1670  2.4758
 4595TIP3    H235201   0.397   4.559  13.333  0.3690  0.8321  0.0736
 4596TIP3   OH235202   0.105   3.580   0.553  0.0530  0.4983 -0.6052
 4596TIP3    H135203   0.148   3.495   0.554 -1.1166 -0.1147 -0.1140
 4596TIP3    H235204   0.122   3.615   0.466 -1.8607 -1.5301 -1.9050
 4597TIP3   OH235205   4.077   3.326  12.141  0.5769 -0.7219 -0.1078
 4597TIP3    H135206   3.998   3.365  12.178  1.0522  0.9173 -0.7568
 4597TIP3    H235207   4.050   3.237  12.115 -1.4961  0.3119 -1.7709
 4598TIP3   OH235208   3.188   1.722  14.832  0.3648 -0.4879 -0.6967
 4598TIP3    H135209   3.177   1.652  14.768  0.0991  0.2156 -1.4360
 4598TIP3    H235210   3.111   1.776  14.822  0.2093 -0.4838  0.3917
 4599TIP3   OH235211   4.900   0.908  15.390 -0.4503 -0.0954  0.2366
 4599TIP3    H135212   4.976   0.850  15.382 -0.8185 -0.5927  0.3371
 4599TIP3    H235213   4.874   0.927  15.300  1.0342  1.7459  0.1165
 4600TIP3   OH235214   0.954   2.739   1.824 -0.5760  0.0631  0.4376
 4600TIP3    H135215   0.884   2.780   1.875 -0.6316  1.9993 -1.0581
 4600TIP3    H235216   0.995   2.677   1.884 -2.2168  0.4099  2.0060
 4601TIP3   OH235217   5.806   1.643  15.903 -0.2611 -0.0635  0.0360
 4601TIP3    H135218   5.815   1.706  15.975  1.5423 -0.7022  0.4291
 4601TIP3    H235219   5.886   1.590  15.908 -1.3455 -1.8645 -0.7766
 4602TIP3   OH235220   5.379   6.220   3.901 -0.2441 -0.3248  0.0481
 4602TIP3    H135221   5.329   6.301   3.888 -1.3912 -1.1662 -1.0350
 4602TIP3    H235222   5.457   6.232   3.847 -0.2371  0.1936  0.1647
 4603TIP3   OH235223   2.772   6.286   1.653  0.3524  0.5236 -0.4900
 4603TIP3    H135224   2.836   6.234   1.702 -0.1866 -0.5593 -0.9123
 4603TIP3    H235225   2.687   6.257   1.686  0.0339  3.3238  1.4850
 4604TIP3   OH235226   3.884   3.615  11.302 -0.3057 -0.1954  0.3574
 4604TIP3    H135227   3.804   3.564  11.293 -0.0520 -0.6466  0.6038
 4604TIP3    H235228   3.954   3.551  11.287  0.0035  0.7892 -2.9739
 4605TIP3   OH235229   6.016   2.945  14.259 -0.5352 -0.1836 -0.5855
 4605TIP3    H135230   6.002   3.012  14.191 -1.9795  0.8023  0.6292
 4605TIP3    H235231   5.949   2.963  14.324  0.1520 -1.7803  0.6089
 4606TIP3   OH235232   1.648   4.465   0.281  0.5066  0.4032 -0.0718
 4606TIP3    H135233   1.639   4.409   0.359 -1.2856  1.1821  0.3192
 4606TIP3    H235234   1.739   4.453   0.255  1.2824  0.3837  2.3477
 4607TIP3   OH235235   6.079   6.657  16.765 -0.6746 -0.0645 -0.4675
 4607TIP3    H135236   6.118   6.580  16.806  1.3506  0.7460 -0.7714
 4607TIP3    H235237   6.153   6.714  16.744 -2.1623  3.1192  1.9723
 4608TIP3   OH235238   0.090   0.328   0.523  0.8216 -1.2581  0.1645
 4608TIP3    H135239   0.054   0.413   0.498  0.6446 -0.6933  2.1822
 4608TIP3    H235240   0.121   0.290   0.440  1.4228  1.0032 -0.7280
 4609TIP3   OH235241   1.292   5.008  15.262 -0.8619 -0.1908 -0.0072
 4609TIP3    H135242   1.292   4.929  15.209 -0.1233 -1.3436  1.6370
 4609TIP3    H235243   1.255   4.981  15.346 -0.4019  1.1536  0.6652
 4610TIP3   OH235244   1.494   2.478  13.256 -0.0914  0.3238 -0.0385
 4610TIP3    H135245   1.425   2.416  13.232 -0.7206  0.8759  0.2724
 4610TIP3    H235246   1.446   2.560  13.274  0.4408  0.2418  1.9768
 4611TIP3   OH235247   2.756   3.250   2.959  0.2285 -0.0655 -0.1118
 4611TIP3    H135248   2.731   3.193   3.032  0.0614 -1.0399 -0.9043
 4611TIP3    H235249   2.722   3.336   2.984 -0.9899 -0.6540  0.3655
 4612TIP3   OH235250   5.721   2.422  16.744  0.1195  0.4762  0.5985
 4612TIP3    H135251   5.631   2.441  16.717 -0.3401 -1.1867  0.8793
 4612TIP3    H235252   5.771   2.498  16.714 -1.1309  0.7700 -0.8653
 4613TIP3   OH235253   0.759   4.095  16.347 -0.2785 -0.2839 -0.1019
 4613TIP3    H135254   0.802   4.010  16.339  0.6161  0.0757  0.6618
 4613TIP3    H235255   0.713   4.090  16.431  0.0020  0.0732  0.0762
 4614TIP3   OH235256   5.950   3.644  11.791 -0.1744  0.3308 -0.1377
 4614TIP3    H135257   5.863   3.681  11.778 -0.4702 -0.3425 -0.1220
 4614TIP3    H235258   6.006   3.720  11.805 -0.7712  0.7708 -0.0663
 4615TIP3   OH235259   3.492   4.204   2.527  0.1342 -0.2041 -0.0867
 4615TIP3    H135260   3.458   4.118   2.502  1.6198 -0.8434 -0.0029
 4615TIP3    H235261   3.577   4.186   2.567  0.2980  1.2759  0.2997
 4616TIP3   OH235262   2.441   6.043   0.621  0.2552 -0.0473 -0.3415
 4616TIP3    H135263   2.409   6.015   0.535  1.3150  0.5416 -0.9546
 4616TIP3    H235264   2.535   6.029   0.617  0.4470  0.9715  0.3384
 4617TIP3   OH235265   0.663   1.469   5.880  0.0275  0.3098 -0.3982
 4617TIP3    H135266   0.698   1.466   5.791  0.9910 -0.0069 -0.0264
 4617TIP3    H235267   0.623   1.555   5.887 -0.4682  0.1624 -1.2876
 4618TIP3   OH235268   0.519   4.212   4.120 -0.5298  0.2328  0.2944
 4618TIP3    H135269   0.507   4.118   4.134  0.5987  0.2736  1.7636
 4618TIP3    H235270   0.500   4.225   4.027  1.3779 -1.8044 -0.4668
 4619TIP3   OH235271   3.399   4.306  16.485 -0.0350 -0.2559 -0.5527
 4619TIP3    H135272   3.319   4.274  16.526  1.3808 -0.6220  2.1223
 4619TIP3    H235273   3.440   4.227  16.448  0.2456 -0.4759  0.2120
 4620TIP3   OH235274   4.153   6.659   3.325  0.6202  0.5195  0.3094
 4620TIP3    H135275   4.079   6.603   3.347 -0.4527  1.0367 -1.7205
 4620TIP3    H235276   4.119   6.748   3.333  0.5390  0.7488 -2.0045
 4621TIP3   OH235277   2.122   3.608   3.389  0.5452 -0.3114 -0.1997
 4621TIP3    H135278   2.131   3.671   3.461  0.2423  0.1823 -0.5865
 4621TIP3    H235279   2.142   3.659   3.310  0.4050 -0.7268 -0.5048
 4622TIP3   OH235280   0.617   4.053  11.759  0.3575  0.1267 -0.0178
 4622TIP3    H135281   0.587   3.972  11.717 -0.1986  0.6328 -0.6141
 4622TIP3    H235282   0.625   4.030  11.851  2.4511 -1.2661 -0.4628
 4623TIP3   OH235283   5.717   4.754  11.502 -0.2337  0.8278  0.0072
 4623TIP3    H135284   5.748   4.679  11.451 -1.7936 -0.8764  1.4274
 4623TIP3    H235285   5.650   4.794  11.447 -0.1064  0.5718 -0.3369
 4624TIP3   OH235286   1.305   3.541   4.258 -0.1000 -0.0477 -0.1128
 4624TIP3    H135287   1.213   3.528   4.235  0.1662 -0.6734 -0.8669
 4624TIP3    H235288   1.302   3.599   4.334 -1.0479  1.3122 -1.1402
 4625TIP3   OH235289   1.129   5.232  15.780 -0.0130 -0.1476  0.1591
 4625TIP3    H135290   1.216   5.251  15.746 -0.9583 -0.9251 -2.9660
 4625TIP3    H235291   1.080   5.312  15.767 -0.4807 -0.5605 -0.6645
 4626TIP3   OH235292   6.609   3.116   6.351  0.0433 -0.0906 -0.3295
 4626TIP3    H135293   6.687   3.078   6.310  0.1490 -0.1747 -0.0496
 4626TIP3    H235294   6.544   3.118   6.281 -0.4876 -2.2376  0.0307
 4627TIP3   OH235295   6.542   5.195   1.341  0.3000  0.0815  0.2702
 4627TIP3    H135296   6.631   5.231   1.343  0.8032 -1.0071 -1.0137
 4627TIP3    H235297   6.507   5.213   1.428  1.7261  0.6585  0.7565
 4628TIP3   OH235298   1.132   2.043  12.629 -0.0240 -0.0935 -0.6457
 4628TIP3    H135299   1.109   1.982  12.558  0.3595 -0.0524 -0.8080
 4628TIP3    H235300   1.217   2.013  12.660 -0.4188 -0.4154  0.1438
 4629TIP3   OH235301   3.187   4.965   2.163 -0.3396 -0.0927 -0.0720
 4629TIP3    H135302   3.243   5.041   2.176  1.0237 -1.1215  0.2038
 4629TIP3    H235303   3.106   4.987   2.209 -0.9259  2.1827 -2.0304
 4630TIP3   OH235304   1.954   1.814  15.758  0.0590  0.1876  0.4393
 4630TIP3    H135305   1.924   1.874  15.827 -1.9007 -1.1321  0.8270
 4630TIP3    H235306   1.885   1.818  15.691  0.7389 -0.3702 -0.3192
 4631TIP3   OH235307   1.598   1.488   3.439  0.2384 -0.1431 -0.1711
 4631TIP3    H135308   1.681   1.450   3.468  0.0611  0.4549  1.2100
 4631TIP3    H235309   1.561   1.422   3.380  1.6663 -0.4340 -0.7897
 4632TIP3   OH235310   1.083   3.704  16.659 -0.3000 -0.4511 -0.2238
 4632TIP3    H135311   1.099   3.790  16.622  1.0708 -0.9303 -0.8008
 4632TIP3    H235312   1.108   3.711  16.751 -1.6246  0.1437  0.1195
 4633TIP3   OH235313   2.765   4.643   4.880  0.0823  0.1876  0.4068
 4633TIP3    H135314   2.712   4.615   4.955 -2.3451  0.0411 -1.2280
 4633TIP3    H235315   2.761   4.569   4.819  1.9535  0.3255  0.0711
 4634TIP3   OH235316   3.998   5.420  16.552 -0.7255  0.5561  0.6121
 4634TIP3    H135317   3.976   5.509  16.526  0.4366 -0.1591 -3.4609
 4634TIP3    H235318   4.082   5.428  16.597 -0.0066  1.4704 -0.8149
 4635TIP3   OH235319   5.098   5.705  16.555  0.1106  0.7666  0.1480
 4635TIP3    H135320   5.022   5.729  16.501  0.6375 -0.5130 -1.2505
 4635TIP3    H235321   5.171   5.753  16.515  0.8082 -1.4440 -1.4321
 4636TIP3   OH235322   1.646   5.339   0.561 -0.0241 -0.3174 -0.2763
 4636TIP3    H135323   1.619   5.392   0.486  0.4003  2.3347  1.2823
 4636TIP3    H235324   1.565   5.314   0.604 -0.2272 -0.7357 -0.8975
 4637TIP3   OH235325   3.567   5.356  12.388 -0.5371 -0.4261  0.3355
 4637TIP3    H135326   3.557   5.399  12.473  0.8692 -1.5193  1.0959
 4637TIP3    H235327   3.631   5.409  12.341  0.0761 -0.8231  0.6998
 4638TIP3   OH235328   0.768   2.074   0.552 -0.6163  0.0033  0.4275
 4638TIP3    H135329   0.719   2.051   0.473 -0.2122 -0.1314  0.2137
 4638TIP3    H235330   0.720   2.148   0.589  0.3177  1.4167 -1.0447
 4639TIP3   OH235331   1.199   4.781   6.179 -0.0203  0.3025 -0.3030
 4639TIP3    H135332   1.184   4.863   6.132 -0.9039 -0.2446 -1.0144
 4639TIP3    H235333   1.112   4.754   6.209  0.2600 -0.3634 -0.0607
 4640TIP3   OH235334   5.650   2.215  13.365  0.4508  0.0894 -0.0345
 4640TIP3    H135335   5.740   2.230  13.338  1.0649 -2.6664  0.1737
 4640TIP3    H235336   5.656   2.150  13.434 -1.7495 -1.7093 -1.3971
 4641TIP3   OH235337   2.094   3.160   4.059 -0.6897  0.2497 -0.3031
 4641TIP3    H135338   2.161   3.191   4.119  0.5378 -1.2235 -0.8543
 4641TIP3    H235339   2.143   3.131   3.982 -1.9172 -1.2833 -0.5403
 4642TIP3   OH235340   4.314   4.749  15.005 -0.2881 -0.0061  0.2278
 4642TIP3    H135341   4.320   4.807  14.930 -2.2210  0.5089  0.3999
 4642TIP3    H235342   4.357   4.668  14.977 -2.1357 -0.3400 -1.9961
 4643TIP3   OH235343   4.161   3.357  10.748  0.6099  0.5049  0.2016
 4643TIP3    H135344   4.090   3.369  10.685 -3.4394 -3.5080  3.2556
 4643TIP3    H235345   4.159   3.436  10.802  0.6818  1.7955 -1.6211
 4644TIP3   OH235346   2.809   0.693  16.213  0.1396 -0.3491  0.2001
 4644TIP3    H135347   2.827   0.616  16.267  0.0941 -1.3411 -1.1501
 4644TIP3    H235348   2.721   0.678  16.179  0.4820 -0.1391 -0.7924
 4645TIP3   OH235349   5.942   1.796  14.487  0.4950 -0.1972 -1.0283
 4645TIP3    H135350   5.984   1.854  14.423  1.0165 -0.8086 -1.2492
 4645TIP3    H235351   5.854   1.832  14.498  0.8481  0.7145 -1.0645
 4646TIP3   OH235352   1.922   1.302  11.947 -0.6952  0.2818  0.2943
 4646TIP3    H135353   1.855   1.354  11.991 -0.0613 -0.3336  2.0814
 4646TIP3    H235354   1.929   1.222  12.000  1.2401  0.2044  0.0009
 4647TIP3   OH235355   6.583   0.535  13.596 -0.0780 -0.4946  0.0628
 4647TIP3    H135356   6.544   0.571  13.675  0.1853 -1.4460  0.6478
 4647TIP3    H235357   6.509   0.508  13.542 -0.2491 -1.1916  0.6411
 4648TIP3   OH235358   2.439   2.595   2.410 -0.5169  0.3512  0.1065
 4648TIP3    H135359   2.515   2.565   2.461  0.7448  3.1048  0.0297
 4648TIP3    H235360   2.468   2.589   2.319 -1.7318 -1.8267 -0.2100
 4649TIP3   OH235361   0.923   0.404  16.033  0.7030  0.1583  0.2082
 4649TIP3    H135362   0.893   0.360  16.112  0.0370 -1.0981 -0.7042
 4649TIP3    H235363   1.019   0.399  16.037  0.6762 -2.7772 -0.5569
 4650TIP3   OH235364   3.072   3.559  16.926 -0.4217  0.0655  0.2579
 4650TIP3    H135365   3.161   3.591  16.944 -0.3223 -0.1750  0.1986
 4650TIP3    H235366   3.016   3.610  16.984 -0.5326  2.0102 -1.4240
 4651TIP3   OH235367   0.114   2.841   5.654  0.1829  0.2684 -0.0403
 4651TIP3    H135368   0.074   2.775   5.597 -0.6418  1.1555 -0.5049
 4651TIP3    H235369   0.187   2.876   5.603 -1.2405  1.8713 -1.0666
 4652TIP3   OH235370   6.592   3.428   2.263  0.2962 -0.2633 -0.2427
 4652TIP3    H135371   6.686   3.420   2.248  0.7998  0.4611  2.1340
 4652TIP3    H235372   6.560   3.479   2.188  1.5049 -1.6652 -1.7838
 4653TIP3   OH235373   5.693   3.168   2.740 -0.0453  0.1024  0.2885
 4653TIP3    H135374   5.603   3.197   2.725  0.6385  0.7944 -3.4241
 4653TIP3    H235375   5.683   3.086   2.790 -2.5926  0.9405  1.3419
 4654TIP3   OH235376   3.702   1.171  11.576  0.5494 -0.3278 -0.2143
 4654TIP3    H135377   3.697   1.221  11.495 -0.6949 -0.1314 -0.0437
 4654TIP3    H235378   3.783   1.120  11.569  0.2946 -0.5581 -1.7146
 4655TIP3   OH235379   2.185   6.716   0.560  0.1276  0.4044 -0.5248
 4655TIP3    H135380   2.094   6.687   0.570 -0.0512  1.1383  0.1027
 4655TIP3    H235381   2.179   6.792   0.503 -0.2552  3.1769  2.8664
 4656TIP3   OH235382   3.229   2.044   0.525 -0.1383  0.0185 -0.3183
 4656TIP3    H135383   3.252   2.028   0.616 -0.3917  0.8295 -0.1032
 4656TIP3    H235384   3.308   2.081   0.486 -0.8503  2.4096  0.3172
 4657TIP3   OH235385   1.613   2.264   3.886 -0.1052  0.3991 -0.3127
 4657TIP3    H135386   1.707   2.247   3.886 -0.2798 -0.7640  0.9854
 4657TIP3    H235387   1.605   2.353   3.921  0.5431  0.8465 -1.2716
 4658TIP3   OH235388   0.669   5.287  10.674 -0.5076  0.0443 -0.2919
 4658TIP3    H135389   0.669   5.379  10.647 -0.9623  0.0728 -0.2146
 4658TIP3    H235390   0.718   5.241  10.606  1.5486  0.6351  0.7303
 4659TIP3   OH235391   5.852   5.300   3.872 -0.3124  0.6596 -0.4884
 4659TIP3    H135392   5.803   5.309   3.791 -0.7576 -1.8493 -0.5894
 4659TIP3    H235393   5.786   5.313   3.941 -0.4904  0.2280 -0.5760
 4660TIP3   OH235394   0.143   2.494   0.589 -0.4131 -0.3028 -0.2813
 4660TIP3    H135395   0.200   2.532   0.655 -1.2154 -0.6911  0.6581
 4660TIP3    H235396   0.144   2.558   0.517  1.3296 -0.3980 -0.3836
 4661TIP3   OH235397   2.987   2.142   0.491  0.1140 -0.5344 -0.6403
 4661TIP3    H135398   3.076   2.108   0.499  0.4416  0.4101  0.0083
 4661TIP3    H235399   2.939   2.076   0.442  0.8596 -1.6456  0.0931
 4662TIP3   OH235400   6.534   0.402  15.812  0.5296  0.7869  0.5065
 4662TIP3    H135401   6.526   0.378  15.905  0.3118  1.9242  0.7910
 4662TIP3    H235402   6.467   0.350  15.768  0.7416  0.1155  0.9567
 4663TIP3   OH235403   3.694   6.486   0.117 -0.1567  0.3230 -1.0432
 4663TIP3    H135404   3.613   6.503   0.165 -0.7802  1.1202 -2.3430
 4663TIP3    H235405   3.734   6.573   0.107  0.5183  0.0186 -1.0004
 4664TIP3   OH235406   0.424   4.773   4.754  0.2707  0.3420 -0.3224
 4664TIP3    H135407   0.363   4.707   4.786 -0.2752  1.2744  0.6421
 4664TIP3    H235408   0.419   4.843   4.819  1.8279  0.7558 -0.6149
 4665TIP3   OH235409   5.177   1.644  16.577  0.1457  0.0525 -0.5318
 4665TIP3    H135410   5.164   1.735  16.553 -2.1117 -0.7261 -2.6903
 4665TIP3    H235411   5.094   1.601  16.557  0.1765 -2.0405  2.9819
 4666TIP3   OH235412   1.724   1.132   1.868 -0.5802 -0.1944  0.1985
 4666TIP3    H135413   1.720   1.089   1.954  0.2938  0.6402  0.6765
 4666TIP3    H235414   1.815   1.160   1.861 -0.1226 -1.9565 -1.8494
 4667TIP3   OH235415   3.855   3.931  12.485  0.3993  0.6018 -0.2632
 4667TIP3    H135416   3.913   3.867  12.445  0.0251 -0.5186  0.9245
 4667TIP3    H235417   3.912   3.983  12.542  0.5168  0.6146 -0.3924
 4668TIP3   OH235418   4.207   1.173   6.134  0.4331 -0.3134  0.2747
 4668TIP3    H135419   4.195   1.264   6.161  0.6279 -1.0337  3.2356
 4668TIP3    H235420   4.124   1.131   6.156 -0.0152 -0.7352 -1.9689
 4669TIP3   OH235421   3.347   1.654  12.184 -0.5269 -0.2349 -0.1804
 4669TIP3    H135422   3.280   1.685  12.245 -0.2535  0.4954 -0.2385
 4669TIP3    H235423   3.331   1.560  12.176 -1.6755 -0.0308 -0.3692
 4670TIP3   OH235424   2.479   3.176   4.827  0.5547  0.7779  0.4840
 4670TIP3    H135425   2.397   3.131   4.807  1.7379 -0.9778 -0.6550
 4670TIP3    H235426   2.469   3.262   4.785 -0.8806  0.8037  0.8220
 4671TIP3   OH235427   0.701   6.620  14.978  0.1530 -0.0536 -0.0133
 4671TIP3    H135428   0.771   6.664  14.929 -1.0442  1.7201 -0.2365
 4671TIP3    H235429   0.746   6.575  15.049  1.5432  1.0395 -0.1534
 4672TIP3   OH235430   0.974   0.612  12.354  0.2748  0.5626  0.6346
 4672TIP3    H135431   0.949   0.697  12.317 -0.6072  0.3857  0.8112
 4672TIP3    H235432   0.930   0.547  12.299  0.1432  0.2539  1.0934
 4673TIP3   OH235433   3.914   5.007  12.650 -0.5187  0.0312 -0.4865
 4673TIP3    H135434   3.876   5.069  12.587 -0.1351 -1.5549 -2.3967
 4673TIP3    H235435   3.984   4.964  12.601  0.1606 -0.8992  1.2385
 4674TIP3   OH235436   6.349   1.195  13.551  0.2052 -0.6673  0.3786
 4674TIP3    H135437   6.282   1.230  13.610  0.6250  0.4657  0.2052
 4674TIP3    H235438   6.300   1.142  13.488 -0.3626 -1.0301  1.1038
 4675TIP3   OH235439   3.958   6.661  15.466 -0.5466 -0.5244  0.4894
 4675TIP3    H135440   3.950   6.598  15.394 -0.5922 -0.4373  0.4182
 4675TIP3    H235441   3.902   6.734  15.440  1.2374  0.5619 -0.5195
 4676TIP3   OH235442   3.599   2.663  13.304  0.2786  0.4054  0.1304
 4676TIP3    H135443   3.532   2.707  13.356  1.7490  1.4517  1.2214
 4676TIP3    H235444   3.656   2.621  13.368  0.9239 -0.0989 -0.7467
 4677TIP3   OH235445   2.251   4.797  12.580  0.3107  0.3719 -0.5132
 4677TIP3    H135446   2.260   4.733  12.509 -1.2014 -0.1294 -0.3008
 4677TIP3    H235447   2.220   4.877  12.536 -1.7655 -0.2773 -0.3451
 4678TIP3   OH235448   4.843   1.520  13.575 -0.0478 -0.4360  0.5129
 4678TIP3    H135449   4.849   1.505  13.670 -0.1924 -1.8266  0.3318
 4678TIP3    H235450   4.850   1.615  13.565  2.4651 -0.4208  1.7364
 4679TIP3   OH235451   0.462   6.002  12.836  0.2040 -0.6066 -0.3868
 4679TIP3    H135452   0.433   6.033  12.750  1.4967  0.2218 -0.5413
 4679TIP3    H235453   0.388   5.950  12.868 -0.0039 -1.6244 -2.3443
 4680TIP3   OH235454   4.629   0.604   1.528 -0.4676  0.0737 -0.7530
 4680TIP3    H135455   4.702   0.552   1.561 -0.1836  0.9148 -0.0350
 4680TIP3    H235456   4.551   0.557   1.557 -0.2720  1.4593  2.3733
 4681TIP3   OH235457   2.978   2.831  12.952 -0.3917 -0.3888 -0.0769
 4681TIP3    H135458   3.009   2.758  13.005  0.5528  0.1459  0.1354
 4681TIP3    H235459   3.031   2.905  12.981 -0.0650 -0.0220 -1.5468
 4682TIP3   OH235460   3.374   3.605  13.269  0.3591 -0.3067 -0.2045
 4682TIP3    H135461   3.381   3.605  13.173  1.2632  1.8359 -0.2001
 4682TIP3    H235462   3.285   3.574  13.286  0.5413 -1.7946 -1.6597
 4683TIP3   OH235463   3.050   5.123  15.270 -0.2669  0.8477  0.3095
 4683TIP3    H135464   3.117   5.129  15.202  0.7303  1.4677  1.3048
 4683TIP3    H235465   3.049   5.210  15.310 -0.8051  0.4787  1.1278
 4684TIP3   OH235466   1.399   0.332  12.381  0.0481 -0.2912 -0.2597
 4684TIP3    H135467   1.327   0.383  12.418  0.0848  0.3325 -1.0153
 4684TIP3    H235468   1.439   0.288  12.456 -0.0251  0.7357  0.4011
 4685TIP3   OH235469   0.379   5.024  17.018 -0.0020  0.9699 -0.7111
 4685TIP3    H135470   0.453   5.084  17.026  1.2364 -0.4451 -0.9240
 4685TIP3    H235471   0.418   4.937  17.029 -1.6209  0.1679 -1.0015
 4686TIP3   OH235472   6.720   4.969  12.978  0.0063  0.1019  0.0424
 4686TIP3    H135473   6.733   4.917  12.899  0.6851 -0.7989  0.7229
 4686TIP3    H235474   6.749   5.057  12.954  1.2891 -0.4169 -0.3849
 4687TIP3   OH235475   2.435   2.935   0.253  0.9537  0.4483 -0.1642
 4687TIP3    H135476   2.376   2.960   0.324 -0.5465 -0.7574 -0.9460
 4687TIP3    H235477   2.401   2.981   0.176  0.8110 -0.5280 -0.6925
 4688TIP3   OH235478   3.332   6.001  16.839 -0.7161 -0.4815  0.7593
 4688TIP3    H135479   3.250   5.994  16.888 -2.4656  1.3620 -1.6568
 4688TIP3    H235480   3.350   6.095  16.836  0.8129 -0.7634  0.1536
 4689TIP3   OH235481   2.584   0.134   1.266 -0.3399 -0.6366 -0.0774
 4689TIP3    H135482   2.540   0.057   1.300 -0.2406 -0.3106  0.8166
 4689TIP3    H235483   2.607   0.111   1.176 -0.1810 -1.6991  0.2174
 4690TIP3   OH235484   6.233   5.527  15.919 -0.2601 -0.0354  0.6174
 4690TIP3    H135485   6.175   5.602  15.922 -0.5584 -0.2672  2.7739
 4690TIP3    H235486   6.305   5.551  15.978  0.9412 -0.4616 -0.6244
 4691TIP3   OH235487   2.234   2.807   3.839 -0.8497 -0.0252 -0.5098
 4691TIP3    H135488   2.298   2.776   3.904 -1.1491  0.9805  0.2820
 4691TIP3    H235489   2.235   2.739   3.771 -2.2384 -2.3901  1.6157
 4692TIP3   OH235490   0.215   4.594  16.731  0.4325 -0.6381 -0.5199
 4692TIP3    H135491   0.307   4.620  16.737  0.2270  0.1105 -0.5169
 4692TIP3    H235492   0.204   4.567  16.639  0.3043  0.6891 -0.9117
 4693TIP3   OH235493   2.953   2.844   2.796 -0.1565  0.0595  0.0967
 4693TIP3    H135494   2.985   2.930   2.770  0.0968  0.1407  0.6682
 4693TIP3    H235495   3.021   2.783   2.768 -0.6592 -0.0489 -0.9635
 4694TIP3   OH235496   5.021   5.316  10.915  0.3367  0.1953 -0.0886
 4694TIP3    H135497   4.950   5.297  10.854  0.6380 -1.1990 -0.0528
 4694TIP3    H235498   5.062   5.231  10.930  2.2811  1.0201 -0.4278
 4695TIP3   OH235499   0.524   5.815  14.434 -0.1499 -0.3100 -0.3522
 4695TIP3    H135500   0.450   5.824  14.374  0.4935  1.8892 -0.8886
 4695TIP3    H235501   0.590   5.874  14.400  0.7869 -0.0924  1.7145
 4696TIP3   OH235502   6.124   3.965  12.211 -0.2460 -0.1988  0.0049
 4696TIP3    H135503   6.115   4.058  12.189 -0.1440 -0.4780 -1.2845
 4696TIP3    H235504   6.096   3.960  12.302  0.1068  1.1558  0.2232
 4697TIP3   OH235505   3.336   3.495   1.984  0.0954  0.4122 -0.1515
 4697TIP3    H135506   3.293   3.422   1.938  1.7061  0.8643 -2.5704
 4697TIP3    H235507   3.271   3.524   2.048 -1.3532 -1.8638 -0.4596
 4698TIP3   OH235508   4.250   6.442  15.594 -0.8799  0.4625 -0.5483
 4698TIP3    H135509   4.274   6.370  15.536 -1.8852  0.6711 -1.2561
 4698TIP3    H235510   4.178   6.486  15.549 -0.8518  1.3960  0.2760
 4699TIP3   OH235511   2.294   4.979   2.505  0.0354  0.7080  0.2569
 4699TIP3    H135512   2.353   4.906   2.484 -0.4301  0.1909  0.7167
 4699TIP3    H235513   2.294   5.033   2.426  0.0481 -0.0287 -0.2562
 4700TIP3   OH235514   4.996   0.436   4.732 -0.0017  0.0788 -0.6571
 4700TIP3    H135515   5.071   0.383   4.704  0.6427  0.9245 -0.5744
 4700TIP3    H235516   4.995   0.509   4.670  0.6542  1.2990  0.7455
 4701TIP3   OH235517   2.109   4.553   2.912 -0.2197 -0.4549 -0.4193
 4701TIP3    H135518   2.036   4.614   2.903 -0.6701 -0.8638  0.3703
 4701TIP3    H235519   2.184   4.599   2.874 -0.7727  0.1731 -0.7672
 4702TIP3   OH235520   0.532   3.078   5.555 -0.8542  0.3249 -0.4963
 4702TIP3    H135521   0.509   3.089   5.647 -0.9505  0.1504 -0.5001
 4702TIP3    H235522   0.627   3.094   5.552 -0.8126  0.1181 -0.3339
 4703TIP3   OH235523   0.373   0.139  13.875  0.1977  0.2713  0.5350
 4703TIP3    H135524   0.319   0.076  13.828  1.0020 -0.9996  1.2722
 4703TIP3    H235525   0.317   0.216  13.884 -0.9750 -0.4941  0.0377
 4704TIP3   OH235526   3.762   5.462  14.964  0.0806 -0.1085  0.1373
 4704TIP3    H135527   3.732   5.552  14.978  0.1965 -0.0275 -0.1331
 4704TIP3    H235528   3.758   5.450  14.870  0.3840 -0.2761  0.1438
 4705TIP3   OH235529   1.688   6.574   2.070 -0.4422 -0.0574  0.1352
 4705TIP3    H135530   1.608   6.536   2.034  0.3928 -1.2095 -0.5635
 4705TIP3    H235531   1.701   6.530   2.154  0.6637 -1.6065 -0.7890
 4706TIP3   OH235532   0.532   5.103  13.512  0.0447  0.2601 -0.6389
 4706TIP3    H135533   0.582   5.057  13.579 -0.1208  2.1724  0.8821
 4706TIP3    H235534   0.449   5.125  13.554 -0.4347  0.7123 -1.7709
 4707TIP3   OH235535   4.727   1.611  11.448  0.7139 -0.5980  0.1738
 4707TIP3    H135536   4.681   1.652  11.374 -0.7525  0.1344  1.4426
 4707TIP3    H235537   4.799   1.563  11.407  0.1396  0.0417 -1.7055
 4708TIP3   OH235538   2.824   4.862   2.395 -0.3705  0.2310 -0.5289
 4708TIP3    H135539   2.840   4.835   2.485 -1.3171  0.8690 -0.1545
 4708TIP3    H235540   2.813   4.780   2.347  0.4091 -0.1193 -0.1323
 4709TIP3   OH235541   3.297   2.572  16.104  0.0926 -0.0170  0.7025
 4709TIP3    H135542   3.253   2.601  16.184  0.2835 -1.0477  1.1996
 4709TIP3    H235543   3.297   2.649  16.047 -0.1354  0.7069  1.6565
 4710TIP3   OH235544   6.263   5.403   1.215 -0.4364  0.4744  0.1956
 4710TIP3    H135545   6.320   5.459   1.162 -0.1854  0.1505  0.1266
 4710TIP3    H235546   6.185   5.391   1.160 -0.6097  0.9833  0.3244
 4711TIP3   OH235547   4.575   4.804   1.254  0.0804  0.4435  0.2031
 4711TIP3    H135548   4.667   4.783   1.238  0.1551  0.7698  0.1961
 4711TIP3    H235549   4.528   4.768   1.178  0.0786 -0.5647  0.6552
 4712TIP3   OH235550   0.231   6.215  17.291  1.0335 -0.3276 -0.2594
 4712TIP3    H135551   0.196   6.128  17.306  4.3075 -1.6635  0.5614
 4712TIP3    H235552   0.304   6.201  17.230  1.7203  1.8243 -0.0221
 4713TIP3   OH235553   2.220   4.821   5.414  0.8105  0.3220  0.0608
 4713TIP3    H135554   2.211   4.729   5.441  0.5249  0.9017  2.1388
 4713TIP3    H235555   2.301   4.823   5.363  1.2743 -0.9478  0.6837
 4714TIP3   OH235556   1.728   4.908  10.482 -0.2193 -0.5414 -0.2359
 4714TIP3    H135557   1.719   4.854  10.560  1.1996 -0.6636 -0.1168
 4714TIP3    H235558   1.749   4.845  10.413  1.8633 -0.1587 -0.0114
 4715TIP3   OH235559   2.707   1.713  12.261 -0.1940 -0.3055  0.1611
 4715TIP3    H135560   2.730   1.717  12.354 -0.3301 -0.8579  0.2286
 4715TIP3    H235561   2.676   1.623  12.249  2.8783 -1.3172 -1.1297
 4716TIP3   OH235562   4.909   4.041   1.926 -0.7322 -0.1030  0.3722
 4716TIP3    H135563   4.847   4.114   1.924  1.2875  1.7083 -0.0463
 4716TIP3    H235564   4.895   4.000   2.012 -3.4732 -0.7302 -0.2918
 4717TIP3   OH235565   2.224   1.396   4.235  0.1811 -0.1441  0.6283
 4717TIP3    H135566   2.285   1.322   4.244  0.2837 -0.3564 -1.3126
 4717TIP3    H235567   2.275   1.463   4.190 -0.9064 -0.2372 -0.8280
 4718TIP3   OH235568   2.628   1.827   5.911  0.4165  0.5982 -0.1477
 4718TIP3    H135569   2.597   1.754   5.964 -2.5437  1.0540 -1.0641
 4718TIP3    H235570   2.713   1.850   5.949 -0.6672 -0.3120  3.1649
 4719TIP3   OH235571   5.998   6.716  14.767  0.6379  0.2183  0.5550
 4719TIP3    H135572   6.047   6.722  14.849  0.0969 -1.5536  1.0541
 4719TIP3    H235573   5.931   6.649  14.783 -0.0335  0.4402 -1.0601
 4720TIP3   OH235574   2.155   5.453  15.879 -0.1440 -0.0998 -0.1896
 4720TIP3    H135575   2.139   5.406  15.797 -0.0178  0.5607 -0.6052
 4720TIP3    H235576   2.205   5.531  15.852 -0.1082  0.1270  0.5150
 4721TIP3   OH235577   3.959   4.139  12.978 -0.0529 -0.1688  0.2825
 4721TIP3    H135578   4.038   4.193  12.981  1.1867 -1.8591 -0.3218
 4721TIP3    H235579   3.940   4.122  13.071 -1.1676  2.1640  0.5629
 4722TIP3   OH235580   3.768   0.997   1.796  0.2697 -0.2647  0.1174
 4722TIP3    H135581   3.837   1.062   1.809 -0.3154  0.4580 -0.3403
 4722TIP3    H235582   3.713   1.034   1.728 -1.0146 -0.4764  1.0060
 4723TIP3   OH235583   2.347   5.463   4.310  0.4003 -0.0952 -0.1935
 4723TIP3    H135584   2.337   5.399   4.380  0.0897  1.1962  0.9656
 4723TIP3    H235585   2.432   5.504   4.327  1.5873 -1.5135 -2.0978
 4724TIP3   OH235586   4.243   6.090  15.661  0.0758 -0.2552  0.4778
 4724TIP3    H135587   4.318   6.048  15.620 -0.3551 -0.2156 -0.3655
 4724TIP3    H235588   4.200   6.019  15.709  0.1566 -0.4700  0.2355
 4725TIP3   OH235589   4.066   0.019   1.002  0.2607 -0.0074 -0.0744
 4725TIP3    H135590   4.119   0.098   1.010  0.9012 -0.2787 -1.3598
 4725TIP3    H235591   4.130  -0.052   0.991 -0.3299 -0.5410 -0.1388
 4726TIP3   OH235592   1.470   2.459  11.767  0.0303 -0.6251 -0.3037
 4726TIP3    H135593   1.510   2.428  11.848 -0.4532  0.6729  0.4581
 4726TIP3    H235594   1.538   2.511  11.724  0.4196 -1.6439 -0.9483
 4727TIP3   OH235595   1.841   6.076  13.355 -0.1755  0.6685 -0.0025
 4727TIP3    H135596   1.919   6.106  13.308 -0.9363  3.0991  0.1789
 4727TIP3    H235597   1.869   5.993  13.395  1.9016  0.8102 -0.9959
 4728TIP3   OH235598   2.207   5.338   2.475  0.6241  0.3865  0.0347
 4728TIP3    H135599   2.260   5.294   2.408  0.5568 -0.1562  0.3263
 4728TIP3    H235600   2.261   5.335   2.554  0.5207  0.6305  0.1150
 4729TIP3   OH235601   4.956   4.762  15.168 -0.7722 -0.0596  0.5070
 4729TIP3    H135602   5.036   4.742  15.119 -1.1320 -2.0478  0.6344
 4729TIP3    H235603   4.908   4.824  15.112  1.1827  1.8590  0.8191
 4730TIP3   OH235604   3.112   1.321  15.630  0.0888  0.2517  0.4818
 4730TIP3    H135605   3.034   1.371  15.654  0.4661  1.9788 -1.5453
 4730TIP3    H235606   3.185   1.375  15.662  0.5312  1.5361 -2.3952
 4731TIP3   OH235607   0.543   1.938  11.720 -0.1347  0.3953 -0.3936
 4731TIP3    H135608   0.503   1.943  11.806  0.0447  0.8461 -0.3338
 4731TIP3    H235609   0.487   1.992  11.664  0.2679  0.8523 -0.3576
 4732TIP3   OH235610   0.104   0.874  14.290  0.4668 -0.1453 -0.3042
 4732TIP3    H135611   0.170   0.804  14.288  0.7903 -0.1007  3.2164
 4732TIP3    H235612   0.155   0.954  14.298  0.0436  0.0351  0.6844
 4733TIP3   OH235613   2.277   1.182  14.656  0.6911  0.1962 -0.1999
 4733TIP3    H135614   2.301   1.141  14.574 -0.2219  0.1754 -0.4619
 4733TIP3    H235615   2.217   1.253  14.632  0.7269  0.4498  0.4113
 4734TIP3   OH235616   0.088   0.312   2.568 -0.5154  1.1009 -0.4554
 4734TIP3    H135617   0.163   0.304   2.509 -0.4588  0.1632 -0.2748
 4734TIP3    H235618   0.012   0.300   2.511 -0.4615  0.2190 -0.3508
 4735TIP3   OH235619   0.725   0.374   2.611 -0.6739 -0.1707 -0.2728
 4735TIP3    H135620   0.663   0.441   2.640 -0.5263  0.0577 -0.4791
 4735TIP3    H235621   0.793   0.423   2.566 -0.1121 -0.3799  0.3393
 4736TIP3   OH235622   2.703   3.290   3.245 -0.1092  0.3100  0.3739
 4736TIP3    H135623   2.643   3.336   3.302 -2.9431 -0.3915 -1.8094
 4736TIP3    H235624   2.690   3.197   3.266 -1.0297  0.0552 -1.1338
 4737TIP3   OH235625   5.171   1.509   2.999 -0.3133  0.1569  0.2709
 4737TIP3    H135626   5.226   1.583   2.974  0.3660  0.1736  1.7323
 4737TIP3    H235627   5.083   1.547   3.009 -0.1798  0.5452 -0.0099
 4738TIP3   OH235628   3.556   4.366  17.383  0.3407  0.1269  0.0031
 4738TIP3    H135629   3.627   4.304  17.401  2.1707  1.8983 -0.6694
 4738TIP3    H235630   3.557   4.376  17.288  0.0827  1.1700  0.0999
 4739TIP3   OH235631   5.911   1.978  15.868  0.4978  0.6932 -0.2272
 4739TIP3    H135632   5.909   2.054  15.926  1.4807 -0.0289  0.7722
 4739TIP3    H235633   6.001   1.973  15.838  0.2714  0.3401 -0.8694
 4740TIP3   OH235634   5.080   2.805   0.880  0.2261  0.1959 -0.7524
 4740TIP3    H135635   5.107   2.827   0.790  2.1513  1.4696  0.0624
 4740TIP3    H235636   5.156   2.827   0.933 -0.1031 -2.4360  1.0096
 4741TIP3   OH235637   1.318   2.524  15.984 -0.4869  0.8178 -0.1899
 4741TIP3    H135638   1.255   2.506  16.054 -0.0175  1.1642  0.3331
 4741TIP3    H235639   1.364   2.603  16.012 -1.7902  2.2655 -1.9508
 4742TIP3   OH235640   3.775   4.979   4.964 -0.4127  0.2008  0.1727
 4742TIP3    H135641   3.711   4.972   4.893 -1.8328  0.4340  1.3757
 4742TIP3    H235642   3.846   5.031   4.926 -1.4994  1.0284 -0.8467
 4743TIP3   OH235643   4.308   3.737  13.582  0.2494 -0.1216 -0.4762
 4743TIP3    H135644   4.281   3.740  13.490 -0.7340  0.7704 -0.1776
 4743TIP3    H235645   4.384   3.795  13.586 -0.2643  0.5672 -0.5593
 4744TIP3   OH235646   2.134   5.370  11.217 -0.0017 -0.1588 -0.0438
 4744TIP3    H135647   2.124   5.339  11.307  1.2779  0.5584  0.3823
 4744TIP3    H235648   2.174   5.297  11.170  0.9561  0.0597  0.4142
 4745TIP3   OH235649   1.724   2.610  16.645 -0.2862  0.4158 -0.1991
 4745TIP3    H135650   1.811   2.605  16.605 -0.2742 -0.5527 -0.0733
 4745TIP3    H235651   1.700   2.702  16.639  0.7711  0.7039 -0.1945
 4746TIP3   OH235652   3.383   4.523  13.246  0.2970 -0.3113  0.3671
 4746TIP3    H135653   3.335   4.440  13.250 -0.9536  0.3725  0.3568
 4746TIP3    H235654   3.410   4.530  13.154  1.2180 -1.1290  0.5674
 4747TIP3   OH235655   5.609   1.632  16.243 -0.4243 -0.1389 -0.8519
 4747TIP3    H135656   5.701   1.627  16.267 -0.8287 -1.4931  0.5671
 4747TIP3    H235657   5.604   1.705  16.181  1.5663  0.0241 -0.8711
 4748TIP3   OH235658   2.387   4.219   1.702 -0.6593  0.1335  0.3114
 4748TIP3    H135659   2.296   4.210   1.733 -0.6892  0.6064  0.3713
 4748TIP3    H235660   2.436   4.155   1.753 -0.9654 -0.1410  0.2641
 4749TIP3   OH235661   2.861   5.954  16.274  0.2118 -0.3125 -0.4151
 4749TIP3    H135662   2.878   5.862  16.254 -0.4930 -0.4594 -0.3606
 4749TIP3    H235663   2.772   5.969  16.243 -1.1092 -0.6437  2.8254
 4750TIP3   OH235664   1.739   2.835  15.899 -0.4931  0.3288 -0.0778
 4750TIP3    H135665   1.648   2.831  15.870 -0.6686 -0.5518  0.5720
 4750TIP3    H235666   1.767   2.743  15.903 -0.3683  0.4155  2.1852
 4751TIP3   OH235667   5.842   2.003  13.490  0.0950  0.3246  0.1691
 4751TIP3    H135668   5.871   1.920  13.527  1.6226  0.5389 -0.5002
 4751TIP3    H235669   5.811   1.981  13.402 -0.4728  0.3180  0.3651
 4752TIP3   OH235670   1.545   6.439   5.996  0.3837 -0.9231  0.2671
 4752TIP3    H135671   1.598   6.364   6.024 -0.1495 -2.5099 -2.6459
 4752TIP3    H235672   1.588   6.471   5.917  0.5658  1.9211  1.4085
 4753TIP3   OH235673   0.005   6.046   2.592 -0.1641  0.3824 -0.3525
 4753TIP3    H135674  -0.027   6.021   2.505 -0.8764 -0.1791  0.0520
 4753TIP3    H235675   0.059   6.123   2.577 -0.1512  0.1992 -1.3120
 4754TIP3   OH235676   5.291   5.255   1.445  0.1815 -0.1090  0.1266
 4754TIP3    H135677   5.288   5.252   1.349 -1.7630  0.5916  0.1294
 4754TIP3    H235678   5.260   5.168   1.472 -0.4463  0.0953  0.0950
 4755TIP3   OH235679   2.906   1.041  13.398 -0.4537  0.3118  0.0749
 4755TIP3    H135680   2.848   1.074  13.330 -0.1125  1.0036  0.1135
 4755TIP3    H235681   2.932   1.119  13.447  0.3791 -0.0117  0.1557
 4756TIP3   OH235682   3.545   5.579  11.789  0.6503 -0.1447 -0.2771
 4756TIP3    H135683   3.551   5.564  11.695  0.6992 -0.3901 -0.2344
 4756TIP3    H235684   3.556   5.674  11.799 -2.7549  0.4342 -0.8185
 4757TIP3   OH235685   6.395   3.752  13.222  0.5645  0.0190  0.0373
 4757TIP3    H135686   6.468   3.794  13.266  0.3001  0.2362  0.2752
 4757TIP3    H235687   6.332   3.732  13.292  0.7151 -0.8443 -0.0638
 4758TIP3   OH235688   5.903   0.556  16.573  0.2613  0.0595  0.0109
 4758TIP3    H135689   5.946   0.635  16.541  0.7129 -0.7829 -1.5805
 4758TIP3    H235690   5.903   0.565  16.668  2.2121  1.0051 -0.0338
 4759TIP3   OH235691   3.215   5.790  13.006  0.5062 -0.0477  0.1222
 4759TIP3    H135692   3.209   5.698  13.032 -1.1847 -0.4541 -1.5019
 4759TIP3    H235693   3.148   5.834  13.059  0.9635  0.1859  0.5217
 4760TIP3   OH235694   3.836   3.401   3.840 -0.1606  0.0229 -0.0238
 4760TIP3    H135695   3.750   3.358   3.841  0.5040 -1.5143 -2.2095
 4760TIP3    H235696   3.823   3.480   3.787 -0.1790 -0.3411 -0.5667
 4761TIP3   OH235697   6.668   1.955   4.477  0.3713  0.1032  0.5664
 4761TIP3    H135698   6.730   1.900   4.428  1.4209  1.6413  0.1168
 4761TIP3    H235699   6.676   1.924   4.568  2.2910  0.6482  0.6331
 4762TIP3   OH235700   1.267   6.738  16.000  0.5164 -0.1523  0.1502
 4762TIP3    H135701   1.267   6.715  15.907  0.5973 -0.1977  0.1613
 4762TIP3    H235702   1.314   6.667  16.042 -0.1815 -0.5109  0.3246
 4763TIP3   OH235703   4.876   0.899   2.692 -0.5775 -0.2653 -0.1923
 4763TIP3    H135704   4.881   0.957   2.616  0.0798 -1.4462 -1.1017
 4763TIP3    H235705   4.786   0.908   2.723 -0.7600  0.5101 -0.8949
 4764TIP3   OH235706   3.277   5.230   0.650  0.4135 -0.1641 -0.1394
 4764TIP3    H135707   3.356   5.235   0.703 -1.0208  1.3622  1.9937
 4764TIP3    H235708   3.209   5.273   0.702 -1.7841 -1.1235 -2.0087
 4765TIP3   OH235709   0.461   1.668  16.492 -0.5078  0.0366  0.1176
 4765TIP3    H135710   0.470   1.704  16.404 -0.3987  0.0274  0.1246
 4765TIP3    H235711   0.531   1.708  16.542 -1.1710  0.8026  0.4561
 4766TIP3   OH235712   3.539   3.901   2.091 -0.1622  0.3297 -0.0774
 4766TIP3    H135713   3.532   3.995   2.108  0.2413  0.7097 -1.8941
 4766TIP3    H235714   3.449   3.872   2.076 -0.1938  0.5953 -0.3861
 4767TIP3   OH235715   2.105   2.566  11.074 -0.0510  0.0839  0.5280
 4767TIP3    H135716   2.026   2.587  11.025 -0.7414 -0.1271  1.5028
 4767TIP3    H235717   2.175   2.611  11.028 -0.9232  1.2910  0.3293
 4768TIP3   OH235718   2.938   2.725  16.663  0.1118  0.1682  0.1437
 4768TIP3    H135719   2.844   2.711  16.676  0.0115 -0.0376 -0.7229
 4768TIP3    H235720   2.980   2.651  16.706 -0.0985  0.3981  0.7639
 4769TIP3   OH235721   0.062   2.178  15.459  0.1028 -0.3157  0.2282
 4769TIP3    H135722   0.040   2.267  15.431  2.8178  0.4888  0.3907
 4769TIP3    H235723   0.051   2.179  15.554  2.2914  0.6335  0.5432
 4770TIP3   OH235724   3.184   4.932  12.046  0.6291  0.9486  0.4289
 4770TIP3    H135725   3.107   4.949  11.992  0.3305  1.5720  1.0547
 4770TIP3    H235726   3.153   4.874  12.116  1.0977 -0.1735 -0.2521
 4771TIP3   OH235727   4.018   3.406   1.413  0.1903 -0.3743 -0.5454
 4771TIP3    H135728   4.013   3.316   1.446  0.3780 -0.2094 -0.0598
 4771TIP3    H235729   3.945   3.452   1.456  0.3329 -0.1978 -0.4910
 4772TIP3   OH235730   3.383   1.460   4.071 -0.0544 -0.4178 -0.3196
 4772TIP3    H135731   3.361   1.430   3.983  1.0000 -0.6726 -0.5087
 4772TIP3    H235732   3.399   1.554   4.062 -2.5857  0.1163  0.1261
 4773TIP3   OH235733   4.929   5.818  16.305  0.1444  0.7561 -0.1717
 4773TIP3    H135734   4.978   5.862  16.375  2.6138 -0.7510 -0.8240
 4773TIP3    H235735   4.911   5.887  16.242 -0.5676  1.7869  1.0953
 4774TIP3   OH235736   5.433   1.471  13.201  0.2306 -0.0751 -0.1326
 4774TIP3    H135737   5.373   1.481  13.275 -0.5176  2.6069 -1.0082
 4774TIP3    H235738   5.479   1.555  13.195  1.4714 -0.8053 -1.7126
 4775TIP3   OH235739   6.003   4.232  14.750  0.7137  0.1256  0.2720
 4775TIP3    H135740   6.066   4.176  14.705 -0.5218 -2.2012  1.2476
 4775TIP3    H235741   5.925   4.229  14.696  0.6276  0.9612  0.3351
 4776TIP3   OH235742   3.763   4.405  13.238  0.5485  0.1514 -0.0193
 4776TIP3    H135743   3.760   4.400  13.143 -0.6961  1.5775 -0.0856
 4776TIP3    H235744   3.696   4.344  13.267  0.8439 -0.1922 -0.0510
 4777TIP3   OH235745   3.855   6.578  12.470  0.3740 -0.0498  0.0536
 4777TIP3    H135746   3.855   6.486  12.442  0.4004 -0.3664  1.0385
 4777TIP3    H235747   3.917   6.621  12.412 -0.2856 -0.4681 -0.9923
 4778TIP3   OH235748   1.465   5.029   4.119  0.2364 -0.1658  0.0329
 4778TIP3    H135749   1.535   4.981   4.076 -0.9375 -2.3056  0.3795
 4778TIP3    H235750   1.435   5.092   4.052  1.6487 -0.0404 -0.5216
 4779TIP3   OH235751   2.813   5.515  13.475  0.6711 -0.2221 -0.4010
 4779TIP3    H135752   2.894   5.557  13.505 -1.2169  1.5077  2.6731
 4779TIP3    H235753   2.802   5.440  13.533 -1.5458  1.4874  1.5451
 4780TIP3   OH235754   3.349   3.682  12.149 -0.6615  0.2277 -0.1706
 4780TIP3    H135755   3.343   3.776  12.135 -0.6331 -0.1882 -4.2112
 4780TIP3    H235756   3.432   3.656  12.110 -0.4787 -1.4798  1.1933
 4781TIP3   OH235757   0.884   0.647   5.267  0.6594 -0.0494  0.3992
 4781TIP3    H135758   0.821   0.615   5.202 -0.5746 -0.5236  1.7550
 4781TIP3    H235759   0.943   0.704   5.218 -1.4406  1.2284 -0.7958
 4782TIP3   OH235760   2.206   3.697   4.496 -0.3532 -0.2294 -0.0449
 4782TIP3    H135761   2.145   3.771   4.495  2.5784  2.4237  0.9570
 4782TIP3    H235762   2.153   3.622   4.524 -3.0384  1.9630  1.1804
 4783TIP3   OH235763   6.508   5.957  14.428 -0.1951 -0.1837 -0.0873
 4783TIP3    H135764   6.515   5.931  14.336  0.3236  1.6691 -0.6263
 4783TIP3    H235765   6.432   6.014  14.431  0.5298  0.7898  0.3501
 4784TIP3   OH235766   2.775   6.499   2.739  0.2343 -0.4200  0.3290
 4784TIP3    H135767   2.778   6.475   2.832 -1.3270 -1.2629  0.2032
 4784TIP3    H235768   2.741   6.420   2.696  1.9252 -0.4019 -1.1083
 4785TIP3   OH235769   5.475   2.322   1.413 -0.9602  0.3593  0.5922
 4785TIP3    H135770   5.486   2.229   1.394 -1.5503  0.5084 -0.5224
 4785TIP3    H235771   5.492   2.366   1.330  3.2409  1.6190  1.8393
 4786TIP3   OH235772   0.750   6.451  15.764 -0.3202 -0.4982  0.3503
 4786TIP3    H135773   0.732   6.368  15.808  0.0177  1.0227  3.6168
 4786TIP3    H235774   0.671   6.503  15.777 -0.7988 -0.4201 -2.2623
 4787TIP3   OH235775   2.626   5.950  14.694 -0.1812 -0.6815 -0.2730
 4787TIP3    H135776   2.541   5.994  14.679 -0.2404 -0.4518  0.6912
 4787TIP3    H235777   2.664   5.942  14.607 -1.1961 -0.7783 -0.7230
 4788TIP3   OH235778   5.514   5.676   0.940  0.3267 -0.1426  0.1554
 4788TIP3    H135779   5.570   5.735   0.889 -1.8863  1.9698 -0.0064
 4788TIP3    H235780   5.515   5.712   1.028 -0.2693 -0.4566  0.2957
 4789TIP3   OH235781   0.232   2.878   2.455 -0.7552 -0.0853  0.8649
 4789TIP3    H135782   0.216   2.788   2.483  0.6180 -1.2987 -1.8526
 4789TIP3    H235783   0.167   2.894   2.387  0.6109 -0.0364 -0.4857
 4790TIP3   OH235784   5.205   4.588  16.531  0.0019 -0.5000  0.5268
 4790TIP3    H135785   5.261   4.661  16.501 -0.0710 -1.1074 -1.1892
 4790TIP3    H235786   5.235   4.513  16.480 -1.8234 -1.0324  0.1860
 4791TIP3   OH235787   4.068   5.447  11.807  0.1290 -0.6657 -0.0230
 4791TIP3    H135788   4.034   5.435  11.718 -0.4727 -0.1901  0.1318
 4791TIP3    H235789   4.047   5.537  11.829  1.8103 -0.2460 -0.0201
 4792TIP3   OH235790   4.945   5.661   0.770  0.9007 -0.3551  0.6319
 4792TIP3    H135791   4.995   5.741   0.786  1.9403 -0.4265 -1.8583
 4792TIP3    H235792   4.854   5.687   0.784  1.1273  1.5638 -0.9899
 4793TIP3   OH235793   2.452   3.880   3.106 -0.7608 -0.4218  0.1566
 4793TIP3    H135794   2.387   3.908   3.042 -0.2696 -1.6039 -0.8978
 4793TIP3    H235795   2.537   3.905   3.068 -0.3813 -2.2447 -0.2993
 4794TIP3   OH235796   5.122   5.166  17.236  0.7100  0.2858 -0.1819
 4794TIP3    H135797   5.138   5.082  17.193 -1.6516 -0.9511  1.2061
 4794TIP3    H235798   5.031   5.163  17.265  0.4104  3.4951 -0.3724
 4795TIP3   OH235799   3.226   2.561  14.777  0.0185 -0.4018 -0.3704
 4795TIP3    H135800   3.267   2.627  14.721  0.0956  1.1404  1.3925
 4795TIP3    H235801   3.196   2.493  14.717 -0.4311  1.4331 -2.3380
 4796TIP3   OH235802   0.831   2.406  13.668  0.3552 -0.0713  0.2863
 4796TIP3    H135803   0.751   2.389  13.619 -0.0360  2.2683  0.0070
 4796TIP3    H235804   0.898   2.356  13.621 -0.1795  1.3369 -2.1716
 4797TIP3   OH235805   2.993   3.838  11.523  0.0591 -0.1832  0.3565
 4797TIP3    H135806   2.964   3.805  11.438 -0.4027 -3.0665  1.5274
 4797TIP3    H235807   3.047   3.914  11.502  0.5983 -1.2435 -2.5691
 4798TIP3   OH235808   0.305   3.995  14.313  0.2553  0.3616 -0.7414
 4798TIP3    H135809   0.380   3.943  14.285  0.0857 -0.3684  0.1190
 4798TIP3    H235810   0.233   3.932  14.321 -0.2312  0.9084 -0.7371
 4799TIP3   OH235811   2.085   1.466  17.004 -0.1443  0.1731  0.1363
 4799TIP3    H135812   2.100   1.386  17.054 -0.5526  0.6858  1.0978
 4799TIP3    H235813   2.035   1.438  16.927 -0.0260 -0.5316  0.3150
 4800TIP3   OH235814   0.771   6.224   4.492  0.0561 -0.4669  0.2331
 4800TIP3    H135815   0.821   6.203   4.571 -1.3185 -3.0125  0.5372
 4800TIP3    H235816   0.698   6.162   4.493 -0.6612  0.2048 -2.4511
 4801TIP3   OH235817   6.494   5.918   5.381  0.1903  0.1566 -0.2673
 4801TIP3    H135818   6.454   5.831   5.378  1.5616 -0.5329  0.4304
 4801TIP3    H235819   6.508   5.941   5.289 -2.2491  0.6651 -0.5541
 4802TIP3   OH235820   3.719   5.172  12.529 -0.1903  0.0961  0.5985
 4802TIP3    H135821   3.756   5.259  12.541  1.0659 -0.2472 -0.6092
 4802TIP3    H235822   3.644   5.186  12.471  0.8571  0.2148 -0.7629
 4803TIP3   OH235823   4.303   3.453  12.565  0.4679 -0.0447  0.7079
 4803TIP3    H135824   4.298   3.412  12.651 -0.1637 -0.2180  0.5977
 4803TIP3    H235825   4.223   3.425  12.521  1.4783 -1.1911 -0.4872
 4804TIP3   OH235826   1.721   1.404  13.379 -0.1032 -0.2291  0.2135
 4804TIP3    H135827   1.662   1.374  13.310 -1.0256  0.2328  0.7820
 4804TIP3    H235828   1.808   1.378  13.349 -0.6019 -1.0445 -0.5811
 4805TIP3   OH235829   0.617   2.613  14.075  0.3132  0.1953  0.1562
 4805TIP3    H135830   0.645   2.582  14.161  1.0034 -1.4295 -0.6058
 4805TIP3    H235831   0.527   2.581  14.066  0.0339  0.8728  0.4985
 4806TIP3   OH235832   0.917   5.078   6.263  0.4565  0.0271  0.2259
 4806TIP3    H135833   0.947   5.118   6.345  0.0641  0.6367  0.0770
 4806TIP3    H235834   0.833   5.120   6.245  0.3970 -0.3244 -0.3322
 4807TIP3   OH235835   0.742   6.219   3.083  0.3348  0.1344  0.7216
 4807TIP3    H135836   0.789   6.206   3.166 -0.9422 -1.9983  1.1811
 4807TIP3    H235837   0.722   6.131   3.052 -2.4326  0.9043  0.0412
 4808TIP3   OH235838   2.390   3.375  14.478 -0.1246 -0.6959  0.3045
 4808TIP3    H135839   2.365   3.352  14.388  0.5743 -2.2597  0.4910
 4808TIP3    H235840   2.421   3.466  14.471 -3.7271  0.6603 -0.3035
 4809TIP3   OH235841   4.292   3.942   3.274  0.7524  0.4622  0.0720
 4809TIP3    H135842   4.307   4.031   3.240  1.9120 -0.2774 -1.4546
 4809TIP3    H235843   4.253   3.956   3.360  1.9202  2.4785  0.3434
 4810TIP3   OH235844   1.564   1.069  17.361  0.3986  0.5431  0.6598
 4810TIP3    H135845   1.482   1.020  17.364  0.3088  0.5698 -0.6359
 4810TIP3    H235846   1.630   1.003  17.339  0.0635  1.1387 -2.6055
 4811TIP3   OH235847   5.371   2.236  11.261  0.4775  0.2393 -0.2294
 4811TIP3    H135848   5.344   2.271  11.346  0.4095  0.1217 -0.2020
 4811TIP3    H235849   5.288   2.222  11.214  0.5710  1.4446 -0.7722
 4812TIP3   OH235850   1.847   3.102  14.265  0.4413 -0.4365  0.9232
 4812TIP3    H135851   1.894   3.030  14.223  0.7631 -1.2291  2.5654
 4812TIP3    H235852   1.913   3.145  14.320  1.1793  3.2801 -2.3931
 4813TIP3   OH235853   1.301   4.504   1.148  0.6035 -0.8077 -0.6237
 4813TIP3    H135854   1.284   4.421   1.194  1.6792 -1.7844 -1.9032
 4813TIP3    H235855   1.219   4.522   1.101 -0.5457  0.2454  1.6188
 4814TIP3   OH235856   5.099   2.947   0.313 -0.0384  0.3395 -0.9387
 4814TIP3    H135857   5.064   2.948   0.224  0.5790 -1.4986 -1.2549
 4814TIP3    H235858   5.022   2.939   0.369 -0.4710  2.0673 -1.2421
 4815TIP3   OH235859   5.196   6.680  13.184  0.2459 -0.0610 -0.6102
 4815TIP3    H135860   5.243   6.630  13.117 -0.2332  1.1373 -1.8743
 4815TIP3    H235861   5.254   6.752  13.206 -0.1650  0.3155 -0.7407
 4816TIP3   OH235862   5.530   4.765   5.476 -0.2017 -0.2030 -0.4593
 4816TIP3    H135863   5.603   4.811   5.518 -0.7815 -0.3245  0.7035
 4816TIP3    H235864   5.474   4.835   5.442 -0.9907 -0.0016  1.1513
 4817TIP3   OH235865   5.244   6.485   2.835 -0.0325  0.4160  0.5051
 4817TIP3    H135866   5.171   6.439   2.792  2.1177 -1.2588 -1.6421
 4817TIP3    H235867   5.231   6.467   2.928 -2.0948 -0.2323  0.1531
 4818TIP3   OH235868   1.411   2.653  17.239  0.0407  0.2562  0.0566
 4818TIP3    H135869   1.484   2.655  17.302 -1.6844  2.0099  2.2179
 4818TIP3    H235870   1.436   2.717  17.172  1.3110 -0.5976 -0.3146
 4819TIP3   OH235871   0.317   6.684  13.258 -0.1544  0.1120  0.0902
 4819TIP3    H135872   0.313   6.637  13.342  0.4154 -1.3433 -0.6465
 4819TIP3    H235873   0.363   6.765  13.278 -0.5903  0.0858  1.3010
 4820TIP3   OH235874   3.808   4.354  17.138  0.2546 -0.4448 -0.4191
 4820TIP3    H135875   3.830   4.446  17.123 -0.4166 -0.1575  0.2686
 4820TIP3    H235876   3.892   4.311  17.153  0.5470  0.1218 -0.4293
 4821TIP3   OH235877   0.043   6.634   4.892  0.0077 -0.0339  0.0689
 4821TIP3    H135878  -0.020   6.586   4.946 -0.7358 -0.3760 -1.0753
 4821TIP3    H235879   0.119   6.577   4.887 -0.8691 -1.1461 -1.2849
 4822TIP3   OH235880   0.842   1.562   0.338 -0.1985  0.6028  0.1172
 4822TIP3    H135881   0.830   1.550   0.243  1.2017  0.4044 -0.0592
 4822TIP3    H235882   0.772   1.621   0.364  0.6050  2.3108 -1.4260
 4823TIP3   OH235883   1.783   1.615  11.428 -0.4110  0.0218 -0.7755
 4823TIP3    H135884   1.794   1.656  11.342  0.1388  1.3804 -0.0877
 4823TIP3    H235885   1.781   1.521  11.409  0.3830  0.2539 -2.2066
 4824TIP3   OH235886   1.582   0.835   3.033 -0.4759 -0.0347  0.0130
 4824TIP3    H135887   1.630   0.871   3.108 -0.1388 -0.7575  0.1537
 4824TIP3    H235888   1.618   0.747   3.022  3.2102  1.6585 -4.1261
 4825TIP3   OH235889   2.963   6.145  15.273  0.2565  0.1714 -0.5126
 4825TIP3    H135890   2.893   6.175  15.215 -1.1687 -0.6539  0.6925
 4825TIP3    H235891   2.920   6.132  15.358  1.5287 -1.8139 -0.0878
 4826TIP3   OH235892   3.494   0.114  16.617 -0.0693 -0.5236  0.3475
 4826TIP3    H135893   3.526   0.122  16.527 -0.1905  0.7488  0.4013
 4826TIP3    H235894   3.573   0.114  16.671 -0.0459  0.4438  0.3375
 4827TIP3   OH235895   4.736   1.823   3.825  0.2206  0.2107  0.4885
 4827TIP3    H135896   4.827   1.802   3.846  1.3869  2.4388 -1.7625
 4827TIP3    H235897   4.731   1.814   3.730 -2.1164 -0.4037  0.6121
 4828TIP3   OH235898   5.344   2.396  12.307 -0.2960  0.1600  0.0044
 4828TIP3    H135899   5.407   2.343  12.357 -1.8189 -1.4215  0.3679
 4828TIP3    H235900   5.358   2.369  12.216 -0.0108  0.3065  0.0032
 4829TIP3   OH235901   0.052   1.870   3.110  0.1730 -0.0383 -0.5611
 4829TIP3    H135902   0.095   1.790   3.082  0.1325 -0.5683  0.8193
 4829TIP3    H235903   0.024   1.852   3.199 -0.0002  1.4567 -0.2907
 4830TIP3   OH235904   3.113   4.331   0.174  0.3759 -0.4017 -0.5677
 4830TIP3    H135905   3.182   4.394   0.153  1.1984 -1.1884 -0.3049
 4830TIP3    H235906   3.125   4.312   0.267 -1.2934  0.7329 -0.0705
 4831TIP3   OH235907   0.807   5.136  10.482 -0.1586  0.1719 -0.0176
 4831TIP3    H135908   0.845   5.153  10.396  0.9401  0.0094  0.4195
 4831TIP3    H235909   0.879   5.098  10.533 -1.3573 -1.7277  0.3431
 4832TIP3   OH235910   4.312   3.112   2.383  0.3738 -0.1608  0.1939
 4832TIP3    H135911   4.367   3.092   2.308 -0.6475  0.6524 -0.8036
 4832TIP3    H235912   4.306   3.207   2.385 -1.2641 -0.2207  0.0320
 4833TIP3   OH235913   1.882   3.524  16.474  0.4052  0.4038  0.2788
 4833TIP3    H135914   1.853   3.433  16.473 -0.2931  0.5412 -2.9307
 4833TIP3    H235915   1.965   3.523  16.426  0.2437  1.4825 -0.0522
 4834TIP3   OH235916   0.842   4.457  14.074 -0.3355  0.1762 -0.4303
 4834TIP3    H135917   0.824   4.519  14.003 -2.3321 -3.4790 -3.4713
 4834TIP3    H235918   0.794   4.493  14.149 -1.7790  2.1120 -2.1391
 4835TIP3   OH235919   1.686   2.205   0.931  0.0630 -0.0165 -0.3832
 4835TIP3    H135920   1.619   2.270   0.910 -0.3817 -0.3195  0.0621
 4835TIP3    H235921   1.700   2.156   0.850 -1.1535 -0.7477 -0.1736
 4836TIP3   OH235922   3.063   0.988   2.079 -0.3321  0.0912  0.1267
 4836TIP3    H135923   3.123   1.037   2.023 -0.3578 -0.7867 -0.7064
 4836TIP3    H235924   2.989   1.047   2.094  0.9290  1.3891  1.5909
 4837TIP3   OH235925   0.131   4.097   3.970  0.0323  0.2732  0.1172
 4837TIP3    H135926   0.149   4.030   3.904 -0.1499  0.8944 -0.5682
 4837TIP3    H235927   0.057   4.147   3.936 -1.2850 -0.5260  1.6453
 4838TIP3   OH235928   0.341   4.431  15.842 -0.2765  0.2570  0.1254
 4838TIP3    H135929   0.350   4.509  15.897 -2.0556  1.2955 -0.9686
 4838TIP3    H235930   0.340   4.464  15.753  0.0555 -1.1581 -0.4322
 4839TIP3   OH235931   1.117   6.583   5.268 -0.5275  0.1391 -0.4117
 4839TIP3    H135932   1.161   6.667   5.281 -1.2134  0.8298 -2.3366
 4839TIP3    H235933   1.188   6.519   5.264  0.0555  0.7332  0.1345
 4840TIP3   OH235934   2.015   4.684   1.301 -0.5713  0.2160  0.0081
 4840TIP3    H135935   2.012   4.723   1.388  2.2391 -3.5748  2.1255
 4840TIP3    H235936   2.097   4.715   1.263 -0.0666 -0.7833  0.2418
 4841TIP3   OH235937   2.137   6.032   6.130  0.0048 -0.0206  0.3399
 4841TIP3    H135938   2.227   6.041   6.160  0.3183 -0.9351 -0.2988
 4841TIP3    H235939   2.085   6.033   6.211  0.6462 -0.1814  0.7625
 4842TIP3   OH235940   3.511   0.802   0.043 -0.1900  0.1339 -0.2021
 4842TIP3    H135941   3.472   0.882   0.076 -0.5938 -0.1828  0.0976
 4842TIP3    H235942   3.540   0.824  -0.045 -1.4282  0.2563 -0.5898
 4843TIP3   OH235943   0.432   2.231   1.850  0.4758  0.3721 -0.2441
 4843TIP3    H135944   0.527   2.230   1.849  0.4851  0.4492  0.4433
 4843TIP3    H235945   0.407   2.240   1.757  1.1221 -0.0988 -0.4648
 4844TIP3   OH235946   4.487   6.455  15.879 -0.1373  0.4643 -0.0688
 4844TIP3    H135947   4.493   6.397  15.803 -0.2343 -0.2982  0.4992
 4844TIP3    H235948   4.395   6.482  15.881 -0.3256 -0.1798  0.2566
 4845TIP3   OH235949   0.963   4.795   5.198  0.0068  0.2359  0.1063
 4845TIP3    H135950   1.005   4.726   5.249  0.8437  0.2731 -0.5191
 4845TIP3    H235951   1.019   4.871   5.209  0.1874  0.2536 -0.8350
 4846TIP3   OH235952   1.949   5.983   2.970 -0.2283 -0.3744 -0.5040
 4846TIP3    H135953   1.962   5.906   2.914  0.4803 -0.8856  0.3337
 4846TIP3    H235954   1.854   5.991   2.977 -0.3390 -0.1092 -2.0213
 4847TIP3   OH235955   1.886   5.407   0.032 -0.4090  0.4048 -0.1851
 4847TIP3    H135956   1.847   5.382   0.116 -1.8054 -0.5027 -1.0730
 4847TIP3    H235957   1.952   5.340   0.016 -1.7880 -0.8331 -0.9159
 4848TIP3   OH235958   4.174   3.193  10.988 -0.4820  1.2569 -0.0688
 4848TIP3    H135959   4.091   3.168  11.029 -0.1944  1.5048  0.6635
 4848TIP3    H235960   4.148   3.245  10.911 -1.2201 -2.4945 -2.6657
 4849TIP3   OH235961   0.506   1.140  14.674 -0.7556 -0.2156 -0.1671
 4849TIP3    H135962   0.544   1.060  14.711 -1.2227 -0.1410  0.5004
 4849TIP3    H235963   0.486   1.118  14.583 -4.9583 -2.3873  1.0069
 4850TIP3   OH235964   5.132   1.181  15.407  0.1056 -0.1483 -0.0319
 4850TIP3    H135965   5.209   1.228  15.440 -0.5144  0.4878  0.5306
 4850TIP3    H235966   5.167   1.122  15.340  0.8549  1.4670 -1.1432
 4851TIP3   OH235967   5.119   2.622   3.048  0.2343  0.0930  0.4553
 4851TIP3    H135968   5.123   2.635   2.953 -0.4750 -1.9975  0.0702
 4851TIP3    H235969   5.199   2.663   3.081  0.8432  0.2759 -1.1250
 4852TIP3   OH235970   6.319   3.996  11.783  0.4307 -0.5411 -0.2008
 4852TIP3    H135971   6.295   4.087  11.765  1.0146 -0.6748 -1.8331
 4852TIP3    H235972   6.338   3.994  11.877 -0.1057  0.8938 -0.0374
 4853TIP3   OH235973   1.396   0.566  11.670  0.3747 -0.1334 -0.2724
 4853TIP3    H135974   1.326   0.630  11.683 -0.4984 -1.3978  1.8417
 4853TIP3    H235975   1.352   0.481  11.677  1.7967 -0.9692 -1.0758
 4854TIP3   OH235976   5.748   5.402   6.696  0.0851 -0.3499 -0.0830
 4854TIP3    H135977   5.742   5.474   6.758 -1.0897  0.3780 -0.9983
 4854TIP3    H235978   5.837   5.368   6.707  0.8400  1.5442  0.0321
 4855TIP3   OH235979   1.171   3.318   1.397 -0.1332 -0.3104  0.1958
 4855TIP3    H135980   1.142   3.235   1.357 -1.2914  0.3887 -0.4972
 4855TIP3    H235981   1.259   3.332   1.363 -0.6039 -0.3888 -1.1156
 4856TIP3   OH235982   4.397   5.191   0.629 -0.1437  0.9641 -0.2547
 4856TIP3    H135983   4.313   5.236   0.644 -1.7191 -2.3888  2.4725
 4856TIP3    H235984   4.373   5.099   0.619  3.1977 -0.0261 -0.2629
 4857TIP3   OH235985   0.854   2.200  14.978 -0.7125 -0.3118 -0.0472
 4857TIP3    H135986   0.864   2.258  14.903  0.3026 -0.4862 -0.0618
 4857TIP3    H235987   0.864   2.258  15.054 -2.2532 -0.0476 -0.0257
 4858TIP3   OH235988   4.055   4.004   0.909 -0.3719 -0.7604 -0.2027
 4858TIP3    H135989   4.107   4.023   0.831 -1.2308  0.3664 -0.5286
 4858TIP3    H235990   3.973   4.050   0.894 -0.5105 -0.4288  1.4256
 4859TIP3   OH235991   0.539   4.486   1.465 -0.0314  0.1089  0.1940
 4859TIP3    H135992   0.569   4.516   1.379 -1.6430  0.2333 -0.3449
 4859TIP3    H235993   0.542   4.391   1.460 -0.8178  0.1077 -0.2537
 4860TIP3   OH235994   4.085   0.669  12.805  0.2059  0.0235  0.4933
 4860TIP3    H135995   4.055   0.732  12.739  1.8742  0.0562 -0.2969
 4860TIP3    H235996   4.024   0.596  12.798  0.2775  0.0690 -1.0537
 4861TIP3   OH235997   0.783   4.712  17.334  0.1139 -0.0606 -0.4257
 4861TIP3    H135998   0.758   4.661  17.257 -0.9160  0.3394 -0.3818
 4861TIP3    H235999   0.704   4.713  17.388  0.6098  0.2589  0.3091
 4862TIP3   OH236000   1.871   6.462  12.989  0.0310  0.0473 -0.6404
 4862TIP3    H136001   1.803   6.467  13.056 -1.0765 -0.9865 -1.6282
 4862TIP3    H236002   1.892   6.369  12.983 -0.5181 -0.0076 -2.2845
 4863TIP3   OH236003   6.614   2.780  15.699  0.9290  0.3129  0.1611
 4863TIP3    H136004   6.644   2.806  15.612  1.3290  0.1909  0.2577
 4863TIP3    H236005   6.519   2.791  15.696  0.7062 -1.5266 -0.9243
 4864TIP3   OH236006   5.336   3.029   3.072  0.8623 -0.4659 -0.0859
 4864TIP3    H136007   5.425   3.028   3.108  1.3690  2.8059 -0.9394
 4864TIP3    H236008   5.342   2.978   2.992  1.6699 -1.1957  0.4109
 4865TIP3   OH236009   5.543   4.708   1.672  0.0487  0.6287  0.0758
 4865TIP3    H136010   5.495   4.784   1.708  1.5814  2.6222 -1.8604
 4865TIP3    H236011   5.631   4.741   1.657  1.4881 -2.3085  1.4008
 4866TIP3   OH236012   3.242   6.660   1.154  0.0916 -0.3663  0.1607
 4866TIP3    H136013   3.202   6.718   1.218 -0.3970 -1.6740  1.0835
 4866TIP3    H236014   3.215   6.695   1.069 -1.0736  0.1249  0.7182
 4867TIP3   OH236015   3.614   3.686   5.379 -0.1100 -0.7768 -0.1872
 4867TIP3    H136016   3.529   3.731   5.379  0.2322 -0.1052 -0.6299
 4867TIP3    H236017   3.600   3.608   5.431 -0.8705 -0.4144  0.1697
 4868TIP3   OH236018   4.716   1.488  13.303 -0.5080 -0.2698 -0.3367
 4868TIP3    H136019   4.741   1.499  13.394  1.7536 -0.7641 -0.8477
 4868TIP3    H236020   4.773   1.548  13.255 -1.2119 -0.4846 -1.4946
 4869TIP3   OH236021   6.145   3.202  16.135  0.6839 -0.3377  0.3908
 4869TIP3    H136022   6.064   3.246  16.159  0.8023 -0.7004  1.5290
 4869TIP3    H236023   6.122   3.109  16.133  0.6176 -0.3107 -1.2273
 4870TIP3   OH236024   3.914   1.097   3.877  0.0892 -0.2888 -0.0866
 4870TIP3    H136025   3.949   1.168   3.824 -0.8195 -0.0822 -0.4307
 4870TIP3    H236026   3.899   1.136   3.963  1.0592 -0.4825  0.1777
 4871TIP3   OH236027   6.151   4.801   5.255 -0.1604  0.0546 -0.2263
 4871TIP3    H136028   6.152   4.716   5.210 -1.9043  0.5067 -1.2081
 4871TIP3    H236029   6.183   4.782   5.343  1.9137 -1.1456 -1.1509
 4872TIP3   OH236030   5.647   1.915  14.997  0.1688  0.0727  0.3131
 4872TIP3    H136031   5.723   1.860  14.980 -0.3442  0.3135 -3.6716
 4872TIP3    H236032   5.572   1.859  14.978 -0.6513  0.4461  2.1942
 4873TIP3   OH236033   1.487   5.316  13.714 -0.4690  0.3410  0.1990
 4873TIP3    H136034   1.394   5.329  13.699 -0.2409  2.7888  0.4663
 4873TIP3    H236035   1.492   5.273  13.799 -1.3452 -0.3739 -0.0929
 4874TIP3   OH236036   2.964   1.423   2.596 -0.2271 -0.4013 -0.0243
 4874TIP3    H136037   2.984   1.371   2.674  1.1048  0.4983  0.2735
 4874TIP3    H236038   3.025   1.391   2.529  0.7430  0.8298  0.2163
 4875TIP3   OH236039   6.261   6.167  12.144 -0.1041  0.9253 -0.3773
 4875TIP3    H136040   6.249   6.257  12.113 -1.3497  0.7166 -0.5300
 4875TIP3    H236041   6.198   6.116  12.094 -0.0610  0.1086  0.3880
 4876TIP3   OH236042   5.778   4.294  16.786 -0.4054  0.5431  0.4334
 4876TIP3    H136043   5.760   4.311  16.879  0.5669 -0.5775  0.8494
 4876TIP3    H236044   5.704   4.240  16.758 -0.0911 -0.1681  0.9151
 4877TIP3   OH236045   5.124   6.271  13.781  0.2154  0.1507 -0.5857
 4877TIP3    H136046   5.089   6.307  13.863  1.6182  0.0574  0.1038
 4877TIP3    H236047   5.120   6.176  13.792  1.7422  0.1200  0.0427
 4878TIP3   OH236048   6.272   3.727   3.901  0.0335 -0.2186  0.1449
 4878TIP3    H136049   6.367   3.713   3.910  0.3073  1.6921  0.5702
 4878TIP3    H236050   6.234   3.674   3.971  0.9100  0.2129  0.9769
 4879TIP3   OH236051   0.805   1.464   3.861  0.0897  0.3277  0.0762
 4879TIP3    H136052   0.716   1.491   3.883 -0.3743 -0.9053 -0.1732
 4879TIP3    H236053   0.794   1.383   3.811  1.2871  0.9268 -1.2584
 4880TIP3   OH236054   4.798   2.153   3.428  0.0158 -0.3473  0.0727
 4880TIP3    H136055   4.888   2.153   3.460 -0.1629 -2.3754  0.7337
 4880TIP3    H236056   4.795   2.079   3.368 -0.7987  0.7613 -1.3142
 4881TIP3   OH236057   2.688   1.172  12.888 -0.1761  0.3048 -0.0012
 4881TIP3    H136058   2.759   1.143  12.831  0.3989  0.8498  0.4196
 4881TIP3    H236059   2.644   1.091  12.916  1.3552 -0.1787  1.1134
 4882TIP3   OH236060   3.312   3.710   5.447 -0.1857 -0.6581  0.1739
 4882TIP3    H136061   3.335   3.682   5.535  0.3010  2.0013  0.9862
 4882TIP3    H236062   3.221   3.738   5.453  0.0281  0.0988  0.0025
 4883TIP3   OH236063   6.584   6.703  13.867  0.1697  0.2491 -0.0344
 4883TIP3    H136064   6.618   6.743  13.787 -0.2171  0.3513 -0.1504
 4883TIP3    H236065   6.580   6.776  13.930  1.2071  0.0148  0.3218
 4884TIP3   OH236066   5.015   0.946   4.134  0.3032 -0.0665 -0.0355
 4884TIP3    H136067   4.955   0.965   4.062 -0.3331  0.4441  0.6139
 4884TIP3    H236068   5.071   0.876   4.101 -1.7068 -1.7489 -0.1334
 4885TIP3   OH236069   5.832   4.135  15.921  0.7473  0.3556  0.3446
 4885TIP3    H136070   5.841   4.216  15.971  3.4961  0.8528 -0.7745
 4885TIP3    H236071   5.817   4.164  15.831 -3.4321 -0.5185  0.5555
 4886TIP3   OH236072   5.662   3.937  10.712  0.2578  0.4215  0.3559
 4886TIP3    H136073   5.751   3.906  10.727  0.9228  1.7427 -0.7138
 4886TIP3    H236074   5.637   3.977  10.796  0.8391  0.4319  0.5316
 4887TIP3   OH236075   6.471   3.964   2.072 -0.4669 -0.0386  0.2110
 4887TIP3    H136076   6.447   3.912   1.995  0.2384  1.2238 -0.9087
 4887TIP3    H236077   6.462   3.903   2.145  1.5957 -2.1615 -1.1478
 4888TIP3   OH236078   2.402   4.527  15.730 -0.1047 -0.3573  0.2640
 4888TIP3    H136079   2.380   4.613  15.693  2.0468  0.0257 -0.2537
 4888TIP3    H236080   2.380   4.535  15.823  0.4113  0.9127  0.3040
 4889TIP3   OH236081   5.007   5.324  12.259 -0.5833 -0.1496  0.2892
 4889TIP3    H136082   4.967   5.387  12.199  1.9887  0.4963 -0.8776
 4889TIP3    H236083   5.018   5.245  12.207 -2.0465 -1.0091  1.1960
 4890TIP3   OH236084   0.411   2.448  11.263  0.6549 -0.2319  0.1392
 4890TIP3    H136085   0.453   2.424  11.180  0.5997 -0.7271  0.2533
 4890TIP3    H236086   0.343   2.382  11.276  0.8181 -0.2943  0.6965
 4891TIP3   OH236087   1.949   5.018   2.937  0.3302  0.3732 -0.0195
 4891TIP3    H136088   1.859   5.037   2.910  0.3137  0.5131  0.1338
 4891TIP3    H236089   2.002   5.045   2.862  0.4215  2.3156  0.6803
 4892TIP3   OH236090   0.934   3.253  14.031 -0.1052 -0.0544 -0.3801
 4892TIP3    H136091   1.020   3.242  14.070 -0.5004  0.6675  0.7542
 4892TIP3    H236092   0.947   3.317  13.960 -0.1701  2.4464  1.7063
 4893TIP3   OH236093   4.833   3.479   6.079 -0.4505 -0.3368  0.5924
 4893TIP3    H136094   4.871   3.560   6.114  0.6138 -1.4900  2.2387
 4893TIP3    H236095   4.838   3.490   5.984  0.6004  1.1134  0.7720
 4894TIP3   OH236096   3.512   3.797   1.654  0.3451 -0.7668  0.8471
 4894TIP3    H136097   3.420   3.822   1.651  0.4911 -0.1910 -2.0387
 4894TIP3    H236098   3.559   3.880   1.667  0.4988 -1.0279  2.0741
 4895TIP3   OH236099   4.609   1.194  16.864  0.1373  0.5305  0.1610
 4895TIP3    H136100   4.631   1.262  16.927  0.4880  0.5411  0.0285
 4895TIP3    H236101   4.639   1.113  16.905  1.6596  0.6797 -0.5828
 4896TIP3   OH236102   2.910   6.754  11.851 -0.6901 -0.5241 -0.2893
 4896TIP3    H136103   2.995   6.787  11.881 -0.6473 -0.5108 -0.4256
 4896TIP3    H236104   2.918   6.658  11.857 -1.1245 -0.4996  0.9652
 4897TIP3   OH236105   6.671   6.192  12.781 -0.5054 -0.1084  0.1714
 4897TIP3    H136106   6.759   6.173  12.749 -1.3468 -2.2193 -1.0910
 4897TIP3    H236107   6.663   6.287  12.774  0.7840 -0.1074 -2.1609
 4898TIP3   OH236108   4.313   2.137  15.782 -0.2186  0.0388 -0.0119
 4898TIP3    H136109   4.236   2.083  15.762  0.4796 -1.0245  0.0997
 4898TIP3    H236110   4.281   2.201  15.846 -1.8008  1.7109 -2.3051
 4899TIP3   OH236111   4.432   4.330  13.988 -0.4520 -0.8330 -0.1992
 4899TIP3    H136112   4.498   4.400  13.992 -0.0061 -1.1507 -1.4394
 4899TIP3    H236113   4.463   4.273  13.918 -1.3456 -1.7357  0.1245
 4900TIP3   OH236114   5.399   6.600   1.250 -0.3164  0.2609 -0.5489
 4900TIP3    H136115   5.458   6.673   1.233 -1.4158  1.5373  0.7964
 4900TIP3    H236116   5.345   6.630   1.323 -1.3343 -1.6093 -0.4755
 4901TIP3   OH236117   4.236   1.157  16.504 -0.5439 -0.4770  0.0278
 4901TIP3    H136118   4.261   1.212  16.578  0.6867  0.5826 -1.1462
 4901TIP3    H236119   4.269   1.202  16.427 -3.2759 -0.6545 -1.3840
 4902TIP3   OH236120   5.181   0.118  14.793  0.1374 -0.2246  0.2502
 4902TIP3    H136121   5.208   0.038  14.839 -2.4190 -0.9023  0.7372
 4902TIP3    H236122   5.233   0.119  14.714  0.9145 -1.8848  0.6889
 4903TIP3   OH236123   0.612   3.866   0.999  0.4271 -0.2684 -0.5234
 4903TIP3    H136124   0.525   3.906   0.998  0.6119  0.3201 -3.8225
 4903TIP3    H236125   0.597   3.774   0.976  0.7260  0.1491 -2.5264
 4904TIP3   OH236126   4.845   0.239   5.442  0.1593 -0.2507  0.0377
 4904TIP3    H136127   4.891   0.193   5.513  2.6705 -0.1611 -1.4092
 4904TIP3    H236128   4.828   0.171   5.377  0.7790  0.2238 -0.6335
 4905TIP3   OH236129   0.201   1.049  14.576  0.2381 -0.7561  0.2125
 4905TIP3    H136130   0.224   1.136  14.544 -0.1184 -0.5570  0.4935
 4905TIP3    H236131   0.106   1.053  14.589  0.3984 -0.7808  1.4711
 4906TIP3   OH236132   2.241   1.673   5.120 -0.1682 -0.0651  0.5506
 4906TIP3    H136133   2.246   1.755   5.070  0.6881  0.1313  0.9424
 4906TIP3    H236134   2.326   1.667   5.164 -1.5109  0.7081  3.5015
 4907TIP3   OH236135   5.740   3.492   1.356  0.5257 -0.1589  0.2153
 4907TIP3    H136136   5.813   3.554   1.356 -0.5167  1.0899  0.5479
 4907TIP3    H236137   5.716   3.484   1.448  0.5012 -0.9005  0.1495
 4908TIP3   OH236138   3.979   2.274  15.766 -0.8807  0.2913  1.1149
 4908TIP3    H136139   3.889   2.279  15.734 -0.4697  0.6062 -0.0189
 4908TIP3    H236140   4.016   2.197  15.724 -0.0818  1.1810  0.1290
 4909TIP3   OH236141   4.505   5.152  16.412 -0.4003 -0.2012 -0.3286
 4909TIP3    H136142   4.585   5.121  16.370 -0.8612 -0.6692 -0.8733
 4909TIP3    H236143   4.435   5.123  16.354 -0.8581  1.9430 -0.9478
 4910TIP3   OH236144   5.047   3.297  17.071 -0.1939 -0.0951 -0.3693
 4910TIP3    H136145   5.008   3.234  17.010  0.8858 -0.7797 -0.3800
 4910TIP3    H236146   4.976   3.357  17.091 -1.4497 -1.6634  0.1233
 4911TIP3   OH236147   5.234   6.523  15.685  0.4599 -0.0368  0.0828
 4911TIP3    H136148   5.309   6.552  15.633 -1.4574 -0.2595 -3.1157
 4911TIP3    H236149   5.194   6.453  15.632 -1.3092 -0.7976  2.2400
 4912TIP3   OH236150   4.094   4.103  11.782 -0.2680 -0.1055 -0.0084
 4912TIP3    H136151   4.020   4.043  11.779 -0.7901  0.4681  1.0568
 4912TIP3    H236152   4.164   4.057  11.734 -1.2272 -0.7379 -0.8474
 4913TIP3   OH236153   6.118   4.085   3.739  0.3392  0.3891  0.3631
 4913TIP3    H136154   6.071   4.003   3.751  0.9707 -0.0006  0.2431
 4913TIP3    H236155   6.200   4.073   3.787  0.9853  0.4619 -0.6717
 4914TIP3   OH236156   3.859   0.439  15.507 -0.3719 -0.0019 -0.1309
 4914TIP3    H136157   3.870   0.471  15.597 -0.2918 -0.0430 -0.1263
 4914TIP3    H236158   3.929   0.374  15.496  0.3452  0.8241 -0.5944
 4915TIP3   OH236159   3.923   3.917  11.701  0.4945  0.4031 -0.0608
 4915TIP3    H136160   3.856   3.967  11.654 -0.1137  1.1185  1.4753
 4915TIP3    H236161   3.877   3.883  11.778  1.6397 -0.0342  0.4577
 4916TIP3   OH236162   4.308   6.561  14.228  0.7792 -0.4033 -0.4410
 4916TIP3    H136163   4.360   6.553  14.308  2.8658  2.0041 -1.3991
 4916TIP3    H236164   4.331   6.484  14.176  1.7566 -0.4464  0.0421
 4917TIP3   OH236165   1.674   1.068  11.812 -0.2157 -0.0879  0.0718
 4917TIP3    H136166   1.622   1.141  11.846 -0.6423  0.5177 -1.7673
 4917TIP3    H236167   1.698   1.095  11.724  2.5898 -0.6901  0.5499
 4918TIP3   OH236168   0.587   0.679  12.888 -0.2271 -0.1389  0.3459
 4918TIP3    H136169   0.627   0.722  12.813  0.7913 -0.4553  0.6892
 4918TIP3    H236170   0.590   0.745  12.958  1.9731 -0.9140  1.0765
 4919TIP3   OH236171   2.952   0.501   1.774  0.1322 -0.3270  0.7572
 4919TIP3    H136172   2.984   0.440   1.707 -1.9370  0.4257 -1.0354
 4919TIP3    H236173   2.857   0.495   1.768 -0.1145  1.8712  1.6562
 4920TIP3   OH236174   3.666   4.964  16.484 -0.6488 -0.2578 -0.1581
 4920TIP3    H136175   3.732   4.896  16.472  1.2221  1.4487 -0.0378
 4920TIP3    H236176   3.592   4.934  16.432  0.5094 -1.8619 -0.9769
 4921TIP3   OH236177   5.878   2.698  11.036 -0.1831  0.0205  0.0475
 4921TIP3    H136178   5.877   2.602  11.041  0.3851  0.0583  1.5440
 4921TIP3    H236179   5.948   2.724  11.096 -0.8021  1.4048  0.2034
 4922TIP3   OH236180   3.099   0.410   0.572  0.8694  0.4445  0.8310
 4922TIP3    H136181   3.111   0.486   0.629  1.7441  0.8851  0.0755
 4922TIP3    H236182   3.187   0.390   0.540  0.4552 -0.0863  0.0050
 4923TIP3   OH236183   3.506   1.470  16.460 -0.0484 -0.4011  0.3233
 4923TIP3    H136184   3.431   1.429  16.418  0.6163 -2.4840  1.0389
 4923TIP3    H236185   3.582   1.434  16.414  0.6469 -1.8264  2.4244
 4924TIP3   OH236186   3.669   2.476   1.712 -0.2889  0.3529 -0.1952
 4924TIP3    H136187   3.615   2.515   1.643 -0.5401  2.9176  1.3597
 4924TIP3    H236188   3.607   2.431   1.769 -0.3466  0.2789 -0.3145
 4925TIP3   OH236189   5.237   2.873  11.733 -0.1203  1.1191  0.1903
 4925TIP3    H136190   5.226   2.965  11.710  0.8483  0.6927 -2.2684
 4925TIP3    H236191   5.299   2.874  11.806  0.8538  2.4056 -0.5998
 4926TIP3   OH236192   0.681   4.771  11.127  0.1955 -0.2676  0.5512
 4926TIP3    H136193   0.677   4.856  11.084  1.0760 -0.7554 -0.5443
 4926TIP3    H236194   0.684   4.708  11.056 -2.8847 -1.4190  1.2915
 4927TIP3   OH236195   4.212   2.723   0.284 -0.3553  0.0650  0.1712
 4927TIP3    H136196   4.222   2.629   0.298 -2.5344 -0.3620 -0.6764
 4927TIP3    H236197   4.301   2.754   0.266  0.8794 -1.2568  3.3092
 4928TIP3   OH236198   2.831   2.690   5.766  0.1095 -0.7322  0.3891
 4928TIP3    H136199   2.743   2.694   5.803  0.1984  0.0092  0.5378
 4928TIP3    H236200   2.888   2.677   5.841  0.2292  0.0754  0.4508
 4929TIP3   OH236201   3.942   4.665   4.205 -0.6371  0.1596  0.2844
 4929TIP3    H136202   4.033   4.649   4.179 -0.4699 -0.4377  1.1877
 4929TIP3    H236203   3.948   4.727   4.278 -0.9853  0.4547  0.0659
 4930TIP3   OH236204   0.068   0.252  14.424 -0.0771 -0.0420  0.5259
 4930TIP3    H136205   0.002   0.190  14.454 -0.1060  0.1218  0.7987
 4930TIP3    H236206   0.124   0.268  14.500  0.5872 -0.5750  0.1604
 4931TIP3   OH236207   0.880   3.905  11.801  0.2520  0.2923 -0.2948
 4931TIP3    H136208   0.868   3.848  11.726  2.9134  0.2345 -0.7891
 4931TIP3    H236209   0.805   3.887  11.858  0.1862 -2.5400 -1.1350
 4932TIP3   OH236210   2.365   4.534  15.995 -0.2989  0.0557  0.0595
 4932TIP3    H136211   2.349   4.456  16.049  0.2540 -0.1038 -0.0038
 4932TIP3    H236212   2.328   4.606  16.046  0.0151 -0.1233  0.5511
 4933TIP3   OH236213   3.811   0.733  13.034 -0.0511  0.2402  0.0239
 4933TIP3    H136214   3.905   0.731  13.052 -0.1487  0.2831  0.5621
 4933TIP3    H236215   3.770   0.726  13.120 -0.5387  0.8834 -0.1466
 4934TIP3   OH236216   5.005   3.426  16.629  0.4715 -0.8266 -0.0212
 4934TIP3    H136217   5.075   3.362  16.636  1.5522  0.0980 -1.6266
 4934TIP3    H236218   5.037   3.489  16.564 -0.5803  1.2712  1.3762
 4935TIP3   OH236219   5.068   3.394   2.680 -0.0079  0.1025 -0.0168
 4935TIP3    H136220   5.151   3.405   2.634  0.5568  0.8985  1.1298
 4935TIP3    H236221   5.029   3.316   2.641  0.6936  0.4197 -1.4221
 4936TIP3   OH236222   2.067   2.564  14.734 -0.4972  0.0343 -0.3694
 4936TIP3    H136223   2.145   2.578  14.787  0.1552  2.0802 -1.7567
 4936TIP3    H236224   2.006   2.632  14.764 -1.1090 -0.4681 -0.4652
 4937TIP3   OH236225   5.105   3.924   2.624 -0.5010  0.0717 -0.1764
 4937TIP3    H136226   5.065   3.917   2.537  0.0382  1.1483 -0.5271
 4937TIP3    H236227   5.187   3.875   2.617 -0.7891 -0.4304 -0.0608
 4938TIP3   OH236228   1.651   1.546  16.306  0.1066  0.2497  0.0839
 4938TIP3    H136229   1.636   1.596  16.386  2.0331 -0.9731  1.2975
 4938TIP3    H236230   1.730   1.585  16.268 -0.0443 -0.0154 -0.5192
 4939TIP3   OH236231   5.557   3.216   2.308  0.2569  0.5214  0.3479
 4939TIP3    H136232   5.479   3.264   2.279 -0.1205 -0.4007 -0.2461
 4939TIP3    H236233   5.620   3.229   2.237  0.3224  0.5543  0.4136
 4940TIP3   OH236234   4.058   1.763   3.116  0.0860 -0.0171  0.0754
 4940TIP3    H136235   4.011   1.845   3.134 -0.1322 -0.2916  0.7997
 4940TIP3    H236236   4.001   1.695   3.152 -0.4577 -0.6202 -1.8609
 4941TIP3   OH236237   3.679   0.260   5.337 -0.8367  0.0569 -0.6469
 4941TIP3    H136238   3.701   0.207   5.414  2.2721  0.7195 -0.9672
 4941TIP3    H236239   3.597   0.303   5.361 -0.8520 -1.0542  1.5948
 4942TIP3   OH236240   4.596   0.528   0.962 -0.2904 -0.2321 -0.0828
 4942TIP3    H136241   4.594   0.436   0.933  3.5388 -1.2874  2.3383
 4942TIP3    H236242   4.617   0.578   0.883 -2.1415 -1.3559 -1.3833
 4943TIP3   OH236243   3.413   6.492   0.816  0.2891  0.3070  0.0384
 4943TIP3    H136244   3.411   6.426   0.747 -0.2899  1.2933 -0.9316
 4943TIP3    H236245   3.322   6.519   0.826  0.5158  0.9773  0.3884
 4944TIP3   OH236246   3.949   6.614  13.151  0.0751 -0.0889  0.6476
 4944TIP3    H136247   3.955   6.567  13.234 -0.2977  0.6044  1.0821
 4944TIP3    H236248   3.855   6.620  13.135  0.1570 -0.6477 -0.0833
 4945TIP3   OH236249   0.128   5.236   5.669  0.0111 -0.2747  0.4225
 4945TIP3    H136250   0.194   5.271   5.609 -2.4659  0.1814 -2.2575
 4945TIP3    H236251   0.147   5.277   5.753  1.0972  2.5314 -1.0751
 4946TIP3   OH236252   1.246   4.875  13.227  0.3170  0.0758  0.5395
 4946TIP3    H136253   1.243   4.782  13.250 -1.9140  0.0873  0.5802
 4946TIP3    H236254   1.313   4.881  13.160  0.5802 -1.5501  0.6072
 4947TIP3   OH236255   3.571   5.656  15.786  0.2873  0.2518 -0.2840
 4947TIP3    H136256   3.567   5.724  15.719  1.3674  1.6678  1.0287
 4947TIP3    H236257   3.663   5.649  15.809  0.1362 -1.3101 -0.0050
 4948TIP3   OH236258   1.022   2.554  15.863 -0.2277  0.1557 -0.1558
 4948TIP3    H136259   0.990   2.477  15.910 -0.1475  1.0055  1.3510
 4948TIP3    H236260   1.117   2.540  15.855  0.0341  0.8066  1.5435
 4949TIP3   OH236261   4.952   1.167   3.830  0.1404 -0.2092  0.8411
 4949TIP3    H136262   4.938   1.197   3.740 -0.0789 -4.1408 -0.6343
 4949TIP3    H236263   4.871   1.191   3.876 -0.2597  0.7969 -0.3303
 4950TIP3   OH236264   3.816   1.585  14.107 -0.0647  0.0805 -0.0691
 4950TIP3    H136265   3.802   1.539  14.024 -0.3464 -1.2017  0.6494
 4950TIP3    H236266   3.787   1.674  14.092  1.2921  0.2798 -1.7878
 4951TIP3   OH236267   0.261   1.550   4.976  0.2938 -0.1729 -0.1017
 4951TIP3    H136268   0.180   1.522   4.934  0.5677 -0.3340 -0.5346
 4951TIP3    H236269   0.234   1.618   5.038  0.0365  1.2021 -1.6533
 4952TIP3   OH236270   5.292   4.607  14.643 -0.4376 -0.0663  0.3833
 4952TIP3    H136271   5.230   4.598  14.715  2.9079 -0.2147  3.5188
 4952TIP3    H236272   5.288   4.700  14.619 -1.1186  0.1514  1.2750
 4953TIP3   OH236273   2.718   0.246  16.947  0.6855  0.3386 -0.5503
 4953TIP3    H136274   2.809   0.271  16.935  0.9259 -0.9908 -1.6803
 4953TIP3    H236275   2.673   0.329  16.967  2.1219  0.9949  0.0576
 4954TIP3   OH236276   2.659   4.818   4.481 -0.0736  0.0396  0.3647
 4954TIP3    H136277   2.651   4.725   4.500 -0.9772  0.3445  1.6442
 4954TIP3    H236278   2.615   4.861   4.555 -1.3595  1.4302 -1.1415
 4955TIP3   OH236279   3.221   5.932  15.004 -0.2353  0.2122 -0.0046
 4955TIP3    H136280   3.239   5.959  14.915  0.8180  0.0593  0.1521
 4955TIP3    H236281   3.173   5.849  14.995  1.2191 -0.6055 -0.4155
 4956TIP3   OH236282   1.305   4.762  15.150 -0.2384  0.3828 -0.0491
 4956TIP3    H136283   1.250   4.700  15.102  2.0652 -1.3279 -0.6486
 4956TIP3    H236284   1.378   4.780  15.091 -0.9766  4.0944 -0.0727
 4957TIP3   OH236285   4.708   2.861  14.342  0.0243  0.5669  0.3757
 4957TIP3    H136286   4.758   2.847  14.262  0.5728  2.4063  0.3338
 4957TIP3    H236287   4.719   2.780  14.392  0.1660 -0.3791 -1.1242
 4958TIP3   OH236288   6.072   5.654   0.766 -0.0970 -0.2012  0.4469
 4958TIP3    H136289   6.006   5.586   0.752 -0.8177  0.1694  1.8445
 4958TIP3    H236290   6.150   5.621   0.722 -1.2420 -0.5607 -1.4138
 4959TIP3   OH236291   6.249   0.439   3.838 -0.2037 -0.0638 -0.9350
 4959TIP3    H136292   6.315   0.503   3.812 -1.6986  1.3532 -1.3932
 4959TIP3    H236293   6.298   0.374   3.888  1.5160  0.9825 -1.1612
 4960TIP3   OH236294   2.699   2.389  14.407  0.6137  0.3454 -0.0881
 4960TIP3    H136295   2.714   2.346  14.492 -0.9889 -1.1558 -0.4811
 4960TIP3    H236296   2.683   2.481  14.429  0.1936 -0.0180  1.2669
 4961TIP3   OH236297   1.859   1.797   2.369 -0.2503  0.5492 -0.1503
 4961TIP3    H136298   1.813   1.792   2.453 -0.3842  4.1454  0.1257
 4961TIP3    H236299   1.952   1.791   2.392 -0.3278 -1.0278 -0.1058
 4962TIP3   OH236300   1.826   0.552   5.535 -0.4020 -0.6614 -0.2120
 4962TIP3    H136301   1.746   0.500   5.540  0.1153 -1.4683 -0.1348
 4962TIP3    H236302   1.884   0.511   5.600  0.3243 -0.5304 -0.7779
 4963TIP3   OH236303   6.152   4.914  12.813 -0.3625 -0.1195 -0.2924
 4963TIP3    H136304   6.092   4.947  12.746 -2.4010 -1.0587  0.9649
 4963TIP3    H236305   6.239   4.941  12.783 -1.1856 -0.4293 -3.2412
 4964TIP3   OH236306   4.606   6.026  14.566 -0.2274 -0.0053 -0.1222
 4964TIP3    H136307   4.536   5.965  14.542  0.0160 -0.4316  0.2267
 4964TIP3    H236308   4.645   6.052  14.482  0.3158 -1.1256 -0.2395
 4965TIP3   OH236309   0.264   4.326  15.325 -0.4548  0.6302 -0.4679
 4965TIP3    H136310   0.251   4.418  15.301 -0.6387  0.3995 -1.2797
 4965TIP3    H236311   0.358   4.311  15.312 -0.3578  0.7935  0.0139
 4966TIP3   OH236312   0.030   0.913  11.045 -0.0175 -0.0913 -0.4569
 4966TIP3    H136313  -0.063   0.891  11.039 -0.1131  0.4848 -1.2359
 4966TIP3    H236314   0.042   0.985  10.983  0.8022  0.3422  0.1845
 4967TIP3   OH236315   5.037   5.757   0.502  0.1839  0.1288  0.3476
 4967TIP3    H136316   4.980   5.823   0.462  0.7518  0.9261  0.8540
 4967TIP3    H236317   5.013   5.756   0.594 -2.4831 -3.0593 -0.1684
 4968TIP3   OH236318   2.328   6.480  15.153  0.7248 -0.6431  0.0939
 4968TIP3    H136319   2.323   6.422  15.077  1.3195 -0.6880  0.0807
 4968TIP3    H236320   2.339   6.567  15.115  1.1002 -0.6746  0.1220
 4969TIP3   OH236321   6.241   1.475  12.103  0.2044  0.2531  0.8072
 4969TIP3    H136322   6.333   1.472  12.078  0.7254  0.5831  2.5454
 4969TIP3    H236323   6.218   1.568  12.099 -0.8515 -0.0182 -2.0950
 4970TIP3   OH236324   3.755   4.826   6.384  0.1684 -0.0129  0.6201
 4970TIP3    H136325   3.784   4.800   6.471  1.3060 -2.9075 -0.5137
 4970TIP3    H236326   3.688   4.762   6.360  1.1558 -0.4129 -1.2914
 4971TIP3   OH236327   6.260   2.726  14.494  0.5667 -0.0862  0.7783
 4971TIP3    H136328   6.272   2.776  14.413 -0.5471  0.5568  0.9865
 4971TIP3    H236329   6.308   2.645  14.480  1.6292  0.6511  0.0574
 4972TIP3   OH236330   0.237   6.567   2.841  0.0929 -0.0566 -0.0480
 4972TIP3    H136331   0.227   6.655   2.877  0.0586 -0.1243  0.1069
 4972TIP3    H236332   0.331   6.559   2.825  0.2703 -0.4732  1.1616
 4973TIP3   OH236333   0.056   0.955  11.944 -0.0545  0.2954  0.4034
 4973TIP3    H136334   0.129   0.991  11.994  0.6973 -0.9148  0.2050
 4973TIP3    H236335  -0.022   0.983  11.992  0.6057  0.1458  1.5931
 4974TIP3   OH236336   2.261   4.739   3.210 -0.0072  0.1161  0.6841
 4974TIP3    H136337   2.168   4.760   3.218 -0.3606 -0.9918 -0.2371
 4974TIP3    H236338   2.297   4.758   3.296 -1.3125 -0.4425  1.3882
 4975TIP3   OH236339   3.064   0.972   4.642  0.4071 -0.1227  0.1983
 4975TIP3    H136340   3.126   0.957   4.570 -0.8012 -0.6013 -0.7738
 4975TIP3    H236341   3.027   1.059   4.624 -0.3738 -0.5182 -0.1349
 4976TIP3   OH236342   4.788   2.938  16.676  0.3939  0.3244  0.3747
 4976TIP3    H136343   4.752   2.877  16.612  1.7471 -0.9747  0.8050
 4976TIP3    H236344   4.880   2.949  16.650  0.3608  1.6166  0.7370
 4977TIP3   OH236345   0.293   1.040   1.329  0.2663 -0.3835  1.0632
 4977TIP3    H136346   0.378   1.083   1.331  0.4028  0.0887 -3.5345
 4977TIP3    H236347   0.308   0.961   1.278 -2.2155  0.6077 -1.4666
 4978TIP3   OH236348   6.662   3.238  11.267 -0.4199  0.1306  0.2366
 4978TIP3    H136349   6.588   3.182  11.244 -0.5711  0.5393 -0.2965
 4978TIP3    H236350   6.625   3.305  11.324 -0.6290  0.7719 -0.6233
 4979TIP3   OH236351   3.931   6.643   6.321  0.2387  0.1330 -0.0934
 4979TIP3    H136352   3.842   6.611   6.308 -0.1254 -0.6801  3.3673
 4979TIP3    H236353   3.928   6.735   6.293 -2.0039  0.4014  0.8015
 4980TIP3   OH236354   3.309   4.952  13.314 -0.4599 -0.2284 -0.0571
 4980TIP3    H136355   3.347   4.865  13.307 -0.7474 -0.4896  1.2640
 4980TIP3    H236356   3.280   4.974  13.225  0.4636 -1.0743 -0.5808
 4981TIP3   OH236357   4.581   3.529   3.584 -0.3306 -0.4881  0.1535
 4981TIP3    H136358   4.487   3.521   3.597 -0.2731 -1.0368  0.2428
 4981TIP3    H236359   4.614   3.439   3.589 -0.1507 -0.6710 -2.6888
 4982TIP3   OH236360   5.381   4.690   2.732  0.1561 -0.0097 -0.0608
 4982TIP3    H136361   5.471   4.661   2.720  0.8247  1.8196  0.2297
 4982TIP3    H236362   5.333   4.653   2.658  0.5924 -2.9766  1.0221
 4983TIP3   OH236363   5.172   0.383  16.501  0.0049 -0.6536 -0.0036
 4983TIP3    H136364   5.129   0.326  16.565  1.3967 -0.2507  1.3586
 4983TIP3    H236365   5.226   0.442  16.555 -0.0232  0.7619 -1.4725
 4984TIP3   OH236366   6.513   1.111  13.269 -0.6167 -0.6048 -0.0696
 4984TIP3    H136367   6.578   1.068  13.325  1.8818 -0.1325 -2.4132
 4984TIP3    H236368   6.487   1.043  13.207 -2.0515 -0.6469  0.5527
 4985TIP3   OH236369   6.687   3.710   4.679 -0.1617 -0.5051  0.0902
 4985TIP3    H136370   6.771   3.701   4.724  0.5765  2.9515 -0.3301
 4985TIP3    H236371   6.693   3.651   4.604  1.9694 -0.2610  0.0253
 4986TIP3   OH236372   2.165   6.684   4.238  0.4687 -0.1824  0.1205
 4986TIP3    H136373   2.175   6.664   4.331 -0.4180  0.4110  0.3633
 4986TIP3    H236374   2.254   6.687   4.203  0.7321 -2.6640  0.4422
 4987TIP3   OH236375   5.042   2.595   5.617  0.7333  0.5046  0.2050
 4987TIP3    H136376   5.022   2.505   5.640 -0.1363  0.7062  0.2765
 4987TIP3    H236377   5.086   2.589   5.532  0.2352  0.0442 -0.0301
 4988TIP3   OH236378   3.875   1.237   3.105 -0.6493  0.6516  0.2832
 4988TIP3    H136379   3.807   1.198   3.160  0.1799 -0.0154  0.8681
 4988TIP3    H236380   3.879   1.181   3.028  1.0916 -1.0151  1.4756
 4989TIP3   OH236381   2.018   4.982   6.668  0.3864 -0.1636 -0.0792
 4989TIP3    H136382   1.978   5.068   6.680  0.6747  0.2093 -1.6419
 4989TIP3    H236383   1.970   4.925   6.728 -2.1369  0.3761 -1.4565
 4990TIP3   OH236384   2.189   3.623   2.634  0.2582 -0.2050 -0.2195
 4990TIP3    H136385   2.131   3.633   2.710  1.0773 -2.4719  0.7902
 4990TIP3    H236386   2.169   3.536   2.600  1.2632  0.0127 -1.4452
 4991TIP3   OH236387   6.167   4.648  11.692 -0.1769  0.3624  0.3507
 4991TIP3    H136388   6.203   4.567  11.728  1.1986  1.0805  0.6881
 4991TIP3    H236389   6.213   4.717  11.739 -0.9440  1.3436 -0.2969
 4992TIP3   OH236390   0.127   2.112   3.564 -0.1032 -0.0054  0.3029
 4992TIP3    H136391   0.113   2.151   3.651  0.1787 -1.0251  0.8201
 4992TIP3    H236392   0.212   2.145   3.536  0.2935 -0.5093  0.8911
 4993TIP3   OH236393   3.514   5.574   5.032 -0.1879  0.3130 -0.0170
 4993TIP3    H136394   3.517   5.633   4.958  0.1088 -2.2303 -2.1845
 4993TIP3    H236395   3.605   5.550   5.049 -0.3482 -0.0841  0.3335
 4994TIP3   OH236396   1.484   0.514   3.801  0.6523 -0.7056  0.3832
 4994TIP3    H136397   1.563   0.521   3.748 -0.1170  0.0884 -0.7118
 4994TIP3    H236398   1.501   0.569   3.877  1.4362 -1.1463  0.5350
 4995TIP3   OH236399   3.564   0.933   1.517  0.5645  0.1685  0.0693
 4995TIP3    H136400   3.504   0.998   1.552  0.5269 -0.5940  1.4827
 4995TIP3    H236401   3.511   0.883   1.454 -0.4695 -0.8165  1.6568
 4996TIP3   OH236402   4.414   0.314   5.393  0.0870 -0.1535  0.0529
 4996TIP3    H136403   4.449   0.282   5.311 -0.8049 -0.9822 -0.0221
 4996TIP3    H236404   4.476   0.382   5.421  1.4021 -1.1549 -0.3453
 4997TIP3   OH236405   5.595   0.397  14.049 -0.2171  0.4078  0.0772
 4997TIP3    H136406   5.645   0.437  14.120  0.2320 -1.2930  0.7593
 4997TIP3    H236407   5.636   0.312  14.035 -1.2522  0.0817 -1.2009
 4998TIP3   OH236408   4.198   6.401   2.592  0.2019 -0.1327 -0.2115
 4998TIP3    H136409   4.247   6.322   2.569  1.9650  0.6808  0.5655
 4998TIP3    H236410   4.223   6.465   2.525 -0.9961 -0.1138 -0.6737
 4999TIP3   OH236411   5.719   6.554   2.703 -0.9003 -0.0112  0.1229
 4999TIP3    H136412   5.640   6.516   2.741  0.4940 -1.3296  1.8371
 4999TIP3    H236413   5.725   6.641   2.743 -2.7708  1.2293 -1.9753
 5000TIP3   OH236414   2.697   4.940  13.025  0.4005  0.5400  0.0159
 5000TIP3    H136415   2.665   4.960  13.113  2.3354  1.5217  0.5617
 5000TIP3    H236416   2.639   4.870  12.994  0.0959 -0.3632  2.3580
 5001TIP3   OH236417   6.661   1.558  11.523 -0.2257 -0.2416  0.1572
 5001TIP3    H136418   6.709   1.554  11.605 -2.5447  3.1330  1.8998
 5001TIP3    H236419   6.597   1.488  11.530 -1.5604  1.0779  2.1730
 5002TIP3   OH236420   3.117   3.548   0.154  0.3510 -0.1058  0.0147
 5002TIP3    H136421   3.067   3.612   0.205  1.7595 -0.1226  1.5279
 5002TIP3    H236422   3.207   3.582   0.155  0.5469 -0.4279 -2.0045
 5003TIP3   OH236423   0.613   0.601  16.877  0.5001 -0.1358 -0.2107
 5003TIP3    H136424   0.703   0.570  16.890  0.1792 -1.5106 -1.1125
 5003TIP3    H236425   0.618   0.655  16.799  0.3402 -1.2096 -0.9819
 5004TIP3   OH236426   4.081   0.825   3.295 -0.3966  0.3685 -0.0445
 5004TIP3    H136427   4.074   0.738   3.255  2.3947  1.1796 -2.6827
 5004TIP3    H236428   4.131   0.810   3.376  1.0800 -0.4439 -1.0466
 5005TIP3   OH236429   3.678   0.865   5.674  0.5307  0.2793  0.1374
 5005TIP3    H136430   3.603   0.806   5.685  1.1148 -0.7001 -0.8090
 5005TIP3    H236431   3.713   0.842   5.588  1.4619  1.2470  0.2394
 5006TIP3   OH236432   0.438   3.328   4.407  0.8227 -0.8155  0.4742
 5006TIP3    H136433   0.507   3.365   4.352 -0.5809 -0.2358 -0.9739
 5006TIP3    H236434   0.459   3.359   4.495  2.3292 -0.5536  0.0545
 5007TIP3   OH236435   1.243   4.579  12.037 -0.5108  0.3896 -0.1552
 5007TIP3    H136436   1.329   4.547  12.064  0.1763 -1.0331 -3.5567
 5007TIP3    H236437   1.182   4.511  12.065 -0.3290  0.6120  0.8132
 5008TIP3   OH236438   2.298   0.252   4.798 -0.7414 -0.2396 -0.5220
 5008TIP3    H136439   2.214   0.293   4.822 -0.6621 -0.2996 -0.1377
 5008TIP3    H236440   2.278   0.199   4.721 -1.1556 -0.6079 -0.1637
 5009TIP3   OH236441   5.712   2.280   5.470 -0.2166 -0.1903 -0.2188
 5009TIP3    H136442   5.633   2.227   5.474  0.6333 -1.5565 -0.7900
 5009TIP3    H236443   5.772   2.239   5.532  1.2379 -1.3036 -2.2343
 5010TIP3   OH236444   3.600   1.759  12.806 -0.1263 -0.0702 -0.3853
 5010TIP3    H136445   3.647   1.789  12.729 -0.4141  0.6215 -0.2963
 5010TIP3    H236446   3.511   1.792  12.796 -0.5150 -1.0629 -0.3738
 5011TIP3   OH236447   1.102   2.342   1.033  0.5774  0.8116  0.6731
 5011TIP3    H136448   1.148   2.264   1.000  1.1674  1.3296  0.2483
 5011TIP3    H236449   1.112   2.407   0.964 -0.9563  0.8997  0.5014
 5012TIP3   OH236450   3.575   2.326   4.728  0.3539 -0.2469  0.0335
 5012TIP3    H136451   3.491   2.353   4.690  1.0454  0.4202 -1.0780
 5012TIP3    H236452   3.566   2.232   4.742  0.1373 -0.6110 -2.0965
 5013TIP3   OH236453   2.395   4.532  11.094  0.5216  0.1219  0.1520
 5013TIP3    H136454   2.333   4.534  11.021  0.8496  2.0110 -0.1165
 5013TIP3    H236455   2.387   4.618  11.135  3.0333  0.4994  0.0253
 5014TIP3   OH236456   6.105   1.115  14.026 -0.0364  0.4987  0.0860
 5014TIP3    H136457   6.183   1.166  14.006 -1.0277  1.7643 -0.7337
 5014TIP3    H236458   6.124   1.071  14.109  2.1036 -0.4431 -0.8380
 5015TIP3   OH236459   2.523   2.734  12.429  0.6711 -0.1492  0.1805
 5015TIP3    H136460   2.615   2.728  12.401  0.2760  0.5997 -1.4139
 5015TIP3    H236461   2.485   2.649  12.406  0.5080  0.2367 -1.0647
 5016TIP3   OH236462   2.996   2.555  13.681  0.2171 -0.2153 -0.0184
 5016TIP3    H136463   2.959   2.637  13.713 -1.3566 -1.6576  2.1659
 5016TIP3    H236464   2.978   2.555  13.587  0.5574  2.0390 -0.1281
 5017TIP3   OH236465   4.111   4.262   5.737 -0.2789  0.4480  0.0363
 5017TIP3    H136466   4.035   4.301   5.780 -0.1105  0.5166  0.2743
 5017TIP3    H236467   4.114   4.304   5.651 -0.0474  1.0316  0.3196
 5018TIP3   OH236468   0.922   1.628   0.053 -0.5797  0.6681  0.2760
 5018TIP3    H136469   1.011   1.657   0.076 -0.5040  1.7847 -1.3025
 5018TIP3    H236470   0.912   1.652  -0.039 -2.6011  0.7403  0.4743
 5019TIP3   OH236471   1.095   4.666  11.346 -0.2918  0.2341  0.0703
 5019TIP3    H136472   1.145   4.687  11.268 -1.7492 -0.4128 -1.0867
 5019TIP3    H236473   1.024   4.730  11.348 -1.3803 -0.9109 -0.2452
 5020TIP3   OH236474   1.229   4.845   4.601 -0.0404  0.5401 -0.3957
 5020TIP3    H136475   1.279   4.835   4.520  0.1070 -0.2354 -0.2169
 5020TIP3    H236476   1.209   4.756   4.629 -1.5504  0.8301 -0.4601
 5021TIP3   OH236477   5.226   1.829  14.811  0.1653  0.2552  0.0301
 5021TIP3    H136478   5.317   1.808  14.834 -0.1229 -0.8845  0.2250
 5021TIP3    H236479   5.187   1.859  14.893  0.0465 -0.4892  0.2599
 5022TIP3   OH236480   1.578   1.570  12.343  0.2267 -0.2641 -0.4869
 5022TIP3    H136481   1.556   1.597  12.254  0.4064  2.3444  0.1901
 5022TIP3    H236482   1.505   1.600  12.396  0.3910 -1.3011  0.3630
 5023TIP3   OH236483   4.931   2.616  16.452  0.7033 -0.6459  0.6823
 5023TIP3    H136484   5.000   2.676  16.481 -0.4570  0.7602  0.6775
 5023TIP3    H236485   4.884   2.665  16.384 -1.8347 -0.4868  2.3883
 5024TIP3   OH236486   3.401   6.140  16.080  0.2750  0.0560 -0.1425
 5024TIP3    H136487   3.378   6.067  16.023  0.5142 -1.1282  1.2235
 5024TIP3    H236488   3.383   6.218  16.028  0.9915 -0.9782 -2.0251
 5025TIP3   OH236489   4.985   1.510   5.260  0.2973 -0.2644  0.1736
 5025TIP3    H136490   4.985   1.606   5.252 -2.7655 -0.3266 -2.4594
 5025TIP3    H236491   4.909   1.491   5.314  0.2295 -1.2260 -0.2512
 5026TIP3   OH236492   5.548   6.518   0.520  0.7939  0.4225  0.4783
 5026TIP3    H136493   5.487   6.543   0.451  1.4264  0.2757 -0.1501
 5026TIP3    H236494   5.506   6.546   0.601 -0.9630 -1.2621  0.2434
 5027TIP3   OH236495   2.407   2.963   2.069  0.1385 -0.1038  0.1143
 5027TIP3    H136496   2.327   2.949   2.121  0.0600  0.0180  0.0281
 5027TIP3    H236497   2.375   2.997   1.986  0.3893  2.1646  0.8592
 5028TIP3   OH236498   3.549   2.052  14.714 -0.3990  0.0029 -0.5810
 5028TIP3    H136499   3.550   2.083  14.805 -3.9071 -2.3836  0.4995
 5028TIP3    H236500   3.478   2.101  14.673 -0.6362 -0.8440 -1.2127
 5029TIP3   OH236501   2.553   5.470  11.914 -0.6441 -0.1110 -0.3272
 5029TIP3    H136502   2.523   5.386  11.949  0.9063  0.4395  2.6349
 5029TIP3    H236503   2.593   5.448  11.830  0.0077 -2.4463  0.5067
 5030TIP3   OH236504   2.610   6.505   4.393 -0.2124  0.0916 -0.2809
 5030TIP3    H136505   2.702   6.528   4.383 -0.2240 -0.2229 -1.2677
 5030TIP3    H236506   2.562   6.581   4.357 -0.3831  0.7362  1.2354
 5031TIP3   OH236507   4.927   4.396  11.880  0.3666 -0.4759 -0.2085
 5031TIP3    H136508   4.989   4.324  11.884  0.4985 -0.7426 -3.7741
 5031TIP3    H236509   4.841   4.354  11.875  0.2224 -0.2550  0.2957
 5032TIP3   OH236510   2.860   3.411  10.690 -0.0620  0.2704 -0.0835
 5032TIP3    H136511   2.902   3.496  10.680 -1.6109  0.8314 -3.6538
 5032TIP3    H236512   2.787   3.427  10.750 -0.6293  1.6735 -1.0867
 5033TIP3   OH236513   4.927   5.214   4.412  0.1498 -0.2569 -0.2400
 5033TIP3    H136514   5.013   5.197   4.448  1.3325 -0.1298 -2.7609
 5033TIP3    H236515   4.942   5.277   4.341 -1.9647 -0.3606 -0.8577
 5034TIP3   OH236516   6.762   6.466  12.710  0.0873  0.3018 -0.5575
 5034TIP3    H136517   6.810   6.466  12.627  0.6744 -1.8953 -0.2672
 5034TIP3    H236518   6.830   6.456  12.777 -0.6725 -3.1887 -0.1514
 5035TIP3   OH236519   1.768   3.871  16.044 -0.4902  0.4228 -0.2029
 5035TIP3    H136520   1.799   3.807  16.109  0.3342 -0.7870 -1.7001
 5035TIP3    H236521   1.716   3.933  16.094 -1.9598 -1.8199  1.2650
 5036TIP3   OH236522   4.646   6.624   4.287 -0.3860  0.3682  0.2424
 5036TIP3    H136523   4.667   6.620   4.194 -0.3864  2.3032  0.1328
 5036TIP3    H236524   4.726   6.656   4.329 -0.4505 -0.2856  0.8956
 5037TIP3   OH236525   5.293   1.429   1.684  0.1815  0.2801  0.1163
 5037TIP3    H136526   5.205   1.420   1.647 -0.1473 -0.5049  1.0480
 5037TIP3    H236527   5.349   1.446   1.608 -0.7452  0.6282 -0.5066
 5038TIP3   OH236528   2.459   5.177  11.423  0.1499  0.1789  0.1768
 5038TIP3    H136529   2.366   5.179  11.445  0.5772  3.1965  2.2970
 5038TIP3    H236530   2.501   5.140  11.500  0.8122 -0.2987 -0.4031
 5039TIP3   OH236531   0.732   6.110   0.283 -0.0793 -0.0510  0.4253
 5039TIP3    H136532   0.652   6.089   0.237  0.3743 -1.7847  0.3806
 5039TIP3    H236533   0.774   6.177   0.229 -0.9775  0.1052 -0.0926
 5040TIP3   OH236534   0.672   1.726   0.443 -0.0791 -0.1176  0.1832
 5040TIP3    H136535   0.649   1.813   0.410  1.2155  0.0946 -0.2352
 5040TIP3    H236536   0.640   1.726   0.533 -0.5486  0.6034  0.0271
 5041TIP3   OH236537   5.258   4.981  12.209  0.1595  0.3337 -0.3331
 5041TIP3    H136538   5.232   4.931  12.287 -0.2588  0.0021 -0.6825
 5041TIP3    H236539   5.322   5.044  12.242  0.6298 -0.3745  0.1239
 5042TIP3   OH236540   2.099   4.344   0.601 -0.9242  0.2067 -0.6182
 5042TIP3    H136541   2.110   4.395   0.681  0.6610 -0.7521 -0.1742
 5042TIP3    H236542   2.180   4.360   0.552 -0.9361 -0.9207 -1.0178
 5043TIP3   OH236543   3.776   3.007   5.316  0.4269 -0.1855  0.2346
 5043TIP3    H136544   3.703   3.010   5.378 -0.1669 -0.8817 -0.4175
 5043TIP3    H236545   3.751   3.067   5.246  0.5283 -0.3459  0.0602
 5044TIP3   OH236546   5.480   0.377  12.906  0.2673 -0.4423  0.1660
 5044TIP3    H136547   5.420   0.309  12.936  2.1324 -2.2598  0.0323
 5044TIP3    H236548   5.561   0.330  12.886  0.8116  1.4149 -2.5964
 5045TIP3   OH236549   4.156   2.831   4.177  0.5037  0.2209 -0.0410
 5045TIP3    H136550   4.065   2.832   4.206  1.2731  2.5764  2.7835
 5045TIP3    H236551   4.206   2.802   4.253  2.2196  0.5845 -0.9708
 5046TIP3   OH236552   0.875   1.945  15.171  0.4929  0.6539 -0.2972
 5046TIP3    H136553   0.873   2.025  15.118  1.5571  0.5344 -0.5438
 5046TIP3    H236554   0.947   1.894  15.134 -0.3498 -0.5606 -0.3300
 5047TIP3   OH236555   1.002   5.214  15.412 -0.3123  0.0423 -0.2854
 5047TIP3    H136556   0.945   5.138  15.399 -2.3596  1.6419 -1.1419
 5047TIP3    H236557   0.943   5.287  15.428  1.5337  1.6833 -0.5126
 5048TIP3   OH236558   2.092   3.165  14.350  0.1350 -0.0816  0.0986
 5048TIP3    H136559   2.135   3.094  14.303 -1.0717 -0.9897  0.2977
 5048TIP3    H236560   2.128   3.244  14.312  0.0177 -0.7954 -1.5867
 5049TIP3   OH236561   0.379   3.634   0.979  0.5536 -0.3731  0.2951
 5049TIP3    H136562   0.300   3.681   1.003  0.1457  0.1335 -1.8135
 5049TIP3    H236563   0.404   3.586   1.058 -0.7000  1.0421  1.6043
 5050TIP3   OH236564   5.385   1.643   0.877  0.0291 -0.0876  0.8198
 5050TIP3    H136565   5.396   1.605   0.965 -0.0520 -2.7948 -0.2527
 5050TIP3    H236566   5.431   1.726   0.882  3.6942 -1.9755  2.3054
 5051TIP3   OH236567   0.391   6.675   1.358 -0.4261  0.2375  0.0173
 5051TIP3    H136568   0.341   6.734   1.414  0.2971  0.3680  0.5471
 5051TIP3    H236569   0.415   6.603   1.415  0.7005  0.5879  0.0138
 5052TIP3   OH236570   4.566   1.881  14.976 -0.0706  0.0311 -0.2883
 5052TIP3    H136571   4.648   1.837  14.954 -0.5728 -1.1631  0.1072
 5052TIP3    H236572   4.505   1.809  14.992 -1.1842  0.9058 -0.5418
 5053TIP3   OH236573   5.369   2.425   0.866  0.4731  0.0680  0.1271
 5053TIP3    H136574   5.345   2.489   0.800  0.7963  0.4885  0.4080
 5053TIP3    H236575   5.434   2.369   0.824  0.0691 -0.1793 -0.1711
 5054TIP3   OH236576   5.470   5.399   2.069  0.3336 -0.6114  0.0096
 5054TIP3    H136577   5.454   5.305   2.054  0.1199 -0.2748 -2.2884
 5054TIP3    H236578   5.565   5.408   2.068  0.3443 -0.5700 -1.8750
 5055TIP3   OH236579   3.108   5.335   4.408 -0.4966 -0.2921 -0.1253
 5055TIP3    H136580   3.090   5.255   4.358  1.6393  0.4069 -2.2138
 5055TIP3    H236581   3.147   5.305   4.490 -0.6179 -1.4086 -0.4672
 5056TIP3   OH236582   3.018   4.595   5.376 -0.0133 -0.1750  0.4373
 5056TIP3    H136583   3.051   4.509   5.401 -0.0063 -0.8102 -1.5564
 5056TIP3    H236584   2.941   4.576   5.322  0.6483  1.0114 -0.9942
 5057TIP3   OH236585   2.474   3.593  16.575 -0.0371  0.0459 -0.3499
 5057TIP3    H136586   2.441   3.583  16.486  0.4515 -0.0230 -0.5269
 5057TIP3    H236587   2.537   3.521  16.585 -0.2462 -0.0767  0.1252
 5058TIP3   OH236588   3.321   2.977   5.770 -0.0630  0.5308  0.3509
 5058TIP3    H136589   3.367   3.059   5.755  2.0086 -0.2300  2.1265
 5058TIP3    H236590   3.249   2.978   5.706  1.3544  2.5642 -1.3348
 5059TIP3   OH236591   0.559   6.560  12.183 -0.3577 -0.5731 -0.8372
 5059TIP3    H136592   0.566   6.465  12.175 -2.1614 -1.0241  1.7608
 5059TIP3    H236593   0.492   6.584  12.119 -0.8722 -1.2296 -0.5515
 5060TIP3   OH236594   3.494   3.126  14.075  0.0479  0.6948  0.1853
 5060TIP3    H136595   3.428   3.157  14.137 -0.7546 -1.0766  0.2821
 5060TIP3    H236596   3.541   3.058  14.122 -2.3095 -2.6341 -1.8135
 5061TIP3   OH236597   3.695   2.363  16.363  0.6662 -0.4612 -0.5533
 5061TIP3    H136598   3.757   2.434  16.381  1.2431 -0.8822 -0.8256
 5061TIP3    H236599   3.737   2.284  16.398 -0.4414 -0.5303  0.6979
 5062TIP3   OH236600   6.406   2.712  13.036  0.0957  0.6415 -0.0506
 5062TIP3    H136601   6.476   2.704  12.972  0.2512  2.3938 -0.1487
 5062TIP3    H236602   6.390   2.806  13.042  1.0362  0.7385  3.4476
 5063TIP3   OH236603   2.998   6.039  13.932 -0.8097  0.8143  0.7493
 5063TIP3    H136604   3.002   6.038  13.836 -0.0145  2.8055  0.7160
 5063TIP3    H236605   2.905   6.027  13.951 -1.2554  2.1520 -0.3632
 5064TIP3   OH236606   5.117   1.067   0.070 -0.5673 -0.1726 -0.6487
 5064TIP3    H136607   5.069   1.145   0.097 -0.5646  0.2772 -1.8675
 5064TIP3    H236608   5.209   1.092   0.078 -0.5414 -0.5745  0.3984
 5065TIP3   OH236609   0.532   5.911   3.820  0.6681 -0.2853 -0.2010
 5065TIP3    H136610   0.445   5.881   3.843 -0.8080  0.7158 -3.7460
 5065TIP3    H236611   0.531   6.005   3.838 -0.2507  0.3630 -3.0529
 5066TIP3   OH236612   3.501   5.176   2.773 -0.2681  0.2302 -0.6509
 5066TIP3    H136613   3.551   5.138   2.700  2.0634 -0.8903  1.3979
 5066TIP3    H236614   3.448   5.244   2.732 -1.6645 -2.5495 -3.9132
 5067TIP3   OH236615   6.741   5.879   5.527  0.0410 -0.4309 -0.2466
 5067TIP3    H136616   6.744   5.817   5.454  0.0266 -1.1574  0.3630
 5067TIP3    H236617   6.656   5.922   5.518  0.1759 -0.2785 -0.8418
 5068TIP3   OH236618   4.964   6.071   0.434  0.0752 -0.1649  0.4347
 5068TIP3    H136619   4.975   6.101   0.524  2.9708 -0.1812  0.1571
 5068TIP3    H236620   4.976   6.149   0.380  1.0075 -0.6190 -0.0332
 5069TIP3   OH236621   0.015   3.336  12.850  0.1768  0.2076 -0.2796
 5069TIP3    H136622   0.008   3.258  12.905 -3.0204  1.0816  0.7770
 5069TIP3    H236623   0.092   3.321  12.796  2.7392 -1.3537  3.4162
 5070TIP3   OH236624   2.632   1.457  16.899  0.3215 -0.3657  0.4514
 5070TIP3    H136625   2.723   1.468  16.871  0.5041 -0.1254  1.1138
 5070TIP3    H236626   2.619   1.362  16.904  0.6401 -0.3973  0.6800
 5071TIP3   OH236627   0.953   2.414  12.174 -0.1673  0.5088  0.0088
 5071TIP3    H136628   0.913   2.353  12.236 -0.8599  2.1047  1.2143
 5071TIP3    H236629   0.913   2.393  12.090 -0.1627 -0.8726  0.3366
 5072TIP3   OH236630   5.629   6.542   1.587  0.3292 -0.8555  0.3970
 5072TIP3    H136631   5.612   6.636   1.590 -1.7306 -1.1299 -1.0308
 5072TIP3    H236632   5.713   6.534   1.542  0.5019  0.2812  0.4997
 5073TIP3   OH236633   2.058   0.537   5.690 -0.0649 -0.6144 -0.2578
 5073TIP3    H136634   2.154   0.536   5.685 -0.1028  0.0764 -1.4876
 5073TIP3    H236635   2.030   0.574   5.607 -1.3860 -0.0719  0.3960
 5074TIP3   OH236636   5.835   2.464   5.094 -0.4788 -0.1301 -0.0977
 5074TIP3    H136637   5.861   2.544   5.139  0.1743 -1.4074  1.9606
 5074TIP3    H236638   5.853   2.394   5.157 -0.7598 -1.9378 -1.8999
 5075TIP3   OH236639   4.506   0.361  14.836  0.0218  0.2196 -0.7132
 5075TIP3    H136640   4.463   0.436  14.794 -0.1559  0.6490  0.2212
 5075TIP3    H236641   4.566   0.400  14.899 -0.8670 -0.4174  0.5776
 5076TIP3   OH236642   0.704   3.966  15.175 -0.5306 -0.1504  0.2213
 5076TIP3    H136643   0.675   3.877  15.152  1.0920 -0.9900  1.2613
 5076TIP3    H236644   0.629   4.004  15.221 -1.1761 -1.0370 -0.0549
 5077TIP3   OH236645   5.571   0.815  14.229  0.0853 -0.2191 -0.2413
 5077TIP3    H136646   5.498   0.762  14.196 -1.6548  1.3166  0.9142
 5077TIP3    H236647   5.577   0.792  14.322  0.1188  0.6886 -0.0090
 5078TIP3   OH236648   6.599   2.930   2.435  0.2012 -0.0664 -0.2822
 5078TIP3    H136649   6.539   2.967   2.370 -1.2108 -0.8266  0.5450
 5078TIP3    H236650   6.670   2.893   2.382 -0.4394  0.1649 -1.3452
 5079TIP3   OH236651   2.810   4.816  16.480 -0.0129  0.3715 -0.1095
 5079TIP3    H136652   2.818   4.833  16.386 -2.0200 -0.5752 -0.5112
 5079TIP3    H236653   2.875   4.747  16.497  0.4349  0.6175 -0.7804
 5080TIP3   OH236654   4.066   1.263  17.079 -0.2062  0.1507 -0.6398
 5080TIP3    H136655   4.070   1.246  17.173  0.5949  1.7522 -0.3508
 5080TIP3    H236656   3.985   1.221  17.051 -0.8312  0.2421  0.8933
 5081TIP3   OH236657   1.275   2.615  12.531  0.2189 -0.7038 -0.7031
 5081TIP3    H136658   1.321   2.698  12.527  2.2618 -1.6661  1.0046
 5081TIP3    H236659   1.338   2.550  12.498 -1.4381 -1.6142 -2.3360
 5082TIP3   OH236660   5.398   1.045  16.407 -0.3273 -0.3936  0.4655
 5082TIP3    H136661   5.309   1.015  16.425  0.1595 -2.1772  0.1051
 5082TIP3    H236662   5.454   0.984  16.455  0.7215  0.7542  0.7625
 5083TIP3   OH236663   6.728   0.602   5.994 -0.4776 -0.7201  0.2651
 5083TIP3    H136664   6.800   0.568   6.047  0.8128  0.1860 -0.8387
 5083TIP3    H236665   6.731   0.697   6.007 -1.9875 -0.7182  0.8032
 5084TIP3   OH236666   1.358   2.858  11.792  0.3648  0.3785  0.1784
 5084TIP3    H136667   1.375   2.855  11.698 -0.4700  1.3678 -0.0210
 5084TIP3    H236668   1.271   2.898  11.799  1.5090  2.8743  1.4629
 5085TIP3   OH236669   3.186   2.034   1.120  0.0644  0.8283 -0.2592
 5085TIP3    H136670   3.112   1.988   1.159  1.0238  1.8443  3.0588
 5085TIP3    H236671   3.171   2.126   1.139  0.8691  1.3779 -2.0110
 5086TIP3   OH236672   1.717   3.025  11.666 -0.0753  0.5736  0.0124
 5086TIP3    H136673   1.686   3.094  11.607  0.9011  1.2371  0.2572
 5086TIP3    H236674   1.673   3.042  11.749  0.4922  1.1779  0.1980
 5087TIP3   OH236675   0.641   1.037  14.184 -0.1192  0.3334 -0.7193
 5087TIP3    H136676   0.733   1.030  14.157  0.1662 -0.9584  0.4910
 5087TIP3    H236677   0.609   0.948  14.182 -1.7119  0.8807 -2.1691
 5088TIP3   OH236678   1.890   2.539   2.731  0.7799 -0.5624 -0.0746
 5088TIP3    H136679   1.818   2.477   2.731  0.3900 -0.1162 -0.3220
 5088TIP3    H236680   1.876   2.593   2.653  1.3297 -0.4133 -0.0782
 5089TIP3   OH236681   3.606   5.999  17.318  0.7448 -0.4778 -0.1564
 5089TIP3    H136682   3.633   6.060  17.250 -0.9655  0.1800 -0.2983
 5089TIP3    H236683   3.686   5.981  17.368  1.6265  0.5145 -1.1715
 5090TIP3   OH236684   6.592   3.519  13.333 -0.1850  0.5207 -0.7195
 5090TIP3    H136685   6.558   3.473  13.410  3.6251  0.4774  1.1506
 5090TIP3    H236686   6.588   3.455  13.262 -0.9662 -0.4565  0.1745
 5091TIP3   OH236687   0.647   3.926   1.660  0.1512  0.2483  0.0337
 5091TIP3    H136688   0.658   4.013   1.697 -0.0779  0.1653  0.3026
 5091TIP3    H236689   0.575   3.934   1.598 -0.4998  0.0517  0.7411
 5092TIP3   OH236690   2.674   3.628   1.585 -0.9556  0.1330 -0.1376
 5092TIP3    H136691   2.748   3.619   1.526 -1.1176  1.3396 -0.5640
 5092TIP3    H236692   2.648   3.539   1.606  0.8243 -0.3323  0.2972
 5093TIP3   OH236693   4.330   0.310  12.379 -0.5083 -0.7637 -0.5840
 5093TIP3    H136694   4.340   0.225  12.422  0.8262 -1.9156 -2.9715
 5093TIP3    H236695   4.415   0.353  12.391 -1.2944  0.4851  0.9438
 5094TIP3   OH236696   6.685   1.980  13.455  0.1652 -0.1628 -0.2061
 5094TIP3    H136697   6.724   1.958  13.540 -1.2357  1.1986  0.8455
 5094TIP3    H236698   6.594   2.004  13.476 -0.0827  0.6559 -2.0399
 5095TIP3   OH236699   3.336   4.164   2.847  0.4061  0.0275 -0.1442
 5095TIP3    H136700   3.301   4.095   2.791 -1.0468  0.1753  0.5300
 5095TIP3    H236701   3.282   4.240   2.827  0.5717  0.3722  0.6821
 5096TIP3   OH236702   1.337   4.917  16.096 -0.2262 -0.1362  0.0370
 5096TIP3    H136703   1.251   4.909  16.056  0.4969  0.3569 -1.7007
 5096TIP3    H236704   1.352   5.011  16.103  0.3138 -0.2145  0.0112
 5097TIP3   OH236705   0.300   6.639   6.484  0.2090  0.1174 -0.3715
 5097TIP3    H136706   0.273   6.731   6.494  0.7615  0.2397  0.0277
 5097TIP3    H236707   0.241   6.590   6.541  0.0920  0.2568 -0.3727
 5098TIP3   OH236708   2.980   4.237   4.747 -0.1322 -0.2729  0.6997
 5098TIP3    H136709   3.002   4.145   4.762  1.7383 -0.7510 -3.3757
 5098TIP3    H236710   3.065   4.281   4.740 -0.6944  0.6221 -2.3265
 5099TIP3   OH236711   6.177   5.269   5.309 -0.0851 -0.0161  0.2220
 5099TIP3    H136712   6.205   5.216   5.234 -0.3660  0.2722 -0.0883
 5099TIP3    H236713   6.125   5.339   5.271  1.4362  1.3054  0.4803
 5100TIP3   OH236714   5.438   5.535  16.381 -0.1353 -0.7704 -0.0709
 5100TIP3    H136715   5.491   5.610  16.354  2.1933 -1.3992  2.3954
 5100TIP3    H236716   5.353   5.550  16.340  0.1315  3.3533  0.5165
 5101TIP3   OH236717   3.286   1.797   1.600  0.2329 -0.6457  1.0382
 5101TIP3    H136718   3.214   1.779   1.540 -0.8892 -0.7772  2.3761
 5101TIP3    H236719   3.347   1.724   1.587 -0.5924 -1.3315  0.9341
 5102TIP3   OH236720   1.439   3.727  12.413  0.2668 -0.3780  0.0119
 5102TIP3    H136721   1.481   3.808  12.381 -0.8389  0.0858 -0.3102
 5102TIP3    H236722   1.355   3.756  12.448 -0.5916 -1.5054 -1.0351
 5103TIP3   OH236723   6.526   0.634   0.807  0.3728  0.6405 -0.1987
 5103TIP3    H136724   6.493   0.663   0.892 -0.1400  0.3482 -0.2934
 5103TIP3    H236725   6.453   0.648   0.747  1.0522  1.7609 -0.7978
 5104TIP3   OH236726   4.158   1.881   0.848 -0.6275  0.0390  0.2140
 5104TIP3    H136727   4.148   1.907   0.939  0.1930  0.6704  0.1407
 5104TIP3    H236728   4.172   1.963   0.801 -0.7948 -0.2994 -0.4408
 5105TIP3   OH236729   6.538   6.661  15.386 -0.0293  0.4290 -0.0091
 5105TIP3    H136730   6.628   6.688  15.368  0.8566 -2.7988 -1.2387
 5105TIP3    H236731   6.487   6.699  15.315  0.7181  0.6134 -0.4581
 5106TIP3   OH236732   2.120   4.245   4.087  0.5245  0.4885  0.3124
 5106TIP3    H136733   2.125   4.175   4.022 -2.5444  0.5066 -0.0923
 5106TIP3    H236734   2.114   4.325   4.035  0.2517  0.7088  0.6845
 5107TIP3   OH236735   1.988   2.827  16.313 -0.2002  0.3410  0.1844
 5107TIP3    H136736   1.971   2.821  16.408 -0.1769 -2.1269  0.0826
 5107TIP3    H236737   1.904   2.808  16.273  0.2421 -0.6514 -0.2889
 5108TIP3   OH236738   4.745   3.516   5.339 -0.3671  0.1473  0.2651
 5108TIP3    H136739   4.792   3.571   5.277 -0.9959  0.0337 -0.3228
 5108TIP3    H236740   4.686   3.463   5.285  1.5614 -2.5481  0.6147
 5109TIP3   OH236741   4.587   1.573  14.774  0.2193  0.0722 -0.1073
 5109TIP3    H136742   4.680   1.592  14.785  0.4541 -0.8218 -0.4829
 5109TIP3    H236743   4.573   1.494  14.826 -0.2404 -0.0456 -0.4102
 5110TIP3   OH236744   6.616   4.013  12.264 -0.2689 -0.0790 -0.2354
 5110TIP3    H136745   6.653   4.030  12.177 -0.8811  0.9085 -0.3180
 5110TIP3    H236746   6.655   4.080  12.320 -0.8720  0.1014 -0.0304
 5111TIP3   OH236747   2.646   1.211  17.066  0.6223  0.3180 -0.3725
 5111TIP3    H136748   2.693   1.213  17.150  2.1516  4.7838 -1.0797
 5111TIP3    H236749   2.569   1.266  17.080 -0.6185 -1.0929 -1.2704
 5112TIP3   OH236750   5.043   1.807  16.863  0.9047  0.5109  0.1817
 5112TIP3    H136751   5.128   1.802  16.907  0.7131  0.1447  0.5202
 5112TIP3    H236752   4.981   1.776  16.929  0.4759  1.0306  0.0262
 5113TIP3   OH236753   2.126   2.532   4.137  0.2691 -0.1099  0.5843
 5113TIP3    H136754   2.047   2.583   4.118  0.6716  0.1961 -0.3079
 5113TIP3    H236755   2.095   2.461   4.194 -0.5273  0.3766  0.7772
 5114TIP3   OH236756   1.510   0.259   3.190  0.9305  0.2505 -0.1884
 5114TIP3    H136757   1.521   0.178   3.240 -0.2987 -0.6172 -1.2923
 5114TIP3    H236758   1.433   0.245   3.136  1.4198  1.6895 -1.3405
 5115TIP3   OH236759   0.921   5.688   6.363  0.4609 -0.1330 -0.1553
 5115TIP3    H136760   0.931   5.729   6.449  0.2653 -0.3820 -0.0117
 5115TIP3    H236761   0.920   5.594   6.381 -1.4862 -0.1637 -0.2149
 5116TIP3   OH236762   2.287   2.765  14.393 -0.7010 -0.3386 -0.6475
 5116TIP3    H136763   2.199   2.784  14.423  0.1231  0.5858  1.3979
 5116TIP3    H236764   2.335   2.742  14.473  1.0423 -0.2697 -1.6134
 5117TIP3   OH236765   4.165   0.546   4.006  0.6688 -0.4608 -0.3539
 5117TIP3    H136766   4.109   0.623   4.013 -1.7383 -2.0268 -1.1681
 5117TIP3    H236767   4.252   0.581   3.985 -0.3008  2.0060 -0.5315
 5118TIP3   OH236768   3.123   5.332  12.328  0.1039  0.4659  0.0033
 5118TIP3    H136769   3.203   5.386  12.329 -0.0539  0.8093  2.9644
 5118TIP3    H236770   3.125   5.286  12.412 -4.3861  3.0057  1.8576
 5119TIP3   OH236771   1.313   5.320   3.031 -0.5089  0.3712 -0.5264
 5119TIP3    H136772   1.281   5.235   3.000 -1.9495  1.1076 -1.1668
 5119TIP3    H236773   1.398   5.331   2.989 -1.0760 -0.0121 -1.8019
 5120TIP3   OH236774   6.359   6.027  15.284  0.5411 -0.0554  0.1160
 5120TIP3    H136775   6.367   5.932  15.277 -1.4723 -0.3287  0.7356
 5120TIP3    H236776   6.339   6.043  15.377  0.0905  0.8960 -0.1287
 5121TIP3   OH236777   3.043   2.846  16.448  0.4140  0.3529  0.3880
 5121TIP3    H136778   2.964   2.860  16.396  0.3019 -0.4469  0.3211
 5121TIP3    H236779   3.011   2.826  16.536  0.5575  0.4007  0.4517
 5122TIP3   OH236780   5.252   1.245  16.768  0.0685  0.3076 -0.0787
 5122TIP3    H136781   5.257   1.246  16.863 -0.4840  0.0509 -0.0469
 5122TIP3    H236782   5.335   1.208  16.740 -0.1762 -0.5704  0.3327
 5123TIP3   OH236783   4.596   5.639   1.585  0.0774 -0.2532 -0.7249
 5123TIP3    H136784   4.657   5.616   1.515  0.9441 -1.7418  0.4498
 5123TIP3    H236785   4.509   5.618   1.550  0.0289  2.8409 -2.7996
 5124TIP3   OH236786   2.618   4.356  17.067  0.1459  0.5590 -0.0091
 5124TIP3    H136787   2.595   4.447  17.049 -1.4847  0.2891  0.5589
 5124TIP3    H236788   2.695   4.339  17.012 -1.2848  1.3932 -2.4054
 5125TIP3   OH236789   5.664   1.216  14.272  0.7820 -0.0694  0.0588
 5125TIP3    H136790   5.695   1.200  14.183  0.2391 -0.6254 -0.0388
 5125TIP3    H236791   5.569   1.202  14.267  0.4661  1.7012  0.3140
 5126TIP3   OH236792   2.319   0.787   4.444 -0.3894  0.0136 -0.1157
 5126TIP3    H136793   2.254   0.717   4.437  0.5071 -0.7754 -0.8556
 5126TIP3    H236794   2.323   0.824   4.356 -1.1029  1.2488  0.3512
 5127TIP3   OH236795   3.381   1.526  11.104 -0.1667  0.2884  0.4957
 5127TIP3    H136796   3.443   1.455  11.122 -0.1206  0.4843  1.1432
 5127TIP3    H236797   3.428   1.584  11.043  0.9775  1.3276  2.2741
 5128TIP3   OH236798   4.777   4.902  16.483 -0.5007 -0.3463  0.3386
 5128TIP3    H136799   4.806   4.988  16.513  0.5401 -0.4432 -0.3643
 5128TIP3    H236800   4.799   4.900  16.390  2.2041 -2.4312  0.8991
 5129TIP3   OH236801   1.462   3.782   0.704 -0.0140  0.2199  0.6043
 5129TIP3    H136802   1.380   3.830   0.693  0.7626  1.0145 -2.9755
 5129TIP3    H236803   1.471   3.731   0.624  1.1291 -3.0527  2.6044
 5130TIP3   OH236804   5.792   3.109   3.261 -0.3089 -0.1872 -0.0008
 5130TIP3    H136805   5.729   3.162   3.310 -0.3076  0.1545 -0.3697
 5130TIP3    H236806   5.871   3.110   3.315 -1.1186 -2.0498  1.3494
 5131TIP3   OH236807   4.540   3.928   3.532 -0.2539 -0.1021 -0.1228
 5131TIP3    H136808   4.572   3.861   3.471 -0.2724 -1.2609  1.1118
 5131TIP3    H236809   4.444   3.922   3.526 -0.2705 -0.9835  0.8084
 5132TIP3   OH236810   4.802   4.899  13.547 -0.0722  0.1075 -0.2563
 5132TIP3    H136811   4.717   4.927  13.513 -0.5758 -1.6434 -0.5198
 5132TIP3    H236812   4.783   4.821  13.599  1.2646  0.2371  0.4815
 5133TIP3   OH236813   5.602   6.430   1.829  0.0360  0.0046 -0.4347
 5133TIP3    H136814   5.514   6.462   1.850 -0.1111  0.8848 -2.1590
 5133TIP3    H236815   5.625   6.477   1.749  1.6514 -1.0128 -0.6007
 5134TIP3   OH236816   1.331   1.449  15.036  0.2307 -0.0814 -0.4437
 5134TIP3    H136817   1.244   1.471  15.069  0.1775 -1.0134  0.0999
 5134TIP3    H236818   1.368   1.393  15.104  1.2230  0.2348 -0.7126
 5135TIP3   OH236819   0.349   1.359   1.988 -0.4652  0.4073 -0.6144
 5135TIP3    H136820   0.435   1.368   1.947  0.0332  1.7700  0.6364
 5135TIP3    H236821   0.326   1.447   2.017 -1.3533 -0.2583  0.8716
 5136TIP3   OH236822   3.823   1.586   2.122  0.6736 -0.0932  0.1836
 5136TIP3    H136823   3.885   1.531   2.171  1.1983 -0.3667 -0.7586
 5136TIP3    H236824   3.877   1.656   2.086  0.2594  0.2054  0.1425
 5137TIP3   OH236825   4.719   4.427   4.429 -0.3977  0.0497 -0.0883
 5137TIP3    H136826   4.755   4.443   4.342  0.6176 -0.2718  0.2529
 5137TIP3    H236827   4.795   4.430   4.487 -0.8567 -1.0823  0.6048
 5138TIP3   OH236828   4.271   2.847   4.807  0.5608  0.3779 -0.7920
 5138TIP3    H136829   4.302   2.927   4.850  3.1966 -0.9642 -0.0070
 5138TIP3    H236830   4.330   2.835   4.733  0.1318 -0.7635 -0.9694
 5139TIP3   OH236831   5.127   3.316   2.003 -1.0497  0.1292  0.0948
 5139TIP3    H136832   5.054   3.254   2.012 -1.1545  0.3177  0.5874
 5139TIP3    H236833   5.091   3.388   1.951 -0.3343 -1.1376 -2.2676
 5140TIP3   OH236834   3.834   3.152  13.640  0.4733 -0.1280 -0.2649
 5140TIP3    H136835   3.753   3.101  13.653  1.0018 -0.6969  0.8970
 5140TIP3    H236836   3.883   3.102  13.574  0.3620 -0.3720 -0.1650
 5141TIP3   OH236837   0.412   2.132  14.831 -0.2542 -0.0283  0.1666
 5141TIP3    H136838   0.494   2.098  14.867 -0.1001 -0.3137 -0.4408
 5141TIP3    H236839   0.349   2.121  14.903 -0.0043 -0.8008  0.2828
 5142TIP3   OH236840   1.332   5.972   5.802  0.4104  0.2334  0.5156
 5142TIP3    H136841   1.290   5.993   5.885 -0.5302  4.8104 -0.8475
 5142TIP3    H236842   1.261   5.939   5.746  0.9365 -2.3038  1.2200
 5143TIP3   OH236843   5.278   2.479  11.141  0.0537  0.5822  0.4322
 5143TIP3    H136844   5.332   2.489  11.219 -0.4907  1.5488  0.6998
 5143TIP3    H236845   5.323   2.531  11.074 -0.0999  0.7034  0.4238
 5144TIP3   OH236846   1.635   0.846  14.063 -0.0478 -0.1739 -0.0720
 5144TIP3    H136847   1.728   0.842  14.086 -0.4347 -0.7180  1.5126
 5144TIP3    H236848   1.625   0.931  14.019  1.3786 -0.5791 -1.2479
 5145TIP3   OH236849   3.864   2.383  16.985 -0.5391  0.3912  0.2398
 5145TIP3    H136850   3.893   2.451  17.046 -1.7105  0.4383  0.7661
 5145TIP3    H236851   3.771   2.371  17.005 -1.0591  0.6914 -1.8005
 5146TIP3   OH236852   3.680   3.557  17.241  0.0373 -0.3220  0.0892
 5146TIP3    H136853   3.632   3.592  17.316  0.6946 -2.4311  1.5779
 5146TIP3    H236854   3.648   3.468  17.231  1.4523 -0.7701 -0.8149
 5147TIP3   OH236855   3.895   4.332  14.651 -0.1003 -0.3077  0.5157
 5147TIP3    H136856   3.882   4.404  14.712  1.3745 -0.0286  0.5293
 5147TIP3    H236857   3.956   4.273  14.696  1.9170  0.4537 -1.0651
 5148TIP3   OH236858   3.531   0.404  13.193  0.5677  0.2144 -0.0661
 5148TIP3    H136859   3.581   0.414  13.273  2.3915 -1.7018 -0.8817
 5148TIP3    H236860   3.515   0.310  13.186  0.0304  0.3911 -1.7201
 5149TIP3   OH236861   1.129   5.074  11.027 -0.3428 -0.3061  0.3176
 5149TIP3    H136862   1.137   5.136  10.954 -1.4120 -1.1252 -0.5339
 5149TIP3    H236863   1.064   5.115  11.085  0.4241  0.2920  0.7717
 5150TIP3   OH236864   2.090   6.441   3.527 -0.0964 -0.2329 -0.3328
 5150TIP3    H136865   2.130   6.525   3.503 -0.1059 -0.3543 -0.7886
 5150TIP3    H236866   2.051   6.409   3.445 -3.5423  1.1628  0.5604
 5151TIP3   OH236867   1.931   4.491  15.091  0.4110  0.3986  0.1377
 5151TIP3    H136868   1.894   4.449  15.168  1.4342 -0.6604  0.0881
 5151TIP3    H236869   1.942   4.419  15.028  3.0616  0.5039  0.3646
 5152TIP3   OH236870   0.641   2.300   0.687  0.0514  0.4416  0.1895
 5152TIP3    H136871   0.651   2.315   0.782  1.7713 -1.5170  0.4044
 5152TIP3    H236872   0.557   2.256   0.678  0.3794 -0.3944  0.9931
 5153TIP3   OH236873   1.707   1.976  16.308 -0.0475  0.7516  0.4073
 5153TIP3    H136874   1.759   1.899  16.285  1.4494  1.3828  1.5047
 5153TIP3    H236875   1.664   2.001  16.226  2.0905  0.6883 -0.8189
 5154TIP3   OH236876   2.162   6.142   0.329  0.1013  0.0452  0.1768
 5154TIP3    H136877   2.100   6.181   0.267  1.2623 -0.0500 -1.1104
 5154TIP3    H236878   2.132   6.171   0.415 -1.6885  0.0232 -0.3957
 5155TIP3   OH236879   5.651   2.051   7.052  0.7151  0.3354  0.0092
 5155TIP3    H136880   5.692   1.966   7.066  0.9293 -0.5321 -4.3726
 5155TIP3    H236881   5.559   2.037   7.072  0.5792 -1.3197 -1.4714
 5156TIP3   OH236882   1.373   1.486   5.453  0.2061  0.0925 -0.1091
 5156TIP3    H136883   1.353   1.395   5.429 -0.6150 -0.1305  1.2949
 5156TIP3    H236884   1.438   1.478   5.522 -0.0726  0.5528  0.2099
 5157TIP3   OH236885   0.046   3.191   0.859  0.1082  0.2646  0.0005
 5157TIP3    H136886   0.065   3.285   0.855 -0.6557  0.4882  1.2235
 5157TIP3    H236887   0.038   3.172   0.952 -0.4054 -0.8847 -0.2615
 5158TIP3   OH236888   3.762   0.624   0.910 -0.1033 -0.9422  0.2483
 5158TIP3    H136889   3.689   0.599   0.855  0.6866 -0.9566 -0.8279
 5158TIP3    H236890   3.725   0.686   0.973 -0.7633  0.1816 -1.1770
 5159TIP3   OH236891   1.330   0.928  14.635 -0.6499  0.4408 -0.1592
 5159TIP3    H136892   1.267   0.941  14.706 -0.4085  0.3705  0.0736
 5159TIP3    H236893   1.277   0.922  14.556 -1.0385 -0.7993  0.1623
 5160TIP3   OH236894   1.863   6.188   4.150 -0.4420 -0.5136  0.1570
 5160TIP3    H136895   1.853   6.098   4.121 -2.7673 -0.9878  2.1785
 5160TIP3    H236896   1.776   6.214   4.181 -0.4366  3.1519 -2.2054
 5161TIP3   OH236897   5.241   4.082   0.779  0.2327  0.0632 -0.4774
 5161TIP3    H136898   5.253   4.008   0.838  3.3697  0.9667  0.2425
 5161TIP3    H236899   5.248   4.159   0.835 -1.2105  0.9628 -1.4535
 5162TIP3   OH236900   4.007   0.991  11.198 -0.1905  0.2603  0.3077
 5162TIP3    H136901   4.078   1.004  11.260  1.2712 -0.1048 -1.1969
 5162TIP3    H236902   4.028   0.907  11.156 -1.3129  0.3339 -0.4315
 5163TIP3   OH236903   6.666   0.282   5.677  0.1043  0.6252 -0.4255
 5163TIP3    H136904   6.692   0.359   5.626 -2.9610  3.7025  2.1918
 5163TIP3    H236905   6.570   0.283   5.674 -0.0752 -2.6881  0.4341
 5164TIP3   OH236906   5.981   3.646  14.171 -0.9444 -0.3981 -0.1620
 5164TIP3    H136907   5.918   3.709  14.205  0.1868  0.4761  0.3505
 5164TIP3    H236908   6.059   3.697  14.152 -0.8113 -1.2414 -2.0536
 5165TIP3   OH236909   5.313   1.682   6.094  0.0897 -0.2894  0.1514
 5165TIP3    H136910   5.367   1.745   6.141  0.3480 -0.4642  0.0915
 5165TIP3    H236911   5.232   1.676   6.145 -0.4712  1.0370 -0.5239
 5166TIP3   OH236912   3.851   1.526   1.527  0.3716 -0.2241 -0.3987
 5166TIP3    H136913   3.884   1.490   1.445 -1.8250  0.5719 -1.7343
 5166TIP3    H236914   3.826   1.616   1.506 -1.1555 -0.3040  0.8413
 5167TIP3   OH236915   0.741   0.722  12.006  0.0935  0.3762  0.0567
 5167TIP3    H136916   0.723   0.647  12.062  0.4987  1.4415  1.6798
 5167TIP3    H236917   0.655   0.761  11.989 -0.8631 -2.9639 -4.7518
 5168TIP3   OH236918   2.332   5.660  13.279  0.1732 -0.4841 -0.3762
 5168TIP3    H136919   2.347   5.623  13.192 -0.0142  0.4640 -0.8210
 5168TIP3    H236920   2.398   5.618  13.335 -0.1545 -1.6108 -0.8226
 5169TIP3   OH236921   3.143   0.574  13.073  0.0385  0.3440  0.5221
 5169TIP3    H136922   3.055   0.585  13.038  0.5704 -0.2351 -1.0871
 5169TIP3    H236923   3.130   0.558  13.167 -1.4697  1.5251  0.5413
 5170TIP3   OH236924   2.894   3.486   3.536  0.5519 -0.4665  0.9170
 5170TIP3    H136925   2.832   3.415   3.551  0.2754  0.2490  3.5940
 5170TIP3    H236926   2.943   3.459   3.458 -3.0950 -1.0046 -1.4136
 5171TIP3   OH236927   0.282   1.743   2.963 -0.1191 -0.1622 -0.2457
 5171TIP3    H136928   0.267   1.746   2.868 -0.8804 -0.5054 -0.1469
 5171TIP3    H236929   0.228   1.669   2.993 -0.2238  0.2132  0.5097
 5172TIP3   OH236930   2.378   4.410  16.444  0.5616 -0.3495 -0.1850
 5172TIP3    H136931   2.465   4.381  16.473 -0.0882  0.0709  2.3562
 5172TIP3    H236932   2.334   4.438  16.524 -0.7480  2.6198 -1.8184
 5173TIP3   OH236933   4.370   6.037  13.603 -0.1860  0.4068 -0.4771
 5173TIP3    H136934   4.429   5.962  13.601 -2.8962 -1.8581 -1.2678
 5173TIP3    H236935   4.400   6.089  13.678  0.0542 -3.0508  2.0694
 5174TIP3   OH236936   4.593   2.120   0.166  0.3425 -0.2134 -0.4593
 5174TIP3    H136937   4.640   2.138   0.247 -0.0058 -0.3951 -0.2134
 5174TIP3    H236938   4.510   2.082   0.194  0.6303 -1.2190 -0.9319
 5175TIP3   OH236939   0.905   0.052   1.423  0.2379  0.7067  1.1557
 5175TIP3    H136940   0.991   0.052   1.382  0.0820  0.4192  0.8233
 5175TIP3    H236941   0.843   0.050   1.350 -0.0395 -0.0475  1.4004
 5176TIP3   OH236942   0.839   2.350  10.843  0.3266  0.0999  0.1654
 5176TIP3    H136943   0.932   2.327  10.853 -0.3041 -2.8622  0.0688
 5176TIP3    H236944   0.825   2.350  10.749 -0.0280 -0.8269  0.2050
 5177TIP3   OH236945   6.110   0.087   4.409  0.0999  0.3814 -0.1442
 5177TIP3    H136946   6.100  -0.002   4.443  1.3168  0.6427  0.9685
 5177TIP3    H236947   6.054   0.140   4.466  1.9067  0.7758  1.3516
 5178TIP3   OH236948   1.394   2.255   0.740 -0.0716 -0.3029  0.1652
 5178TIP3    H136949   1.363   2.165   0.726  0.2549 -0.3137 -0.5287
 5178TIP3    H236950   1.459   2.268   0.672  0.3549  0.2419  0.6739
 5179TIP3   OH236951   5.782   0.261  15.772 -0.3351 -0.0553  0.7221
 5179TIP3    H136952   5.734   0.178  15.768  0.3892 -0.4750  0.4243
 5179TIP3    H236953   5.728   0.318  15.826 -1.0942 -0.5568  0.5112
 5180TIP3   OH236954   5.420   5.541   1.771  0.3861  0.0939 -0.0781
 5180TIP3    H136955   5.339   5.576   1.734  1.1143 -0.5482 -2.4472
 5180TIP3    H236956   5.402   5.447   1.783  0.8607 -0.1260 -0.9728
 5181TIP3   OH236957   4.225   1.844   2.913 -0.9018 -0.1199 -0.1666
 5181TIP3    H136958   4.277   1.917   2.948 -0.7481 -0.8111  1.0955
 5181TIP3    H236959   4.165   1.821   2.984 -0.8804 -1.2825 -0.5027
 5182TIP3   OH236960   0.327   5.627  12.786 -0.2190  0.4699  0.0260
 5182TIP3    H136961   0.406   5.572  12.779 -2.5683 -2.9654 -3.3757
 5182TIP3    H236962   0.338   5.693  12.719  0.2653  0.7671  0.3920
 5183TIP3   OH236963   0.677   5.562  16.212 -0.4108  0.2441  0.0929
 5183TIP3    H136964   0.771   5.555  16.198 -0.4269 -1.3057  0.5691
 5183TIP3    H236965   0.665   5.648  16.253  0.9569 -0.0750  1.2436
 5184TIP3   OH236966   6.121   0.570  13.427 -0.2192 -0.4767 -0.2100
 5184TIP3    H136967   6.110   0.561  13.332 -0.3908  2.1150 -0.5006
 5184TIP3    H236968   6.191   0.508  13.449 -0.6947 -1.6698 -1.8884
 5185TIP3   OH236969   1.134   2.634  14.746  0.2630 -0.1975  0.4308
 5185TIP3    H136970   1.212   2.648  14.692  1.0298 -0.3093  1.4664
 5185TIP3    H236971   1.139   2.542  14.772 -0.2427 -0.2178  0.4617
 5186TIP3   OH236972   5.714   6.462   4.935  1.1947 -0.1969  0.3463
 5186TIP3    H136973   5.684   6.497   4.851  0.1217 -0.3221  0.6577
 5186TIP3    H236974   5.681   6.524   5.000 -1.1721 -1.9289  0.9522
 5187TIP3   OH236975   1.131   4.598   5.682 -0.1707  0.2384  0.5634
 5187TIP3    H136976   1.076   4.644   5.745 -0.1480  1.0018  0.0494
 5187TIP3    H236977   1.166   4.667   5.626 -0.7819 -0.4743 -0.7451
 5188TIP3   OH236978   0.882   4.756   3.240  0.3608 -0.3458  0.2038
 5188TIP3    H136979   0.836   4.735   3.322 -0.6713 -0.9957 -0.5254
 5188TIP3    H236980   0.965   4.708   3.247 -0.4830 -1.8829  0.1019
 5189TIP3   OH236981   0.217   3.857  13.179  0.1830 -0.0109 -0.3232
 5189TIP3    H136982   0.147   3.794  13.197  0.9451 -1.0547 -0.8840
 5189TIP3    H236983   0.208   3.924  13.247 -0.0316 -1.2478  0.8927
 5190TIP3   OH236984   0.623   4.682  14.140  0.0752  0.0816 -0.0731
 5190TIP3    H136985   0.548   4.624  14.123 -0.9193  1.3418 -0.1423
 5190TIP3    H236986   0.597   4.733  14.216  0.4512  1.2157 -0.6879
 5191TIP3   OH236987   4.972   3.219   6.076 -0.1279  0.5525  0.3646
 5191TIP3    H136988   5.045   3.226   6.137  0.6300  0.6578 -0.5382
 5191TIP3    H236989   4.910   3.287   6.105  0.3709  0.8314  0.7902
 5192TIP3   OH236990   5.709   3.219  11.148 -0.2182  0.6703 -1.2107
 5192TIP3    H136991   5.700   3.236  11.054  1.5233  0.4342 -1.4557
 5192TIP3    H236992   5.706   3.123  11.155  2.1384  0.5214 -1.3897
 5193TIP3   OH236993   2.884   1.832  16.344  0.2622 -0.3031 -0.3576
 5193TIP3    H136994   2.907   1.806  16.433 -0.5386  0.2683  0.0231
 5193TIP3    H236995   2.930   1.769  16.288  0.8315 -0.6188  0.4500
 5194TIP3   OH236996   5.939   2.949   4.687  0.0339 -0.6001 -0.1720
 5194TIP3    H136997   5.846   2.929   4.676 -0.2345  0.7419 -0.5389
 5194TIP3    H236998   5.975   2.941   4.599 -0.1100  0.5879 -0.3561
 5195TIP3   OH236999   4.575   0.186  17.337  0.2540  0.1202 -0.2381
 5195TIP3    H137000   4.592   0.242  17.261  0.6962  0.7274  0.3007
 5195TIP3    H237001   4.637   0.114  17.328 -1.6561 -1.4509 -2.0358
 5196TIP3   OH237002   2.962   1.164  16.187  0.1121 -0.2514 -0.2192
 5196TIP3    H137003   2.910   1.182  16.265  0.9254 -0.3713  0.3524
 5196TIP3    H237004   2.982   1.251  16.151  1.0366 -0.1238  0.5700
 5197TIP3   OH237005   3.901   0.589  11.749 -0.2979  0.0496 -0.6978
 5197TIP3    H137006   3.851   0.507  11.747  0.3754 -0.3905 -0.0209
 5197TIP3    H237007   3.970   0.573  11.813 -1.3720  1.8630  1.0251
 5198TIP3   OH237008   3.957   0.170  11.975  0.2008  0.8347 -0.1957
 5198TIP3    H137009   4.047   0.199  11.990  1.0782 -1.9695  0.7707
 5198TIP3    H237010   3.967   0.080  11.944 -2.2785  0.6853 -0.7096
 5199TIP3   OH237011   5.108   4.442  14.345  0.3573  0.0353  0.6564
 5199TIP3    H137012   5.159   4.410  14.419  0.8711  0.2462  0.4004
 5199TIP3    H237013   5.150   4.525  14.321 -0.7571  0.7622  1.1188
 5200TIP3   OH237014   1.009   0.634   2.770 -0.2952 -0.4548  0.1345
 5200TIP3    H137015   1.104   0.629   2.780 -0.1778 -0.0088 -0.7220
 5200TIP3    H237016   0.976   0.556   2.814  0.3637  0.1277  1.7443
 5201TIP3   OH237017   5.101   6.685   0.284 -0.4382  0.4658 -0.4447
 5201TIP3    H137018   5.046   6.612   0.314  1.9336 -1.6679 -0.9433
 5201TIP3    H237019   5.122   6.733   0.364  0.5021 -1.3036  0.4195
 5202TIP3   OH237020   1.136   3.517   1.603  0.9984  0.5019  0.4903
 5202TIP3    H137021   1.105   3.588   1.547  1.2357  0.0047 -0.2942
 5202TIP3    H237022   1.129   3.439   1.548  0.3998 -0.1467  1.4569
 5203TIP3   OH237023   4.444   2.433   4.222  0.3296  0.6164  0.0345
 5203TIP3    H137024   4.502   2.432   4.146  2.0483 -3.1716  1.1312
 5203TIP3    H237025   4.360   2.403   4.187  0.6729  0.3826 -0.6208
 5204TIP3   OH237026   0.447   5.022   0.788 -0.5574 -0.1074 -0.2119
 5204TIP3    H137027   0.417   4.961   0.856  0.5286 -0.0878  0.3065
 5204TIP3    H237028   0.494   5.090   0.836 -0.2503  0.2045 -0.9400
 5205TIP3   OH237029   3.107   4.927   3.416 -0.0837  0.2748 -0.7806
 5205TIP3    H137030   3.055   4.977   3.479  1.2585  1.6854 -0.7427
 5205TIP3    H237031   3.178   4.889   3.468 -0.9170 -1.5134 -0.8606
 5206TIP3   OH237032   3.480   4.797   0.332 -0.4291 -0.0151  0.5506
 5206TIP3    H137033   3.491   4.718   0.384  0.0702  0.7605  1.6457
 5206TIP3    H237034   3.488   4.767   0.241 -1.6634 -1.4382  0.8676
 5207TIP3   OH237035   2.398   4.958   3.072 -0.2083  0.6962 -0.0039
 5207TIP3    H137036   2.369   4.884   3.126 -1.2947 -0.2894 -1.8353
 5207TIP3    H237037   2.346   5.032   3.103  0.4041  0.5704  1.4002
 5208TIP3   OH237038   2.851   0.844  16.744 -0.2381 -0.0059  0.0185
 5208TIP3    H137039   2.944   0.819  16.748  0.0714  1.2356  2.0662
 5208TIP3    H237040   2.807   0.782  16.803 -0.5468 -0.0167 -0.2245
 5209TIP3   OH237041   2.904   5.719   4.467  0.2571 -0.0545 -0.4658
 5209TIP3    H137042   2.990   5.729   4.426  1.0096  0.2276  1.1040
 5209TIP3    H237043   2.880   5.628   4.449  0.2896  0.2121 -1.9869
 5210TIP3   OH237044   3.790   4.980   2.943  0.6602 -0.9140  0.4063
 5210TIP3    H137045   3.742   4.900   2.965 -1.8959  0.1086 -0.9432
 5210TIP3    H237046   3.762   5.043   3.010 -1.0728  0.0550 -1.1158
 5211TIP3   OH237047   2.774   0.568   2.153 -0.2917  0.5547 -1.0466
 5211TIP3    H137048   2.812   0.654   2.134 -1.2372  1.7435  1.8892
 5211TIP3    H237049   2.849   0.510   2.162  0.5501  1.7326 -0.2625
 5212TIP3   OH237050   4.691   2.333   6.239 -0.5295 -0.6226  0.3018
 5212TIP3    H137051   4.613   2.279   6.256  0.0576 -1.1617  1.4133
 5212TIP3    H237052   4.698   2.389   6.316  0.1315 -0.5122  0.1648
 5213TIP3   OH237053   1.391   0.715   1.974  0.5193  0.2934  0.5832
 5213TIP3    H137054   1.321   0.660   2.010  0.4022  0.3385  0.4275
 5213TIP3    H237055   1.456   0.652   1.942  1.0154  0.2631  1.6271
 5214TIP3   OH237056   1.917   1.443  14.412  0.5079 -0.2073 -0.0985
 5214TIP3    H137057   1.915   1.411  14.322  0.5727  0.9351 -0.5135
 5214TIP3    H237058   1.843   1.503  14.418  0.9149  0.2596  0.4028
 5215TIP3   OH237059   2.499   6.307  12.350  0.3447  0.9589  0.6879
 5215TIP3    H137060   2.556   6.278  12.278 -2.1963 -0.7296 -0.8165
 5215TIP3    H237061   2.463   6.390  12.319 -0.0245  0.7017  0.4183
 5216TIP3   OH237062   3.590   4.382  11.204  0.0729 -0.0749 -0.5436
 5216TIP3    H137063   3.625   4.391  11.115 -0.0772 -0.0421 -0.5988
 5216TIP3    H237064   3.519   4.318  11.196  0.4135 -0.4813 -0.3473
 5217TIP3   OH237065   4.490   6.521  13.211  0.5366  0.4004  0.4691
 5217TIP3    H137066   4.552   6.563  13.150  1.5587  0.9028  1.8071
 5217TIP3    H237067   4.460   6.592  13.268 -0.2025 -0.1130  0.7292
 5218TIP3   OH237068   3.598   5.972  14.603  0.2119 -0.4073  0.5496
 5218TIP3    H137069   3.544   5.945  14.529 -1.1710  0.2402  1.2885
 5218TIP3    H237070   3.647   6.048  14.571 -1.4663  0.7950  0.6759
 5219TIP3   OH237071   0.769   0.973   1.608  0.7422  0.0677  0.4300
 5219TIP3    H137072   0.739   1.050   1.657  0.2712  1.8195 -2.4043
 5219TIP3    H237073   0.688   0.932   1.576  1.0812  0.2720 -0.7235
 5220TIP3   OH237074   5.331   3.923   5.482 -0.3491  0.3246 -0.2960
 5220TIP3    H137075   5.364   3.910   5.393  0.1100 -1.0016  0.0417
 5220TIP3    H237076   5.362   4.010   5.507 -0.0264  0.4918 -1.2306
 5221TIP3   OH237077   2.400   4.566   3.032  0.2632  0.7116 -0.3706
 5221TIP3    H137078   2.350   4.641   2.997 -1.3861 -0.4393 -0.5962
 5221TIP3    H237079   2.401   4.581   3.127 -2.0294 -0.0488 -0.1582
 5222TIP3   OH237080   0.783   0.657   1.523 -0.2916 -0.1559  0.1546
 5222TIP3    H137081   0.877   0.676   1.532 -0.2266 -1.2659  2.5998
 5222TIP3    H237082   0.779   0.585   1.461  0.1970  1.4344 -1.8647
 5223TIP3   OH237083   6.712   5.962   3.756  0.6317  0.2372 -0.2691
 5223TIP3    H137084   6.689   6.008   3.837  0.4880 -0.7832  0.2840
 5223TIP3    H237085   6.751   6.030   3.700  1.2390  0.8455  0.8549
 5224TIP3   OH237086   6.031   1.217  13.149  0.2218  0.1164  0.6447
 5224TIP3    H137087   6.072   1.252  13.070  1.1062 -1.8285  0.1636
 5224TIP3    H237088   6.105   1.190  13.204 -0.3575 -1.6764  0.6115
 5225TIP3   OH237089   2.480   3.478   0.858 -0.2681 -0.2986  1.0216
 5225TIP3    H137090   2.531   3.441   0.930  2.1643  2.6896  1.0475
 5225TIP3    H237091   2.544   3.527   0.806 -2.8602  2.7134  0.3542
 5226TIP3   OH237092   1.855   2.252  11.567 -0.5807  0.5016 -0.0419
 5226TIP3    H137093   1.945   2.255  11.536  0.1656 -3.8559  1.0491
 5226TIP3    H237094   1.863   2.243  11.662 -2.1526  0.0973  0.0747
 5227TIP3   OH237095   4.956   1.846   5.804 -0.0926 -0.2264  0.1619
 5227TIP3    H137096   4.918   1.926   5.768  0.3159  0.1037  0.4599
 5227TIP3    H237097   4.880   1.790   5.823 -0.4554  0.5186  0.9774
 5228TIP3   OH237098   3.745   5.575   5.164 -0.1736  0.3230  0.4456
 5228TIP3    H137099   3.787   5.510   5.220 -0.1176  0.4714  0.5767
 5228TIP3    H237100   3.813   5.640   5.147 -0.7447  1.3634  1.8965
 5229TIP3   OH237101   2.547   5.832  13.292 -0.0668 -0.3828  0.1262
 5229TIP3    H137102   2.467   5.781  13.279  0.7094 -1.1615 -2.2918
 5229TIP3    H237103   2.528   5.917  13.252  0.1803 -0.4417 -0.1206
 5230TIP3   OH237104   3.456   3.856  11.669  0.0795  0.2629  0.3604
 5230TIP3    H137105   3.410   3.792  11.724 -0.6654  0.2439 -0.2596
 5230TIP3    H237106   3.466   3.811  11.585 -0.3117  0.8990 -0.0340
 5231TIP3   OH237107   4.970   2.786  11.741  0.0471  0.1202  0.0310
 5231TIP3    H137108   5.025   2.772  11.818  0.6522  0.4374 -0.3354
 5231TIP3    H237109   5.019   2.848  11.687 -0.5911  0.2714 -0.3904
 5232TIP3   OH237110   0.533   0.119   6.685 -0.4676 -0.0129  0.0676
 5232TIP3    H137111   0.490   0.168   6.615  0.6023  0.3079 -0.3805
 5232TIP3    H237112   0.504   0.161   6.766 -1.2884 -0.0489 -0.1965
 5233TIP3   OH237113   1.100   4.763  14.345  0.0565 -0.0197  0.1327
 5233TIP3    H137114   1.007   4.761  14.323  0.3887 -0.3174 -1.3662
 5233TIP3    H237115   1.108   4.832  14.410 -1.2816 -0.3452  0.6709
 5234TIP3   OH237116   4.895   0.635  12.305  0.1382  0.1805 -0.0075
 5234TIP3    H137117   4.828   0.695  12.337 -0.3449 -0.2041 -0.2861
 5234TIP3    H237118   4.846   0.561  12.270  0.6290  0.6678 -1.8352
 5235TIP3   OH237119   0.016   4.725   4.410 -0.4039 -0.5106 -0.0899
 5235TIP3    H137120  -0.034   4.740   4.490  0.3034  1.3390  0.0391
 5235TIP3    H237121   0.094   4.779   4.419 -0.5442  0.1643 -2.2258
 5236TIP3   OH237122   4.819   1.430   3.411 -0.4286  0.0663 -0.4436
 5236TIP3    H137123   4.774   1.512   3.391  0.4314  0.0567 -2.7156
 5236TIP3    H237124   4.829   1.387   3.326  1.2106 -1.3000  0.3836
 5237TIP3   OH237125   4.736   4.098   2.762 -0.0354 -0.1047 -0.6808
 5237TIP3    H137126   4.761   4.117   2.671 -1.1160  1.7956 -0.6295
 5237TIP3    H237127   4.808   4.044   2.795  0.9605  0.1282 -2.3254
 5238TIP3   OH237128   1.276   5.303  13.522 -0.0511 -0.0826  0.5422
 5238TIP3    H137129   1.207   5.237  13.522  1.1336 -1.3925  2.0166
 5238TIP3    H237130   1.267   5.347  13.437 -2.1186 -0.7862  0.3432
 5239TIP3   OH237131   6.733   2.561   1.783  0.1493  0.5957 -0.1092
 5239TIP3    H137132   6.764   2.523   1.701 -1.6351  0.4368 -0.7424
 5239TIP3    H237133   6.683   2.490   1.824 -0.5684  1.2746  0.1969
 5240TIP3   OH237134   6.305   6.188   0.365  0.4181 -0.5965  0.1841
 5240TIP3    H137135   6.217   6.158   0.342  0.3798  0.2332 -0.8595
 5240TIP3    H237136   6.290   6.269   0.414  0.5925  0.3281 -1.2213
 5241TIP3   OH237137   0.195   4.766  11.527  0.0731 -0.9821  0.5235
 5241TIP3    H137138   0.152   4.831  11.584  0.0746 -0.4810 -0.0284
 5241TIP3    H237139   0.287   4.790  11.528 -0.2714  0.9219 -1.9879
 5242TIP3   OH237140   3.778   4.179   2.899 -0.1575 -0.2329 -0.3254
 5242TIP3    H137141   3.687   4.165   2.927  0.2567  0.5565  1.5389
 5242TIP3    H237142   3.829   4.115   2.949  0.4153 -0.0475 -0.6646
 5243TIP3   OH237143   6.488   4.679  15.238 -0.3900 -0.2432  0.7524
 5243TIP3    H137144   6.484   4.697  15.144 -1.7511 -0.7440  0.6824
 5243TIP3    H237145   6.471   4.585  15.245 -0.3607 -0.1988  1.5015
 5244TIP3   OH237146   6.228   0.311  11.979  0.3648  0.0463  0.9108
 5244TIP3    H137147   6.316   0.307  12.016  0.3157 -1.4842  0.9236
 5244TIP3    H237148   6.169   0.315  12.055  0.4289  3.4070  0.9201
 5245TIP3   OH237149   5.979   5.750   0.106 -0.0895 -0.0178  0.3363
 5245TIP3    H137150   6.004   5.714   0.021  2.4011  3.2348 -0.5206
 5245TIP3    H237151   5.902   5.804   0.089 -0.3025 -0.3037  0.3935
 5246TIP3   OH237152   4.880   5.236  16.349 -0.2030  0.1612 -0.2061
 5246TIP3    H137153   4.968   5.230  16.385  0.6718  0.3974 -2.1363
 5246TIP3    H237154   4.846   5.319  16.382 -0.2098 -0.4995  1.5305
 5247TIP3   OH237155   3.112   0.086   0.950  0.2631 -0.0965  0.2682
 5247TIP3    H137156   3.019   0.101   0.932  0.5468 -0.1826 -1.4255
 5247TIP3    H237157   3.143   0.034   0.875  1.7502  0.2415  0.6220
 5248TIP3   OH237158   4.540   6.306   3.435  0.0952 -0.0845  0.4668
 5248TIP3    H137159   4.540   6.274   3.525 -0.6361  0.0174  0.5109
 5248TIP3    H237160   4.467   6.259   3.394  1.9885 -2.1168 -0.8074
 5249TIP3   OH237161   0.763   1.461  13.504 -0.9916  0.0423 -0.1230
 5249TIP3    H137162   0.790   1.552  13.517 -4.2174  1.2848 -1.0800
 5249TIP3    H237163   0.845   1.414  13.488  0.6910  3.1353 -1.6492
 5250TIP3   OH237164   5.353   1.990   4.442 -0.8938 -0.1283 -0.0191
 5250TIP3    H137165   5.384   2.012   4.529 -1.4745 -0.0342  0.1682
 5250TIP3    H237166   5.379   1.898   4.429  2.3498  0.8078 -1.1620
 5251TIP3   OH237167   1.295   4.962   4.990 -0.2386  0.3553 -0.5677
 5251TIP3    H137168   1.207   5.000   4.986 -0.3333  0.1304 -0.6371
 5251TIP3    H237169   1.351   5.034   5.018 -0.3824  0.6073 -0.9140
 5252TIP3   OH237170   5.139   2.145  11.154 -0.0100 -0.1051 -0.1542
 5252TIP3    H137171   5.089   2.069  11.123  1.0191 -0.7727 -0.2264
 5252TIP3    H237172   5.101   2.165  11.240 -0.5052 -0.4882 -0.2772
 5253TIP3   OH237173   0.725   1.592  14.587  0.1888  0.3753 -0.7587
 5253TIP3    H137174   0.811   1.629  14.605 -0.2073  0.1374  2.1637
 5253TIP3    H237175   0.663   1.660  14.615 -0.5459 -0.3767 -0.5138
 5254TIP3   OH237176   1.851   5.178  11.188  0.2107  0.4348 -0.0257
 5254TIP3    H137177   1.766   5.149  11.221 -0.0686 -1.2200 -2.0628
 5254TIP3    H237178   1.906   5.185  11.266 -1.3292 -0.0882  1.1438
 5255TIP3   OH237179   3.072   3.531  13.728 -0.0221 -0.0905 -0.3449
 5255TIP3    H137180   3.012   3.470  13.683  0.1291 -0.3878 -0.1430
 5255TIP3    H237181   3.032   3.617  13.714  0.0474 -0.1686 -1.0990
 5256TIP3   OH237182   3.119   5.722   0.607  0.3009  0.0017  0.7569
 5256TIP3    H137183   3.131   5.689   0.696  0.3074  1.9029  1.4934
 5256TIP3    H237184   3.097   5.644   0.555 -0.2875 -1.0473  2.5207
 5257TIP3   OH237185   4.631   2.621  16.044  0.7014  0.4638  0.2036
 5257TIP3    H137186   4.612   2.529  16.064  1.2075  0.1556 -0.6802
 5257TIP3    H237187   4.619   2.628  15.950  1.3037  1.1510  0.1705
 5258TIP3   OH237188   4.345   1.891   2.623 -0.3890 -0.7304 -0.0036
 5258TIP3    H137189   4.361   1.934   2.539  0.8819 -0.3503  0.4114
 5258TIP3    H237190   4.257   1.918   2.648 -0.6974 -0.6761 -1.1013
 5259TIP3   OH237191   5.612   3.392  11.701  0.2771  0.1043 -0.2662
 5259TIP3    H137192   5.595   3.473  11.652  0.7963 -0.4593 -1.4213
 5259TIP3    H237193   5.656   3.421  11.781  0.4806  0.9634 -0.6809
 5260TIP3   OH237194   1.940   5.826   2.381  0.2348  0.2676  0.3980
 5260TIP3    H137195   1.890   5.851   2.459 -0.1646 -1.6506  0.8082
 5260TIP3    H237196   2.019   5.785   2.416 -0.7756 -2.2655 -0.1062
 5261TIP3   OH237197   6.010   4.930  13.440  0.5681 -0.0858  1.0700
 5261TIP3    H137198   6.038   4.981  13.365 -1.0578  0.8549  1.0452
 5261TIP3    H237199   6.086   4.876  13.462  2.6776  2.7693  1.4968
 5262TIP3   OH237200   0.040   5.747  12.815 -0.2810 -0.7126 -0.0880
 5262TIP3    H137201   0.036   5.802  12.737  1.4476 -2.3391 -1.3925
 5262TIP3    H237202   0.120   5.773  12.859  1.8834 -3.5843 -1.9676
 5263TIP3   OH237203   2.974   1.433  16.964  0.2109 -0.0998 -0.3841
 5263TIP3    H137204   2.920   1.451  16.888  1.3671 -0.7358 -1.3986
 5263TIP3    H237205   2.912   1.410  17.033 -0.8501  0.3151 -1.1755
 5264TIP3   OH237206   4.022   1.930   0.091 -0.0706  0.1947  0.7636
 5264TIP3    H137207   4.010   1.835   0.098 -0.0116  0.2639  2.0027
 5264TIP3    H237208   3.934   1.966   0.102 -0.2971  0.2503 -0.9946
 5265TIP3   OH237209   0.970   3.498   0.879 -0.1120  1.1428 -0.1525
 5265TIP3    H137210   0.943   3.563   0.945 -0.1246  0.5383  0.4512
 5265TIP3    H237211   1.064   3.512   0.869  0.0319  0.7663  0.5486
 5266TIP3   OH237212   4.526   3.015  14.217 -0.2064  0.2214  0.3969
 5266TIP3    H137213   4.565   3.102  14.222 -0.9459  0.5274  1.1544
 5266TIP3    H237214   4.578   2.961  14.278  1.3242 -0.3357 -1.3076
 5267TIP3   OH237215   6.684   6.527  16.846 -0.1112  0.2277  0.2724
 5267TIP3    H137216   6.755   6.472  16.880 -1.0131  0.6078  3.0476
 5267TIP3    H237217   6.661   6.584  16.919 -2.8751  0.5164 -0.6970
 5268TIP3   OH237218   2.388   5.570   4.633 -0.6096  0.3817 -0.2391
 5268TIP3    H137219   2.417   5.633   4.699  1.6803 -0.7351 -0.0642
 5268TIP3    H237220   2.311   5.610   4.593  0.9328  3.5186 -0.4072
 5269TIP3   OH237221   0.403   3.949  15.108  0.0885 -0.0820  0.0580
 5269TIP3    H137222   0.341   4.020  15.095 -0.4365 -0.6030 -0.3544
 5269TIP3    H237223   0.375   3.881  15.046 -0.7241 -1.5154  1.9189
 5270TIP3   OH237224   0.420   4.842  14.617  0.4648  0.4578 -1.1376
 5270TIP3    H137225   0.457   4.868  14.533  1.8473  2.3386 -0.0077
 5270TIP3    H237226   0.473   4.888  14.682  0.2431 -1.8976  0.8486
 5271TIP3   OH237227   0.638   1.812   3.268 -0.1865 -0.5578 -0.2260
 5271TIP3    H137228   0.626   1.756   3.192 -0.3888  1.2070 -1.5743
 5271TIP3    H237229   0.724   1.788   3.302  0.8281 -0.0544 -2.2565
 5272TIP3   OH237230   2.129   1.147   5.124 -0.8886  0.1705  0.1422
 5272TIP3    H137231   2.189   1.221   5.120 -0.7365  0.0731  0.5441
 5272TIP3    H237232   2.061   1.167   5.060 -0.4730  0.3228 -0.2578
 5273TIP3   OH237233   5.262   1.044   4.150  0.0082 -0.0819 -0.4958
 5273TIP3    H137234   5.169   1.023   4.162  0.2457 -1.2360 -0.5708
 5273TIP3    H237235   5.262   1.127   4.103 -0.9844  0.2947  0.1377
 5274TIP3   OH237236   2.817   1.782   3.273 -0.5036  0.2281  0.4750
 5274TIP3    H137237   2.858   1.807   3.356  1.8062  0.2186 -0.5766
 5274TIP3    H237238   2.879   1.810   3.206 -1.9257 -0.4745 -1.2267
 5275TIP3   OH237239   3.913   1.462  12.771 -0.9030 -0.2726  0.4176
 5275TIP3    H137240   3.971   1.514  12.715 -0.9870 -0.8628 -0.2132
 5275TIP3    H237241   3.875   1.396  12.714 -0.8760 -0.9797  1.1956
 5276TIP3   OH237242   4.984   6.491   1.664  0.1633 -0.6924 -0.1727
 5276TIP3    H137243   5.069   6.449   1.646  2.2421  3.3629 -0.8814
 5276TIP3    H237244   4.979   6.493   1.760  1.5954  0.2441 -0.0907
 5277TIP3   OH237245   5.373   1.835   6.746 -0.5576  0.2215 -0.3273
 5277TIP3    H137246   5.451   1.781   6.763 -2.1263 -1.9113  0.5568
 5277TIP3    H237247   5.351   1.817   6.655  0.4702  1.5757 -0.8778
 5278TIP3   OH237248   2.057   2.796   1.438 -0.4894  0.4741 -0.8232
 5278TIP3    H137249   2.092   2.707   1.438 -1.1979  0.1749 -2.0000
 5278TIP3    H237250   2.133   2.853   1.427 -0.1911 -0.0789 -1.6611
 5279TIP3   OH237251   3.622   2.387  14.667 -0.3687  0.0302 -0.5583
 5279TIP3    H137252   3.713   2.361  14.684 -0.0826  1.2501 -0.0449
 5279TIP3    H237253   3.606   2.362  14.577  0.2139 -0.9337 -0.4074
 5280TIP3   OH237254   0.197   0.101   4.017 -0.0273 -0.1391 -0.1607
 5280TIP3    H137255   0.214   0.022   3.966 -1.3782  0.3447 -1.4230
 5280TIP3    H237256   0.102   0.111   4.014 -0.0344  0.5683  1.4955
 5281TIP3   OH237257   2.585   3.972   5.814  0.6010  0.3102  0.1948
 5281TIP3    H137258   2.664   4.017   5.843  1.0131 -0.5927  0.5186
 5281TIP3    H237259   2.612   3.925   5.735  0.6795 -0.8018  0.8536
 5282TIP3   OH237260   4.458   0.746   1.857  0.2221 -0.4660 -0.2847
 5282TIP3    H137261   4.550   0.728   1.834  0.2737 -0.5693 -0.0002
 5282TIP3    H237262   4.412   0.665   1.834 -0.4601  0.7569 -3.9241
 5283TIP3   OH237263   1.243   0.196   4.956 -0.2164 -0.7914 -0.0449
 5283TIP3    H137264   1.259   0.105   4.978  0.2114 -0.9188 -0.8688
 5283TIP3    H237265   1.327   0.240   4.970  0.1738 -0.9439 -1.7088
 5284TIP3   OH237266   0.361   3.178  13.857 -0.3914 -0.0294 -0.8730
 5284TIP3    H137267   0.296   3.239  13.823  0.2902  0.5141 -1.2098
 5284TIP3    H237268   0.424   3.167  13.786  0.6547  0.5477 -0.0740
 5285TIP3   OH237269   4.610   6.198  11.221  0.0916 -0.0086  0.3661
 5285TIP3    H137270   4.631   6.162  11.135  2.0749  0.8079  0.4506
 5285TIP3    H237271   4.684   6.174  11.276 -0.3531  0.9029  1.4008
 5286TIP3   OH237272   4.343   5.639   1.789 -0.3895  0.3462  0.2525
 5286TIP3    H137273   4.324   5.616   1.698  0.6178  0.0432  0.1067
 5286TIP3    H237274   4.360   5.555   1.832 -0.5092  0.5157  0.6351
 5287TIP3   OH237275   1.723   3.795   5.728  0.0838 -0.3038  0.1185
 5287TIP3    H137276   1.692   3.860   5.665  2.9020  0.3048 -0.8104
 5287TIP3    H237277   1.762   3.726   5.674  1.1821 -0.5222  1.1397
 5288TIP3   OH237278   3.799   6.432  14.530 -0.3312  0.5226  0.4765
 5288TIP3    H137279   3.858   6.508  14.530 -0.8309  0.9179  0.1899
 5288TIP3    H237280   3.747   6.443  14.610  0.1437  0.0367  0.8640
 5289TIP3   OH237281   3.853   5.245   2.222 -0.0680  0.0949 -0.4413
 5289TIP3    H137282   3.864   5.192   2.301 -0.1223  0.8267  0.0680
 5289TIP3    H237283   3.930   5.226   2.169 -0.3278 -0.8667 -0.4987
 5290TIP3   OH237284   1.418   4.253   3.980 -0.0939  0.3881 -0.1549
 5290TIP3    H137285   1.390   4.194   3.910  0.9258  1.2782 -1.3570
 5290TIP3    H237286   1.348   4.247   4.045 -0.2850 -1.7049 -0.4767
 5291TIP3   OH237287   1.469   1.096   1.750 -0.3376 -0.1746 -0.1462
 5291TIP3    H137288   1.491   1.172   1.697  0.6079 -0.5557 -0.3216
 5291TIP3    H237289   1.551   1.071   1.792 -1.1305  0.3376  1.8080
 5292TIP3   OH237290   6.502   6.439  15.064  0.4222 -0.4588  0.2171
 5292TIP3    H137291   6.490   6.373  14.996  1.0508  0.5039 -0.8577
 5292TIP3    H237292   6.530   6.389  15.141 -1.1203 -1.6535  0.0377
 5293TIP3   OH237293   6.402   3.444  14.489 -0.6410 -0.4425 -0.6719
 5293TIP3    H137294   6.353   3.524  14.473 -0.7470 -0.5754 -1.0313
 5293TIP3    H237295   6.375   3.385  14.418  0.5612 -0.2749 -1.2806
 5294TIP3   OH237296   2.378   6.379  12.866 -0.2740 -0.1517 -0.0988
 5294TIP3    H137297   2.407   6.470  12.853 -0.3676 -0.2415 -0.9438
 5294TIP3    H237298   2.356   6.375  12.959 -0.7930  0.8494 -0.1637
 5295TIP3   OH237299   1.449   5.052  13.863 -0.0738  0.1011 -0.4114
 5295TIP3    H137300   1.473   4.991  13.794 -1.2737  1.4115 -2.0742
 5295TIP3    H237301   1.358   5.076  13.844 -0.6133  0.1463  1.9284
 5296TIP3   OH237302   3.278   1.092   5.354 -0.1885 -0.5824  0.7553
 5296TIP3    H137303   3.369   1.089   5.384 -0.2264 -1.0848  0.8296
 5296TIP3    H237304   3.239   1.164   5.403  0.6426  0.8707 -0.6244
 5297TIP3   OH237305   6.196   4.136   5.622 -0.8707  0.0131  0.4946
 5297TIP3    H137306   6.285   4.147   5.655 -1.2244  1.2471  1.0971
 5297TIP3    H237307   6.140   4.155   5.698 -1.6486 -0.3193  0.0163
 5298TIP3   OH237308   0.748   6.343  13.350  0.1412 -0.8472 -0.4087
 5298TIP3    H137309   0.807   6.270  13.368  0.3436 -0.1855  1.8160
 5298TIP3    H237310   0.665   6.301  13.327  0.7548 -1.7642 -1.0146
 5299TIP3   OH237311   5.834   1.555  12.858  0.3386  0.0811 -0.5377
 5299TIP3    H137312   5.849   1.624  12.793  1.0450  1.2646  0.8160
 5299TIP3    H237313   5.801   1.481  12.807  0.2225  1.1769 -2.1413
 5300TIP3   OH237314   4.796   2.146  16.018 -0.4150  0.1534  0.4973
 5300TIP3    H137315   4.878   2.158  16.067  1.8374  1.3154 -3.1523
 5300TIP3    H237316   4.755   2.233  16.018  0.3939  0.5593 -0.8649
 5301TIP3   OH237317   2.344   4.990  10.914 -0.3809  0.0762 -0.0604
 5301TIP3    H137318   2.301   5.018  10.834  1.6570  0.5955 -1.0423
 5301TIP3    H237319   2.436   5.015  10.902 -0.3600  2.4269  3.4245
 5302TIP3   OH237320   0.800   5.432  13.035  0.2596 -0.4504  0.3425
 5302TIP3    H137321   0.890   5.456  13.010  1.4633 -4.0252  0.6852
 5302TIP3    H237322   0.748   5.509  13.011  3.1234  1.1408 -1.4563
 5303TIP3   OH237323   4.376   2.354  11.672 -0.1937 -0.0119  0.4741
 5303TIP3    H137324   4.392   2.262  11.692 -0.5268 -0.0489  0.5811
 5303TIP3    H237325   4.287   2.370  11.703  0.7147  1.0236  2.8754
 5304TIP3   OH237326   0.766   2.666  15.937 -0.0933  0.0978 -0.5435
 5304TIP3    H137327   0.702   2.597  15.953  0.6360 -0.3478  0.6216
 5304TIP3    H237328   0.841   2.622  15.897  1.4098 -0.3769  2.4512
 5305TIP3   OH237329   3.602   3.569   5.122 -0.1894 -0.1050  0.4701
 5305TIP3    H137330   3.692   3.567   5.154 -0.4362 -0.7239  1.1905
 5305TIP3    H237331   3.563   3.646   5.164  0.6782  1.7289 -1.8981
 5306TIP3   OH237332   4.907   5.505   3.282  0.6899 -0.6825  0.2304
 5306TIP3    H137333   4.973   5.439   3.261 -0.5612 -1.7143 -0.6756
 5306TIP3    H237334   4.873   5.533   3.196  0.1236 -0.0085  0.6632
 5307TIP3   OH237335   2.514   5.096   1.096  0.0787  0.0372  0.1841
 5307TIP3    H137336   2.446   5.131   1.039 -0.7289 -1.4954  0.1398
 5307TIP3    H237337   2.503   5.144   1.179 -1.7624 -0.8662  0.5185
 5308TIP3   OH237338   0.458   1.131  16.930  0.5423  0.4054 -0.0851
 5308TIP3    H137339   0.475   1.115  16.837 -2.1650 -0.0193 -0.5797
 5308TIP3    H237340   0.470   1.045  16.971 -0.1869  0.1385 -0.4056
 5309TIP3   OH237341   0.839   6.418  17.188  0.5822 -0.0657  0.3637
 5309TIP3    H137342   0.783   6.413  17.111  0.1947 -0.0745  0.6432
 5309TIP3    H237343   0.850   6.328  17.216  0.8034 -0.0706  0.2622
 5310TIP3   OH237344   3.129   6.122   2.979 -0.0070 -0.2620 -0.3988
 5310TIP3    H137345   3.091   6.170   3.053  1.3690  0.7500 -0.2919
 5310TIP3    H237346   3.087   6.160   2.902 -1.1168 -1.0072 -0.1856
 5311TIP3   OH237347   2.761   5.480  12.542 -0.2990  0.0839  0.4991
 5311TIP3    H137348   2.766   5.404  12.484  2.1042 -1.3039  2.3016
 5311TIP3    H237349   2.800   5.551  12.493 -0.3926 -0.4589 -0.3797
 5312TIP3   OH237350   2.635   4.607  16.036  0.0637 -0.2198  0.2561
 5312TIP3    H137351   2.555   4.580  15.991  1.2166 -0.0388 -2.1001
 5312TIP3    H237352   2.626   4.702  16.046 -0.3834 -0.3173  0.8188
 5313TIP3   OH237353   2.762   1.646   5.060 -0.1464  0.0853 -0.2565
 5313TIP3    H137354   2.806   1.669   4.978  1.8747  0.3419  0.8556
 5313TIP3    H237355   2.755   1.729   5.107 -1.0885 -0.0972 -0.0551
 5314TIP3   OH237356   3.880   2.291  17.370  0.5005 -0.0790 -0.7392
 5314TIP3    H137357   3.895   2.216  17.313  0.6199 -0.5005 -0.1630
 5314TIP3    H237358   3.790   2.319  17.351  0.4722 -0.3425 -0.9883
 5315TIP3   OH237359   6.443   1.088  14.447 -0.1979 -0.1203  0.0641
 5315TIP3    H137360   6.383   1.052  14.511 -1.4162 -0.2413 -1.1094
 5315TIP3    H237361   6.408   1.174  14.425  1.0884  0.6067  0.6987
 5316TIP3   OH237362   4.508   2.506  15.548 -0.5044  0.0461 -0.8338
 5316TIP3    H137363   4.497   2.438  15.482 -1.1199 -0.5653 -0.1277
 5316TIP3    H237364   4.428   2.559  15.541 -1.1715 -0.7743  0.2427
 5317TIP3   OH237365   5.721   4.320  17.097  0.2483  0.0724 -0.9325
 5317TIP3    H137366   5.662   4.371  17.042  0.5584  1.3156 -0.1696
 5317TIP3    H237367   5.803   4.370  17.097  0.3418 -0.0431  0.3860
 5318TIP3   OH237368   5.226   6.442   3.874 -0.1726  0.4063  0.8447
 5318TIP3    H137369   5.184   6.417   3.956  0.2298  0.1576  0.9795
 5318TIP3    H237370   5.262   6.529   3.890 -0.3871  0.5002  0.8202
 5319TIP3   OH237371   6.163   0.000  15.640  0.5195 -0.0285 -0.0896
 5319TIP3    H137372   6.088  -0.033  15.690 -2.1738  1.2280 -2.9371
 5319TIP3    H237373   6.124   0.062  15.578  3.9777  0.6519 -1.7986
 5320TIP3   OH237374   0.918   1.873   3.359 -0.1059 -0.2603  0.1282
 5320TIP3    H137375   0.966   1.830   3.429  0.4643  0.6468  0.3159
 5320TIP3    H237376   0.979   1.873   3.285 -1.3520 -2.8772 -1.0162
 5321TIP3   OH237377   3.504   1.707  13.963 -0.3534 -0.7559  0.8015
 5321TIP3    H137378   3.497   1.612  13.973  0.4039 -0.6679  2.3661
 5321TIP3    H237379   3.486   1.742  14.050 -1.9520  0.6508 -0.0190
 5322TIP3   OH237380   6.722   4.718  12.572 -0.3304 -0.1058 -0.2674
 5322TIP3    H137381   6.791   4.772  12.611  0.8625 -0.6626 -1.5092
 5322TIP3    H237382   6.661   4.781  12.533 -0.3016  0.3864  0.4676
 5323TIP3   OH237383   0.115   4.332  15.976  0.6938  0.2268 -0.3162
 5323TIP3    H137384   0.174   4.380  15.917  0.6671  2.4404  1.3435
 5323TIP3    H237385   0.170   4.309  16.051 -0.1456  0.8890  0.5227
 5324TIP3   OH237386   6.668   2.684  15.946 -0.0214  0.2931 -0.5430
 5324TIP3    H137387   6.762   2.702  15.942  0.1792  0.2171  1.9938
 5324TIP3    H237388   6.638   2.692  15.855  2.3726  0.5359 -1.3884
 5325TIP3   OH237389   3.368   1.207  11.531  0.1177  0.4567 -0.3046
 5325TIP3    H137390   3.364   1.235  11.440  2.1747 -0.2243 -0.6557
 5325TIP3    H237391   3.453   1.239  11.562 -0.1491 -0.1213  1.0922
 5326TIP3   OH237392   5.301   1.288  16.431 -1.0891 -0.0272  0.1946
 5326TIP3    H137393   5.344   1.204  16.416 -0.7149  0.2495 -0.3139
 5326TIP3    H237394   5.345   1.324  16.507 -1.2082 -0.2574  0.3776
 5327TIP3   OH237395   3.945   3.808   2.312 -0.1834 -0.3546 -0.1378
 5327TIP3    H137396   4.000   3.854   2.250 -0.9812  0.2575 -0.4125
 5327TIP3    H237397   3.964   3.849   2.397  0.9039 -1.1900  0.0363
 5328TIP3   OH237398   4.279   0.296  16.882 -0.7196 -0.4594 -0.2091
 5328TIP3    H137399   4.235   0.299  16.797  0.7756 -1.5242 -1.0713
 5328TIP3    H237400   4.249   0.375  16.927 -1.9334 -0.1302 -1.5202
 5329TIP3   OH237401   0.611   1.170   4.546  0.0115  0.1294  0.1103
 5329TIP3    H137402   0.559   1.147   4.623  0.3226 -0.9645  0.0028
 5329TIP3    H237403   0.701   1.147   4.570  0.0805 -0.4349 -0.6622
 5330TIP3   OH237404   4.766   6.016   5.085 -0.8105  0.6155 -0.0004
 5330TIP3    H137405   4.681   5.977   5.066 -0.4575 -0.3563  0.3834
 5330TIP3    H237406   4.747   6.082   5.152 -1.2538  0.4022  0.0849
 5331TIP3   OH237407   5.650   0.633  11.609  0.3089 -0.8363 -0.0500
 5331TIP3    H137408   5.691   0.674  11.533  0.2925 -0.9496 -0.1205
 5331TIP3    H237409   5.566   0.602  11.577 -0.4020  0.5163  0.3952
 5332TIP3   OH237410   3.089   3.019   0.256 -0.2736  0.2391  0.5950
 5332TIP3    H137411   3.133   2.963   0.192 -0.6229 -0.4589  0.9569
 5332TIP3    H237412   3.112   3.108   0.230 -0.1351 -0.0498 -0.2946
 5333TIP3   OH237413   1.961   3.389   4.803  0.0202  0.3097 -0.1275
 5333TIP3    H137414   1.935   3.341   4.725  0.3092 -0.2063  0.0912
 5333TIP3    H237415   1.879   3.407   4.849 -0.1338  0.4725 -0.4629
 5334TIP3   OH237416   2.081   1.037  16.783  0.3736 -0.1782 -0.2570
 5334TIP3    H137417   2.094   1.123  16.743  0.7248 -0.5155 -0.8872
 5334TIP3    H237418   2.000   1.046  16.832 -0.1255  0.2377 -1.1219
 5335TIP3   OH237419   5.679   6.007  17.037 -0.3665  0.0524 -0.0222
 5335TIP3    H137420   5.761   6.015  17.085 -0.6481 -0.7367  0.6168
 5335TIP3    H237421   5.626   6.082  17.066 -0.9788 -1.0346  1.8334
 5336TIP3   OH237422   4.366   4.373   4.321  0.2761  0.1528 -1.2065
 5336TIP3    H137423   4.345   4.341   4.234  3.0185 -0.7221 -1.6530
 5336TIP3    H237424   4.435   4.437   4.307  0.4406  0.3429  0.2836
 5337TIP3   OH237425   0.553   2.537  13.494  0.4770  0.2458  0.1699
 5337TIP3    H137426   0.502   2.564  13.417  0.5908  2.0554  0.6804
 5337TIP3    H237427   0.637   2.507  13.458 -0.3359 -1.3049 -0.5583
 5338TIP3   OH237428   1.318   5.623  16.866 -0.0020 -0.0645  0.1267
 5338TIP3    H137429   1.388   5.629  16.931 -0.7647  2.0877  0.8284
 5338TIP3    H237430   1.345   5.551  16.809  0.4821 -2.4126  3.0492
 5339TIP3   OH237431   2.519   0.449  16.949 -0.4014  0.3144 -0.4123
 5339TIP3    H137432   2.489   0.416  17.034  0.2614 -0.9343 -0.6365
 5339TIP3    H237433   2.465   0.403  16.885 -0.3717  0.6644 -0.6857
 5340TIP3   OH237434   4.614   6.270  14.329  0.4856 -0.9056 -0.1654
 5340TIP3    H137435   4.520   6.252  14.330  0.2853 -0.0410 -1.1708
 5340TIP3    H237436   4.623   6.352  14.378  0.7492 -1.1338  0.1679
 5341TIP3   OH237437   4.039   2.205  15.471  0.2868 -0.1653 -0.2494
 5341TIP3    H137438   3.975   2.237  15.408  1.2368  0.8083 -0.7613
 5341TIP3    H237439   4.119   2.253  15.450  1.4904 -2.0928 -0.3125
 5342TIP3   OH237440   1.569   4.039   4.683 -0.5182  0.7926  1.0910
 5342TIP3    H137441   1.555   4.045   4.777  0.7643  0.0487  1.3391
 5342TIP3    H237442   1.519   4.113   4.647 -2.9011 -0.2083  2.1099
 5343TIP3   OH237443   2.404   1.633   2.931 -0.4240  0.3479 -0.2083
 5343TIP3    H137444   2.329   1.652   2.873 -1.2612 -0.5003  0.5624
 5343TIP3    H237445   2.379   1.672   3.015 -0.6522 -1.1576  0.4478
 5344TIP3   OH237446   2.108   5.866  12.578  0.6243 -0.4561  0.2422
 5344TIP3    H137447   2.158   5.825  12.507 -0.2534  1.0381 -1.2891
 5344TIP3    H237448   2.019   5.834  12.565  0.3061  0.4560  0.1752
 5345TIP3   OH237449   2.912   0.301   6.019  0.0713  0.4488 -1.3262
 5345TIP3    H137450   2.832   0.353   6.024 -0.3437 -0.2793  0.8390
 5345TIP3    H237451   2.966   0.332   6.092 -0.8939 -3.1097  1.1635
 5346TIP3   OH237452   4.737   3.800  10.687  0.4790 -0.4015  0.1251
 5346TIP3    H137453   4.717   3.777  10.596 -1.1479  0.9808  0.0859
 5346TIP3    H237454   4.832   3.788  10.694  0.4201 -2.1255 -1.2546
 5347TIP3   OH237455   2.897   3.861   1.295 -0.4124 -0.3591 -0.8995
 5347TIP3    H137456   2.913   3.774   1.331  2.8718  0.6040  0.3779
 5347TIP3    H237457   2.953   3.866   1.218  1.7067  1.4698  0.6439
 5348TIP3   OH237458   2.181   6.511  16.853  0.1467  0.5394  0.1317
 5348TIP3    H137459   2.167   6.510  16.758  0.4978  0.4377  0.0812
 5348TIP3    H237460   2.274   6.530  16.863 -0.2766  2.7147  0.4949
 5349TIP3   OH237461   2.046   3.695  12.357  0.1119 -0.5162  0.5384
 5349TIP3    H137462   2.072   3.740  12.437  0.6254  0.6470 -0.2574
 5349TIP3    H237463   1.962   3.734  12.333  1.7101  1.9839 -1.5250
 5350TIP3   OH237464   5.069   2.407  12.582 -0.8575 -0.2566  0.0285
 5350TIP3    H137465   5.140   2.468  12.563 -1.6042  0.4322 -0.6078
 5350TIP3    H237466   4.990   2.461  12.581 -1.6707 -1.4061 -1.6583
 5351TIP3   OH237467   1.741   2.830   3.237 -0.1597  0.0898 -0.3301
 5351TIP3    H137468   1.827   2.786   3.242 -0.1763  0.1463  1.0047
 5351TIP3    H237469   1.682   2.771   3.285 -0.9090 -0.0220 -1.3697
 5352TIP3   OH237470   2.120   0.594   4.690  0.4413  0.1272 -0.4770
 5352TIP3    H137471   2.161   0.542   4.759 -2.1068  0.1120  1.1467
 5352TIP3    H237472   2.143   0.684   4.712 -0.3716  0.1232  0.4405
 5353TIP3   OH237473   0.042   6.334  15.571 -0.1111  0.0677  0.5443
 5353TIP3    H137474   0.074   6.362  15.657 -1.0719 -0.2441  1.0130
 5353TIP3    H237475  -0.052   6.352  15.573 -0.0595  0.6015 -0.6668
 5354TIP3   OH237476   0.233   4.362  14.687 -0.3916  0.2184 -0.4755
 5354TIP3    H137477   0.292   4.425  14.645  0.3473 -0.9427 -1.2262
 5354TIP3    H237478   0.290   4.291  14.715 -1.3811 -0.7832 -0.9207
 5355TIP3   OH237479   3.934   4.453  16.342  1.0767  0.0773 -0.1158
 5355TIP3    H137480   4.016   4.494  16.315  0.7921  1.7089  1.3182
 5355TIP3    H237481   3.953   4.415  16.428  0.4785 -0.0020 -0.0103
 5356TIP3   OH237482   0.939   2.805   2.760 -0.4050  0.4773  0.2553
 5356TIP3    H137483   0.893   2.866   2.704  1.6855  1.7754 -0.1740
 5356TIP3    H237484   0.905   2.823   2.848 -0.3649  1.7575  0.0315
 5357TIP3   OH237485   0.523   3.678   0.248 -0.1859 -0.0400 -0.4924
 5357TIP3    H137486   0.584   3.636   0.309  3.4691  0.8744 -3.1757
 5357TIP3    H237487   0.524   3.770   0.272 -2.6551 -0.3205  0.9906
 5358TIP3   OH237488   2.834   2.412  10.660 -0.3673  0.2394  0.0090
 5358TIP3    H137489   2.765   2.447  10.604  0.7576 -0.2556 -1.7642
 5358TIP3    H237490   2.822   2.317  10.657 -0.4722  0.2201  0.8632
 5359TIP3   OH237491   0.924   1.638   1.113  0.0225  0.3854  0.2899
 5359TIP3    H137492   0.917   1.733   1.114 -0.7104  0.3731 -1.0751
 5359TIP3    H237493   0.873   1.609   1.189 -0.7674  1.0350  0.0188
 5360TIP3   OH237494   1.328   1.789   1.506 -0.1869  0.2932 -0.2811
 5360TIP3    H137495   1.367   1.855   1.449 -0.4435  1.5536  0.9257
 5360TIP3    H237496   1.399   1.763   1.565  0.0694 -0.9755 -1.1000
 5361TIP3   OH237497   6.499   6.479   4.030  0.2689  0.4474 -0.5002
 5361TIP3    H137498   6.573   6.538   4.039 -0.0288  0.6496  0.9025
 5361TIP3    H237499   6.506   6.444   3.942  0.9854  1.8491 -1.0233
 5362TIP3   OH237500   4.864   2.993   3.166  0.8583 -0.4907 -0.2659
 5362TIP3    H137501   4.830   2.954   3.247  1.6595  1.2794  1.0052
 5362TIP3    H237502   4.796   3.055   3.140  0.4302 -1.3278 -1.2152
 5363TIP3   OH237503   0.562   5.237   3.823 -0.1315  0.4248 -0.0831
 5363TIP3    H137504   0.595   5.183   3.751 -0.4947 -0.3759  0.3446
 5363TIP3    H237505   0.540   5.320   3.782 -0.1126  0.0573 -0.8578
 5364TIP3   OH237506   2.103   4.131  13.125  0.0742 -0.3671 -0.5653
 5364TIP3    H137507   2.082   4.048  13.166  0.2536 -0.7025 -1.1344
 5364TIP3    H237508   2.199   4.132  13.120  0.0684 -0.1851 -0.6701
 5365TIP3   OH237509   4.467   5.891  17.116 -0.3014  0.2852  0.2223
 5365TIP3    H137510   4.552   5.891  17.072 -0.3677 -1.4585  0.0210
 5365TIP3    H237511   4.425   5.972  17.088  1.7846  1.8422  1.3631
 5366TIP3   OH237512   0.922   4.138  16.844 -0.1276  0.0267  0.0372
 5366TIP3    H137513   1.011   4.115  16.870  0.9300  1.2864 -2.1921
 5366TIP3    H237514   0.882   4.055  16.819  1.7870 -0.1971 -2.6821
 5367TIP3   OH237515   1.183   6.724   3.935 -0.2350  0.8207  0.0157
 5367TIP3    H137516   1.106   6.773   3.963 -0.9976 -0.3896  0.1330
 5367TIP3    H237517   1.203   6.758   3.847 -1.1941  0.8296 -0.2113
 5368TIP3   OH237518   4.019   1.674   1.245  0.1827 -0.3832 -0.4698
 5368TIP3    H137519   4.058   1.694   1.330  3.8469 -0.7587 -1.8881
 5368TIP3    H237520   4.015   1.578   1.242 -0.3987 -0.3602 -0.5529
 5369TIP3   OH237521   4.164   5.137   0.432 -0.2786 -0.4113 -0.0893
 5369TIP3    H137522   4.140   5.226   0.457 -1.6702 -0.8651  0.2883
 5369TIP3    H237523   4.099   5.082   0.475 -0.5980 -1.4818 -1.8355
 5370TIP3   OH237524   6.545   2.020   5.853 -0.3342  0.2077  0.2126
 5370TIP3    H137525   6.602   1.946   5.871 -1.4002 -0.2723  1.8301
 5370TIP3    H237526   6.590   2.096   5.890 -0.2251  0.0212  0.4617
 5371TIP3   OH237527   1.949   1.730  16.648 -0.3198  0.3484  0.4003
 5371TIP3    H137528   2.022   1.695  16.598 -0.5498  1.1943 -0.5669
 5371TIP3    H237529   1.871   1.695  16.604 -0.5372 -0.6576  1.4998
 5372TIP3   OH237530   1.472   0.309  11.059 -0.4107 -0.1806  0.1345
 5372TIP3    H137531   1.465   0.296  11.154 -1.6402  0.4396  0.1474
 5372TIP3    H237532   1.525   0.388  11.050  1.4190 -1.3505  0.2262
 5373TIP3   OH237533   5.944   6.529   6.052  0.2449 -0.0515 -0.3931
 5373TIP3    H137534   6.014   6.518   5.988  0.3637 -1.7860 -0.0148
 5373TIP3    H237535   5.878   6.465   6.026 -0.3030  0.1571  0.4370
 5374TIP3   OH237536   2.544   5.415  12.304  0.2024  0.6694  0.3955
 5374TIP3    H137537   2.524   5.321  12.305 -1.0605  0.9066 -0.3493
 5374TIP3    H237538   2.538   5.439  12.212  0.5534  1.4871  0.5799
 5375TIP3   OH237539   4.044   0.199  14.910 -0.7407 -0.1040 -0.5853
 5375TIP3    H137540   4.129   0.225  14.874 -0.2557 -0.5901  0.1662
 5375TIP3    H237541   4.000   0.281  14.930  0.8302  0.2423  1.9159
 5376TIP3   OH237542   5.475   5.606   4.285  0.3631  0.1569 -0.4109
 5376TIP3    H137543   5.388   5.645   4.299 -0.0057 -0.8396  0.2611
 5376TIP3    H237544   5.526   5.635   4.360 -0.3168 -1.6629  0.8434
 5377TIP3   OH237545   6.549   3.087  14.340  0.5173 -0.1272  0.3924
 5377TIP3    H137546   6.541   3.080  14.436  0.3697 -1.6743  0.2948
 5377TIP3    H237547   6.467   3.128  14.312  1.0189  1.3724  0.9987
 5378TIP3   OH237548   1.945   5.690   4.900  0.0390  0.6898 -0.1577
 5378TIP3    H137549   1.873   5.717   4.844  0.3504  0.3636 -0.7237
 5378TIP3    H237550   1.907   5.684   4.987  0.0338  3.2814  0.0955
 5379TIP3   OH237551   4.501   5.372  12.193 -0.0324 -0.6415  0.3926
 5379TIP3    H137552   4.434   5.415  12.140 -0.6373 -0.0520  1.5953
 5379TIP3    H237553   4.485   5.279  12.180 -0.0497 -0.5180 -0.5873
 5380TIP3   OH237554   4.361   4.996  16.039  0.4134  0.0943 -0.3330
 5380TIP3    H137555   4.379   5.034  16.126  1.1442 -1.0497  0.0317
 5380TIP3    H237556   4.271   4.965  16.045  0.8631 -1.1507  0.4893
 5381TIP3   OH237557   6.005   1.036  11.434 -0.7677 -0.2576 -0.9236
 5381TIP3    H137558   6.037   0.966  11.377  2.3928 -1.0972  1.6060
 5381TIP3    H237559   6.032   1.117  11.390  0.1650 -0.8199 -1.4088
 5382TIP3   OH237560   2.145   2.337  16.534  0.2452  0.4516  0.1525
 5382TIP3    H137561   2.120   2.248  16.512  1.6133 -0.4173  1.8792
 5382TIP3    H237562   2.123   2.346  16.627 -0.0863  2.0145 -0.0385
 5383TIP3   OH237563   0.222   4.589  15.317  0.1368 -0.2192  0.2406
 5383TIP3    H137564   0.289   4.657  15.313 -0.4313  0.3530  0.2864
 5383TIP3    H237565   0.139   4.635  15.303 -0.4573 -0.6041  2.1634
 5384TIP3   OH237566   6.403   0.323   5.633 -0.1500 -0.0140  0.5481
 5384TIP3    H137567   6.393   0.418   5.630 -0.6908  0.0390  2.6816
 5384TIP3    H237568   6.319   0.291   5.666 -0.3311 -1.3515 -1.0664
 5385TIP3   OH237569   5.950   1.701  15.600  0.3688  0.8731 -0.6455
 5385TIP3    H137570   5.951   1.609  15.575 -1.5095  1.2245 -2.2709
 5385TIP3    H237571   5.990   1.747  15.527  0.3652  1.4366 -0.2985
 5386TIP3   OH237572   4.921   1.935  13.912  0.4598  0.9041  0.2954
 5386TIP3    H137573   4.869   1.861  13.882  1.1223  0.8558 -0.7948
 5386TIP3    H237574   4.914   2.000  13.841  0.9271  1.3586  0.6577
 5387TIP3   OH237575   1.699   0.689   3.401 -0.4468  0.1526  0.4380
 5387TIP3    H137576   1.791   0.690   3.429  0.5211 -0.0875 -2.3924
 5387TIP3    H237577   1.684   0.777   3.365 -2.1254  0.9876  2.9125
 5388TIP3   OH237578   3.076   6.388  11.138 -1.0681 -0.2212  0.0164
 5388TIP3    H137579   3.108   6.355  11.054 -2.5268  0.5877 -0.9068
 5388TIP3    H237580   3.002   6.444  11.115 -1.2957  0.2919  1.8320
 5389TIP3   OH237581   1.037   6.248   1.232  0.2732  0.7047 -0.4347
 5389TIP3    H137582   1.021   6.340   1.254 -0.6274  0.7367 -1.1810
 5389TIP3    H237583   1.113   6.249   1.175  1.4817  0.7906  1.1107
 5390TIP3   OH237584   1.335   0.001   3.209  0.7104 -0.1076  0.0843
 5390TIP3    H137585   1.253  -0.009   3.257 -0.8509  1.1026 -2.1792
 5390TIP3    H237586   1.384  -0.079   3.228 -1.8099 -1.7635  0.0107
 5391TIP3   OH237587   0.761   4.617  17.085 -0.0035  0.4636  0.3903
 5391TIP3    H137588   0.706   4.576  17.018 -1.7355  0.7126  1.5784
 5391TIP3    H237589   0.832   4.659  17.036 -1.4360  0.9876 -1.3359
 5392TIP3   OH237590   2.625   1.711   2.403 -0.5156 -0.1287 -0.9457
 5392TIP3    H137591   2.606   1.643   2.467  0.5817  2.4633  2.4414
 5392TIP3    H237592   2.696   1.676   2.350  0.0987 -1.5991  0.7592
 5393TIP3   OH237593   0.828   2.897  16.096 -0.2567  0.8156 -0.0857
 5393TIP3    H137594   0.796   2.834  16.032  0.8371  0.5267 -0.3688
 5393TIP3    H237595   0.789   2.869  16.179  0.4938 -0.4708 -0.1338
 5394TIP3   OH237596   0.490   0.803  13.138  0.0881 -0.6101 -0.2156
 5394TIP3    H137597   0.525   0.811  13.227 -2.6513 -0.4866  0.9577
 5394TIP3    H237598   0.463   0.711  13.132  1.5811 -1.0081 -1.5258
 5395TIP3   OH237599   2.463   4.888  11.901  0.1295  0.0746 -0.1651
 5395TIP3    H137600   2.490   4.875  11.992  1.4896  0.8003 -0.4375
 5395TIP3    H237601   2.416   4.971  11.901  0.0788  0.0454 -0.1072
 5396TIP3   OH237602   5.137   0.124  14.282  0.1235 -0.0464  0.0848
 5396TIP3    H137603   5.161   0.210  14.316  2.0622 -0.5886  0.1761
 5396TIP3    H237604   5.088   0.083  14.354 -0.2013  0.7037  0.3042
 5397TIP3   OH237605   5.935   0.018   0.276  0.4923  0.2860  0.2725
 5397TIP3    H137606   5.857   0.070   0.294 -0.0745 -0.2997 -0.4105
 5397TIP3    H237607   6.000   0.082   0.246 -1.0054  0.4263 -3.1815
 5398TIP3   OH237608   5.723   1.956  10.855 -0.4652 -0.5765 -0.2961
 5398TIP3    H137609   5.792   1.999  10.803  0.1573 -1.3332 -0.1271
 5398TIP3    H237610   5.674   1.905  10.791 -1.4121  0.6087 -0.5496
 5399TIP3   OH237611   2.478   1.590   1.234 -0.1321 -0.0082  0.6055
 5399TIP3    H137612   2.452   1.531   1.164 -0.4115 -0.4163  1.0516
 5399TIP3    H237613   2.466   1.540   1.314  0.2447  0.4323  0.9478
 5400TIP3   OH237614   1.876   1.471  11.148  0.4660  0.5556 -0.0875
 5400TIP3    H137615   1.897   1.456  11.056 -1.1656  1.2239 -0.5985
 5400TIP3    H237616   1.810   1.540  11.146  1.2894  1.4550  1.6583
 5401TIP3   OH237617   1.020   4.063   1.875  0.5586 -0.7606  0.2471
 5401TIP3    H137618   0.977   4.042   1.958  0.4319 -1.1062  0.0954
 5401TIP3    H237619   1.108   4.090   1.900 -0.4600  2.4953  0.8095
 5402TIP3   OH237620   3.649   2.941  11.368  0.4933  0.4998 -0.2055
 5402TIP3    H137621   3.603   3.022  11.345  0.3989  0.3727 -0.4648
 5402TIP3    H237622   3.658   2.894  11.285  0.2915  0.1116 -0.0057
 5403TIP3   OH237623   1.023   0.959  16.103  0.0206 -0.4808 -0.1683
 5403TIP3    H137624   1.006   1.053  16.096 -2.4312 -0.9750 -2.1085
 5403TIP3    H237625   0.967   0.929  16.174 -0.5482 -0.7284 -0.7118
 5404TIP3   OH237626   5.753   5.167   5.302  0.2510 -0.2767  0.0287
 5404TIP3    H137627   5.763   5.101   5.232  1.6658  0.0778 -0.1254
 5404TIP3    H237628   5.828   5.153   5.359 -0.0220  0.5159  0.5911
 5405TIP3   OH237629   1.937   6.561   4.411  0.3946  0.4660  0.1157
 5405TIP3    H137630   2.019   6.604   4.435  0.5746 -0.1031  0.5155
 5405TIP3    H237631   1.926   6.491   4.475  0.8271 -1.0285 -1.3904
 5406TIP3   OH237632   2.276   2.756  13.429  0.3370 -0.2574 -0.1981
 5406TIP3    H137633   2.289   2.710  13.346 -0.9596 -0.3036 -0.3969
 5406TIP3    H237634   2.229   2.836  13.405  0.9979  0.3188  0.3658
 5407TIP3   OH237635   1.180   2.926   2.635  0.4928 -0.4210  0.2110
 5407TIP3    H137636   1.271   2.944   2.608  0.0741  2.8483  0.6156
 5407TIP3    H237637   1.188   2.890   2.723  1.4104 -0.5104  0.1017
 5408TIP3   OH237638   0.346   6.201   3.657 -1.0426  0.5737 -0.1487
 5408TIP3    H137639   0.435   6.205   3.621 -0.3535 -3.4376  0.7184
 5408TIP3    H237640   0.359   6.197   3.752 -2.0568 -0.9994 -0.0550
 5409TIP3   OH237641   3.208   4.616  15.155  0.8014 -0.2154 -0.0707
 5409TIP3    H137642   3.213   4.631  15.249 -1.3247 -3.1993  0.6824
 5409TIP3    H237643   3.123   4.651  15.129  0.7246 -0.7491 -0.5669
 5410TIP3   OH237644   6.642   3.435  11.773 -0.0546  0.5575  0.5896
 5410TIP3    H137645   6.684   3.353  11.800  0.6405  0.1316 -1.5502
 5410TIP3    H237646   6.586   3.410  11.700  0.3131  2.0051 -0.2274
 5411TIP3   OH237647   1.963   3.019   3.142 -0.6603  0.6015 -0.4658
 5411TIP3    H137648   1.994   3.107   3.166  0.5182  0.1353 -0.2563
 5411TIP3    H237649   1.884   3.007   3.195 -0.4017  1.2258  0.0767
 5412TIP3   OH237650   2.872   0.203   5.189 -0.1127  0.2722 -0.3693
 5412TIP3    H137651   2.785   0.242   5.187 -0.6945 -0.9449  0.0874
 5412TIP3    H237652   2.915   0.235   5.110 -1.2402  0.3060 -0.9890
 5413TIP3   OH237653   0.529   3.478   0.499  0.7424 -0.5614  0.2267
 5413TIP3    H137654   0.489   3.516   0.577  2.1074  0.1016  0.6469
 5413TIP3    H237655   0.597   3.541   0.474  1.3231 -1.4864 -0.6215
 5414TIP3   OH237656   4.822   0.927   4.329 -0.2557  0.2455  0.1219
 5414TIP3    H137657   4.886   0.926   4.258  1.3803 -1.9730  1.4772
 5414TIP3    H237658   4.861   0.981   4.397 -0.5683  0.1741  0.3622
 5415TIP3   OH237659   0.902   3.385  15.068 -0.4371 -0.4224 -0.2049
 5415TIP3    H137660   0.973   3.341  15.115  0.3737  1.9242  0.9405
 5415TIP3    H237661   0.947   3.432  14.997 -1.2439 -1.2697 -1.2987
 5416TIP3   OH237662   0.817   2.653  12.919  0.3322 -0.2853  0.2317
 5416TIP3    H137663   0.796   2.729  12.865 -0.1519 -1.0712 -0.7115
 5416TIP3    H237664   0.853   2.691  13.000  0.7230  0.9146 -0.4777
 5417TIP3   OH237665   2.261   1.185   5.442  0.1566  0.7959 -0.3919
 5417TIP3    H137666   2.317   1.153   5.512  1.0587 -0.2800 -1.5438
 5417TIP3    H237667   2.318   1.188   5.365 -1.1246  0.5842 -1.3895
 5418TIP3   OH237668   5.630   3.370  13.576 -0.3082 -0.5779  0.8767
 5418TIP3    H137669   5.551   3.358  13.524  0.3730 -1.3277 -0.0257
 5418TIP3    H237670   5.681   3.290  13.561  2.3715  1.3806 -1.6961
 5419TIP3   OH237671   2.732   6.397  16.045 -0.5113  0.9216  0.0352
 5419TIP3    H137672   2.705   6.388  16.136  0.7004 -0.0735  0.3299
 5419TIP3    H237673   2.784   6.478  16.044  0.7088  0.1789  0.5813
 5420TIP3   OH237674   0.994   5.597  17.362  0.0139  0.2762  0.3271
 5420TIP3    H137675   0.984   5.686  17.396 -1.7725  0.1141  0.3476
 5420TIP3    H237676   0.908   5.557  17.376  0.3232 -0.9504 -1.0911
 5421TIP3   OH237677   2.510   1.286  16.669 -0.4885 -0.6796  0.0826
 5421TIP3    H137678   2.584   1.241  16.709 -0.4811  0.2408  1.1747
 5421TIP3    H237679   2.548   1.337  16.597 -0.3079 -1.3734 -0.3251
 5422TIP3   OH237680   4.730   5.754  14.105  0.2000  0.3709 -0.4115
 5422TIP3    H137681   4.688   5.770  14.020 -2.5287  2.7234  1.1877
 5422TIP3    H237682   4.658   5.725  14.162  1.0343  2.6582  2.0140
 5423TIP3   OH237683   4.319   3.228  15.310 -0.8483  0.1619 -0.2496
 5423TIP3    H137684   4.411   3.204  15.320 -1.1488 -0.5440  0.9500
 5423TIP3    H237685   4.273   3.145  15.302 -1.6728  0.3652  1.8669
 5424TIP3   OH237686   5.295   3.751  15.912 -0.1672  0.8708 -0.5940
 5424TIP3    H137687   5.340   3.669  15.933 -2.9021 -0.8338 -0.9133
 5424TIP3    H237688   5.270   3.741  15.820  0.1791  2.4694 -0.8918
 5425TIP3   OH237689   2.687   0.397   1.210  0.3490 -0.1463 -0.3395
 5425TIP3    H137690   2.642   0.444   1.281  2.0838  1.2953 -0.1061
 5425TIP3    H237691   2.643   0.313   1.204  0.1232 -0.3038  2.4539
 5426TIP3   OH237692   1.836   0.058   2.315  0.1453 -0.6734 -0.0305
 5426TIP3    H137693   1.859  -0.019   2.262 -1.7988 -1.2032 -0.1946
 5426TIP3    H237694   1.813   0.125   2.251  2.4050  0.2951  0.0980
 5427TIP3   OH237695   6.618   6.391   4.337 -0.3216  0.2713  0.4238
 5427TIP3    H137696   6.580   6.425   4.257  1.9684  1.0488 -0.4270
 5427TIP3    H237697   6.631   6.468   4.392  1.9228  0.4296 -0.2101
 5428TIP3   OH237698   6.476   4.844   3.968  0.3310  0.0746 -0.5205
 5428TIP3    H137699   6.409   4.913   3.971  0.0518 -0.1408 -1.4492
 5428TIP3    H237700   6.552   4.883   4.010  0.2456  1.0299 -1.2128
 5429TIP3   OH237701   6.723   5.559   3.579 -0.1672  0.0880  0.5783
 5429TIP3    H137702   6.700   5.549   3.486  0.7746  2.1015  0.0823
 5429TIP3    H237703   6.689   5.645   3.603 -1.5056 -0.9037  2.5069
 5430TIP3   OH237704   3.633   3.500   1.047 -0.3090 -0.0301 -0.3282
 5430TIP3    H137705   3.542   3.475   1.032 -0.5759 -0.4806  1.7246
 5430TIP3    H237706   3.675   3.488   0.962 -2.5316  2.1110 -1.8645
 5431TIP3   OH237707   1.803   1.424   2.760  0.4264  0.0502  0.3811
 5431TIP3    H137708   1.738   1.415   2.690 -0.2211  0.0071  0.9680
 5431TIP3    H237709   1.823   1.518   2.761  0.2211  0.0968  0.3201
 5432TIP3   OH237710   1.481   2.930   0.008  0.1493  0.1420 -0.2705
 5432TIP3    H137711   1.513   2.845  -0.023 -1.2715 -1.1099  1.4810
 5432TIP3    H237712   1.548   2.960   0.069  0.3159 -0.0893 -0.3389
 5433TIP3   OH237713   5.275   2.286  10.893 -0.2162  0.2399  0.4936
 5433TIP3    H137714   5.217   2.242  10.955 -1.4272  0.1145 -0.6937
 5433TIP3    H237715   5.352   2.311  10.946 -0.8219 -0.6244  1.8309
 5434TIP3   OH237716   1.275   1.474   2.353  0.2186 -0.5442  0.3372
 5434TIP3    H137717   1.226   1.545   2.395  2.0995  1.6697 -0.9333
 5434TIP3    H237718   1.234   1.464   2.267  0.7645  0.0160 -0.0055
 5435TIP3   OH237719   6.685   5.328   1.071 -0.8204 -0.5004  0.9677
 5435TIP3    H137720   6.754   5.366   1.125  0.4314  0.1170 -0.9530
 5435TIP3    H237721   6.703   5.234   1.073  0.4313 -0.3080  0.0907
 5436TIP3   OH237722   3.207   1.625  15.740 -0.5679 -0.0933 -0.0311
 5436TIP3    H137723   3.259   1.699  15.772 -0.2431 -0.5525  0.5330
 5436TIP3    H237724   3.266   1.579  15.680 -0.8437  0.2159 -0.5514
 5437TIP3   OH237725   5.557   2.269  15.696  0.1806 -0.2234  0.6065
 5437TIP3    H137726   5.633   2.322  15.720 -0.8964  2.3307 -1.1857
 5437TIP3    H237727   5.594   2.192  15.652  1.7824  1.1106 -0.5249
 5438TIP3   OH237728   1.084   4.126   3.482  0.0165 -0.2340 -0.9714
 5438TIP3    H137729   1.009   4.174   3.447  0.3534  0.7514 -0.3884
 5438TIP3    H237730   1.120   4.079   3.406 -0.3202  0.4447 -1.5640
 5439TIP3   OH237731   4.066   1.764  11.878 -0.2473 -0.0616  0.6456
 5439TIP3    H137732   4.113   1.711  11.943  1.0625  1.9284  1.4359
 5439TIP3    H237733   3.996   1.806  11.928 -0.0924  0.4061  0.4738
 5440TIP3   OH237734   1.575   5.344  12.420  0.1723 -0.2083 -0.3841
 5440TIP3    H137735   1.590   5.249  12.424 -1.3458 -0.4554 -0.1187
 5440TIP3    H237736   1.483   5.355  12.441  0.6989  1.4798  1.3915
 5441TIP3   OH237737   2.377   2.234  12.833  0.3010  0.1294 -0.1225
 5441TIP3    H137738   2.460   2.187  12.832 -0.0902 -0.5634 -0.7945
 5441TIP3    H237739   2.349   2.233  12.925 -0.2623 -1.9674 -0.2845
 5442TIP3   OH237740   4.949   1.556   2.767  0.2965 -0.3872 -0.0731
 5442TIP3    H137741   5.020   1.617   2.790 -0.0508 -0.4378  1.2240
 5442TIP3    H237742   4.903   1.541   2.850 -3.1353  2.0014 -1.3205
 5443TIP3   OH237743   0.378   2.283  15.191 -0.0664  0.0468 -0.0869
 5443TIP3    H137744   0.324   2.360  15.207 -0.3521  0.1139 -1.2811
 5443TIP3    H237745   0.333   2.237  15.120 -0.0087 -1.3319  0.7466
 5444TIP3   OH237746   4.508   4.851  13.731  0.4071  0.3544 -0.4626
 5444TIP3    H137747   4.567   4.916  13.692  0.0479 -0.0437 -1.6888
 5444TIP3    H237748   4.437   4.842  13.669 -0.4163  0.0251  0.5028
 5445TIP3   OH237749   1.700   2.735   5.491 -0.6299 -0.3265  0.2326
 5445TIP3    H137750   1.760   2.676   5.537 -1.4191  0.3371  2.2178
 5445TIP3    H237751   1.755   2.810   5.466 -0.0239 -1.0433 -0.6243
 5446TIP3   OH237752   4.659   3.728  15.330 -0.5555  0.2227 -0.1198
 5446TIP3    H137753   4.655   3.633  15.342  1.4466  0.2393  1.3025
 5446TIP3    H237754   4.579   3.761  15.371  0.5726 -0.6599  3.0782
 5447TIP3   OH237755   6.749   4.487   5.760  0.3432  0.1798  0.4565
 5447TIP3    H137756   6.664   4.448   5.739  0.7159 -0.7467  0.6519
 5447TIP3    H237757   6.747   4.572   5.716 -0.9622  0.4771  1.0245
 5448TIP3   OH237758   4.936   0.077  14.939  0.5897 -0.6199 -0.3411
 5448TIP3    H137759   5.004   0.106  14.878 -0.0016  1.0693 -0.2498
 5448TIP3    H237760   4.855   0.108  14.899  0.3110  2.3709  2.1816
 5449TIP3   OH237761   4.802   1.003   1.453  0.6039  0.2971  0.2740
 5449TIP3    H137762   4.709   0.983   1.453  0.4758  0.8345 -0.2593
 5449TIP3    H237763   4.836   0.963   1.533  0.2377 -1.3717 -0.3637
 5450TIP3   OH237764   1.582   2.941   2.774 -0.1392 -0.0685 -0.4969
 5450TIP3    H137765   1.534   3.024   2.777  0.4057  0.2226  0.7455
 5450TIP3    H237766   1.674   2.966   2.785  0.4013 -0.5918 -3.1059
 5451TIP3   OH237767   6.545   4.940  15.348 -0.8005 -0.4630 -0.1079
 5451TIP3    H137768   6.494   4.859  15.347 -1.5294 -0.1958  3.1879
 5451TIP3    H237769   6.484   5.006  15.380  0.6130  0.7122  0.2777
 5452TIP3   OH237770   2.101   4.793   2.565  0.4544  0.1446 -0.2249
 5452TIP3    H137771   2.018   4.810   2.521  0.9803  0.5974 -1.0487
 5452TIP3    H237772   2.159   4.864   2.537  1.0939 -0.1040  0.4267
 5453TIP3   OH237773   0.397   2.522  12.757 -0.0159  0.3779  0.7778
 5453TIP3    H137774   0.357   2.434  12.754  0.5641  0.1010  1.0285
 5453TIP3    H237775   0.375   2.561  12.673  0.3533 -0.2865  0.3649
 5454TIP3   OH237776   0.666   5.496   0.006 -0.1356 -0.4802  0.4401
 5454TIP3    H137777   0.720   5.418  -0.006  0.0079 -0.4432  0.8305
 5454TIP3    H237778   0.670   5.541  -0.078  1.2299  0.0199  0.7539
 5455TIP3   OH237779   4.332   4.632   3.781 -0.1556 -0.1775  0.0236
 5455TIP3    H137780   4.322   4.674   3.696 -0.6449  0.5631  0.4324
 5455TIP3    H237781   4.257   4.664   3.832 -0.2882 -1.1952  0.4934
 5456TIP3   OH237782   6.231   1.021   0.882  0.2239  0.5179  0.4752
 5456TIP3    H137783   6.171   1.070   0.938  0.0907 -0.5300  1.2916
 5456TIP3    H237784   6.274   1.087   0.828 -1.1185  1.3570  0.4019
 5457TIP3   OH237785   1.692   5.421  15.439  0.1065 -0.1646 -0.0898
 5457TIP3    H137786   1.776   5.409  15.395  0.2771  2.2905 -0.5326
 5457TIP3    H237787   1.708   5.389  15.528  1.5328  0.3247 -0.1420
 5458TIP3   OH237788   1.766   2.214  17.291  0.3642 -0.1060  0.1104
 5458TIP3    H137789   1.701   2.176  17.231 -0.4971  0.9190  0.3718
 5458TIP3    H237790   1.808   2.138  17.331 -3.1640 -0.9884  2.6805
 5459TIP3   OH237791   1.338   4.940  15.704  0.0958 -0.0052 -0.4412
 5459TIP3    H137792   1.290   4.860  15.727 -0.5274  0.1325 -1.2196
 5459TIP3    H237793   1.272   4.998  15.668  0.0667  1.8580  2.3931
 5460TIP3   OH237794   2.356   5.180   1.392  0.2312  0.5818 -0.3816
 5460TIP3    H137795   2.403   5.259   1.417 -0.0398  0.3099  1.0737
 5460TIP3    H237796   2.409   5.108   1.427 -0.5677  0.2182  0.1077
 5461TIP3   OH237797   1.085   5.134   1.868  0.3072  0.8427  0.0602
 5461TIP3    H137798   1.168   5.157   1.912  0.3323  0.7918  0.0388
 5461TIP3    H237799   1.025   5.116   1.940  0.4595  0.3632  0.0679
 5462TIP3   OH237800   0.109   6.713   1.773 -0.2870  0.2552 -0.4455
 5462TIP3    H137801   0.071   6.776   1.712 -1.7435  0.1539  0.3076
 5462TIP3    H237802   0.140   6.641   1.718  4.9842  3.0515 -1.8365
 5463TIP3   OH237803   3.186   0.882  12.824  0.3654 -0.8452  0.1876
 5463TIP3    H137804   3.106   0.897  12.874 -1.2704 -2.4260 -1.8070
 5463TIP3    H237805   3.256   0.887  12.890 -1.4296 -0.4273  2.1796
 5464TIP3   OH237806   3.307   2.023   6.439  0.2756 -0.4057  0.2691
 5464TIP3    H137807   3.298   1.950   6.500  0.8423  0.3175  1.2397
 5464TIP3    H237808   3.217   2.047   6.418  0.0513 -0.2099  1.3849
 5465TIP3   OH237809   2.290   3.097  12.051 -0.1398  0.6385 -0.7741
 5465TIP3    H137810   2.223   3.144  12.001 -2.2088 -1.2690  0.0712
 5465TIP3    H237811   2.303   3.015  12.003 -1.0666 -0.5689  0.9608
 5466TIP3   OH237812   2.507   3.615   5.890 -0.3633 -0.1374 -0.1551
 5466TIP3    H137813   2.502   3.638   5.797  0.6024  0.0777 -0.1643
 5466TIP3    H237814   2.421   3.578   5.910 -0.7505  0.2657 -1.0105
 5467TIP3   OH237815   6.193   5.590  13.425  0.4668 -0.1790 -0.1004
 5467TIP3    H137816   6.262   5.538  13.383 -0.4195 -0.7193 -0.9021
 5467TIP3    H237817   6.133   5.612  13.355 -0.5509 -0.3026  0.7136
 5468TIP3   OH237818   2.568   0.262  15.901  0.5510 -0.2430  0.4786
 5468TIP3    H137819   2.476   0.234  15.900  0.0780  1.2040 -1.2164
 5468TIP3    H237820   2.618   0.180  15.897 -0.6739 -1.0204  0.6292
 5469TIP3   OH237821   4.912   2.815   3.440 -0.2709 -0.1605  0.6616
 5469TIP3    H137822   4.962   2.873   3.497 -0.5966  2.4520 -1.5132
 5469TIP3    H237823   4.827   2.856   3.431  0.3305  0.6936 -3.0453
 5470TIP3   OH237824   5.959   3.438   3.373 -0.1703 -0.1743  0.1493
 5470TIP3    H137825   5.875   3.473   3.344 -0.8153 -0.8103  1.1960
 5470TIP3    H237826   5.958   3.449   3.468  1.7183  1.4975  0.0445
 5471TIP3   OH237827   2.009   4.778   1.552 -0.4834 -0.1013  0.6304
 5471TIP3    H137828   2.050   4.862   1.572 -1.7751  0.4083  1.2996
 5471TIP3    H237829   2.020   4.727   1.632  2.1207 -1.3998 -0.4483
 5472TIP3   OH237830   3.282   0.943  11.577 -0.2938  0.7081 -0.2035
 5472TIP3    H137831   3.339   0.933  11.652 -1.2681  2.2916  0.8049
 5472TIP3    H237832   3.301   1.030  11.543  0.2235 -0.0223 -1.9146
 5473TIP3   OH237833   2.093   5.269   4.325 -0.4094 -0.4747  0.2509
 5473TIP3    H137834   2.141   5.268   4.407  2.7199  1.2242 -1.3694
 5473TIP3    H237835   2.153   5.229   4.262 -3.2054 -2.9615 -1.0823
 5474TIP3   OH237836   4.472   0.597  13.461 -0.3166  0.0905  0.3945
 5474TIP3    H137837   4.403   0.533  13.442 -0.3743  0.0734  0.6527
 5474TIP3    H237838   4.494   0.634  13.376 -0.6768  0.1265  0.3118
 5475TIP3   OH237839   1.377   0.406  15.607 -0.4721 -0.8895  0.1041
 5475TIP3    H137840   1.377   0.330  15.549  0.1598 -0.5508 -0.3476
 5475TIP3    H237841   1.435   0.382  15.679  1.0580 -0.2310 -0.8663
 5476TIP3   OH237842   1.002   1.409   3.197  0.3977 -1.0493  0.4151
 5476TIP3    H137843   1.057   1.463   3.254  0.2334 -1.4094  0.9230
 5476TIP3    H237844   1.037   1.320   3.207 -0.1569 -1.2490  0.5977
 5477TIP3   OH237845   1.011   5.591  11.589 -0.4633  0.9045 -0.0727
 5477TIP3    H137846   1.017   5.628  11.677 -1.4801  0.3984  0.2291
 5477TIP3    H237847   0.918   5.570  11.579  0.0946 -1.8216 -0.1075
 5478TIP3   OH237848   0.320   3.277   2.062  0.0101 -0.0372 -0.4646
 5478TIP3    H137849   0.238   3.325   2.051  0.0603  0.6641  1.7600
 5478TIP3    H237850   0.333   3.273   2.157  2.1455 -0.8319 -0.7390
 5479TIP3   OH237851   0.834   0.887   6.117  0.2188 -0.4602  0.2666
 5479TIP3    H137852   0.775   0.953   6.082 -1.0209 -2.2916 -1.2970
 5479TIP3    H237853   0.902   0.878   6.051  1.5241  0.6383  1.4137
 5480TIP3   OH237854   2.818   5.883  11.880 -0.4483  0.2173  0.1950
 5480TIP3    H137855   2.894   5.938  11.860 -0.1453 -0.6287 -1.1695
 5480TIP3    H237856   2.855   5.797  11.898 -1.0906 -0.4409 -1.4030
 5481TIP3   OH237857   1.008   0.987  15.842  0.2318 -0.5155 -0.2837
 5481TIP3    H137858   0.920   1.023  15.844 -1.3483 -3.8134 -1.5201
 5481TIP3    H237859   1.022   0.951  15.930  0.0794 -0.5188 -0.2615
 5482TIP3   OH237860   4.177   1.705   1.795  0.5783 -0.0369  0.0040
 5482TIP3    H137861   4.226   1.769   1.742  1.1964 -0.6232 -0.1465
 5482TIP3    H237862   4.086   1.728   1.781  0.8151  2.2245  1.7223
 5483TIP3   OH237863   6.365   6.429  11.453 -0.0131 -0.0257 -0.5828
 5483TIP3    H137864   6.346   6.378  11.532 -1.7652 -1.6677 -1.9540
 5483TIP3    H237865   6.367   6.364  11.383 -0.5491  1.5889 -2.1691
 5484TIP3   OH237866   3.377   0.676   2.828 -0.2217 -0.0249 -0.5280
 5484TIP3    H137867   3.320   0.752   2.817 -1.4938 -1.1127 -1.8997
 5484TIP3    H237868   3.415   0.663   2.742  2.8944  1.1689  0.5168
 5485TIP3   OH237869   0.906   0.114  10.726 -0.4100 -0.4496  0.5274
 5485TIP3    H137870   0.891   0.046  10.660 -1.0750 -0.3542  0.5793
 5485TIP3    H237871   0.826   0.114  10.779 -0.4972  0.5122  0.3989
 5486TIP3   OH237872   2.175   3.051  12.290  0.8011 -0.6409  0.2157
 5486TIP3    H137873   2.088   3.092  12.287  1.9898  2.1811  1.0476
 5486TIP3    H237874   2.205   3.053  12.199  0.6162 -0.2074  0.1620
 5487TIP3   OH237875   6.538   0.482   1.944  0.3281  0.8434  0.1598
 5487TIP3    H137876   6.531   0.400   1.992  3.4591  0.0652 -0.4963
 5487TIP3    H237877   6.489   0.466   1.863  0.3282 -0.1267  0.3342
 5488TIP3   OH237878   0.045   0.823   1.590  0.4293 -0.3950 -0.2778
 5488TIP3    H137879   0.068   0.773   1.512  0.8614 -0.2371 -0.2564
 5488TIP3    H237880   0.120   0.811   1.648  0.5737  0.3607 -0.3104
 5489TIP3   OH237881   2.444   2.406  17.046 -0.0635 -0.0805  0.2267
 5489TIP3    H137882   2.452   2.314  17.072 -2.0833 -0.1828  0.6464
 5489TIP3    H237883   2.465   2.455  17.126  0.4218 -0.1719  0.1621
 5490TIP3   OH237884   6.358   4.454  12.816  0.4706 -0.6083  0.2795
 5490TIP3    H137885   6.322   4.518  12.756  1.4851 -0.7283 -0.4930
 5490TIP3    H237886   6.299   4.378  12.809  1.7135 -1.4623 -2.2584
 5491TIP3   OH237887   3.600   2.688  11.549  0.1086 -0.0688 -0.0328
 5491TIP3    H137888   3.581   2.596  11.530 -0.8018 -0.0533  0.7564
 5491TIP3    H237889   3.635   2.722  11.466 -1.0805 -0.7142 -0.8352
 5492TIP3   OH237890   1.697   3.441   0.124 -0.0422  0.5498 -0.2874
 5492TIP3    H137891   1.617   3.430   0.175  0.9822  0.9105  1.4627
 5492TIP3    H237892   1.714   3.535   0.126  1.9005  0.2238  1.7846
 5493TIP3   OH237893   1.396   6.540   5.141  0.1281 -0.1793  0.5194
 5493TIP3    H137894   1.399   6.501   5.229  1.1201 -0.1073  0.5271
 5493TIP3    H237895   1.435   6.473   5.085  3.3233  1.3387  0.7553
 5494TIP3   OH237896   0.077   3.158   1.154  0.0692 -0.3341  0.4666
 5494TIP3    H137897   0.039   3.089   1.209 -0.3487 -0.1795  0.3764
 5494TIP3    H237898   0.027   3.237   1.177  0.2531 -0.1557  0.2541
 5495TIP3   OH237899   3.314   3.052   6.608  0.4221  0.0678 -0.1713
 5495TIP3    H137900   3.407   3.076   6.598  0.4819 -0.6131 -1.3522
 5495TIP3    H237901   3.311   2.958   6.588 -0.4692 -0.0029  0.2500
 5496TIP3   OH237902   5.497   2.177   0.937 -0.6591  0.3743  0.1528
 5496TIP3    H137903   5.420   2.192   0.991 -1.2978  1.3411 -0.9805
 5496TIP3    H237904   5.552   2.254   0.952 -0.2894  0.0874  0.3062
 5497TIP3   OH237905   2.099   0.476   2.697 -0.4713 -0.0221  0.3984
 5497TIP3    H137906   2.042   0.553   2.692  0.4350  0.6344 -0.0564
 5497TIP3    H237907   2.147   0.477   2.614  0.5654 -0.2759  0.9855
 5498TIP3   OH237908   1.099   2.886  16.116 -0.3522 -0.1175  0.0577
 5498TIP3    H137909   1.121   2.878  16.209 -1.3227 -0.7920  0.2416
 5498TIP3    H237910   1.004   2.873  16.112 -0.2794 -0.4270 -1.0657
 5499TIP3   OH237911   6.638   0.210   3.580 -0.3973 -0.1374  0.0812
 5499TIP3    H137912   6.547   0.226   3.556 -0.2078 -0.6372 -1.0526
 5499TIP3    H237913   6.689   0.240   3.504  0.4086  0.4714  0.8475
 5500TIP3   OH237914   0.298   5.226   4.299 -0.0408 -0.1463  0.3978
 5500TIP3    H137915   0.338   5.312   4.283  0.8658 -0.5832  0.2597
 5500TIP3    H237916   0.246   5.209   4.221  1.9862 -0.9317 -0.8609
 5501TIP3   OH237917   6.392   6.030  10.992  0.2630  0.2342 -0.0912
 5501TIP3    H137918   6.397   6.111  10.942 -0.4038  0.1482 -0.3162
 5501TIP3    H237919   6.480   6.016  11.026  0.8042  0.1764 -1.4417
 5502TIP3   OH237920   6.725   0.731   1.085 -0.6509 -0.3352  0.5672
 5502TIP3    H137921   6.721   0.801   1.020 -2.2589 -2.4219 -1.7609
 5502TIP3    H237922   6.759   0.773   1.164  1.3858  2.3637 -1.5563
 5503TIP3   OH237923   4.507   3.268  13.467  0.1034 -0.1034  0.3505
 5503TIP3    H137924   4.552   3.288  13.549  1.6349  1.4400 -0.8120
 5503TIP3    H237925   4.414   3.278  13.488  0.4559 -0.0077  1.9627
 5504TIP3   OH237926   3.870   4.933   0.930 -0.2578 -0.0846  0.3909
 5504TIP3    H137927   3.953   4.896   0.902 -0.4494  0.7094 -1.3531
 5504TIP3    H237928   3.882   5.028   0.924 -1.1091  0.0561  0.6767
 5505TIP3   OH237929   3.606   3.835  13.520 -0.0542 -0.0936 -0.3700
 5505TIP3    H137930   3.515   3.858  13.501  0.1819  0.0543 -1.3706
 5505TIP3    H237931   3.600   3.752  13.568 -0.6368 -1.3286 -2.4606
 5506TIP3   OH237932   4.955   5.611  14.209 -0.1932 -0.1295 -0.6138
 5506TIP3    H137933   5.010   5.658  14.271 -0.9320  1.3884 -1.0728
 5506TIP3    H237934   4.894   5.676  14.176 -1.0586 -1.3457 -1.5170
 5507TIP3   OH237935   2.583   5.638   4.091  0.1505  0.1421  0.2612
 5507TIP3    H137936   2.586   5.554   4.045 -3.2554  0.3160 -0.5291
 5507TIP3    H237937   2.580   5.615   4.184  1.5687 -0.4458  0.1886
 5508TIP3   OH237938   5.608   6.327  15.853  0.4608  0.2415  0.3612
 5508TIP3    H137939   5.592   6.379  15.774 -0.9011  0.1074  0.5169
 5508TIP3    H237940   5.529   6.275  15.864  1.1996 -0.7700  1.0517
 5509TIP3   OH237941   4.476   1.086   4.861  0.2963 -0.1895 -0.6480
 5509TIP3    H137942   4.455   1.179   4.863  1.4964  0.0822  1.0625
 5509TIP3    H237943   4.485   1.066   4.768 -2.4445  0.7792 -1.2160
 5510TIP3   OH237944   4.400   5.422  16.217 -0.9289 -0.6358 -0.9301
 5510TIP3    H137945   4.465   5.424  16.146  1.8119 -0.7903  1.3744
 5510TIP3    H237946   4.426   5.346  16.270 -1.0495  1.0494  1.7153
 5511TIP3   OH237947   2.821   5.514  16.820  0.5518 -0.5454  0.3493
 5511TIP3    H137948   2.833   5.436  16.766 -1.1126 -0.4387 -0.2453
 5511TIP3    H237949   2.726   5.527  16.821  0.6880  0.5317  1.7864
 5512TIP3   OH237950   2.296   4.339  17.043  0.5260 -0.4917  0.1078
 5512TIP3    H137951   2.283   4.303  17.131  2.0874  0.0783  0.6171
 5512TIP3    H237952   2.331   4.427  17.058 -0.3289  0.0818 -1.1028
 5513TIP3   OH237953   1.079   4.599   3.255 -0.0922 -0.5194  0.1545
 5513TIP3    H137954   1.102   4.513   3.289  1.5480 -0.6640 -1.1473
 5513TIP3    H237955   1.162   4.634   3.221 -1.0091  0.9340 -0.7063
 5514TIP3   OH237956   5.937   5.723  14.019 -0.1997  0.0588  0.3678
 5514TIP3    H137957   5.918   5.774  14.097  1.6833  2.5867 -0.6921
 5514TIP3    H237958   5.853   5.685  13.995 -1.7197  2.5009  1.4046
 5515TIP3   OH237959   1.816   1.758   2.628  0.0095  0.0707 -0.0584
 5515TIP3    H137960   1.897   1.770   2.678  0.0212 -2.1056  0.5372
 5515TIP3    H237961   1.749   1.799   2.682  0.4689  0.4244  0.2551
 5516TIP3   OH237962   4.070   0.344   0.285  0.3731  0.0225  0.0020
 5516TIP3    H137963   4.048   0.267   0.232 -0.0966  0.5168 -0.5255
 5516TIP3    H237964   4.028   0.417   0.241  0.6916  0.5709  0.5856
 5517TIP3   OH237965   5.992   0.938   3.762 -0.2581 -0.6167  0.6782
 5517TIP3    H137966   6.069   0.922   3.708  0.7497  1.0280  1.5472
 5517TIP3    H237967   6.004   0.883   3.839  0.5473  0.3078  1.2364
 5518TIP3   OH237968   3.907   3.109   3.496 -0.4794 -0.8263 -0.2975
 5518TIP3    H137969   3.958   3.038   3.457  0.4119 -0.1564 -0.3744
 5518TIP3    H237970   3.954   3.189   3.471 -1.1066 -0.2476  0.3311
 5519TIP3   OH237971   5.624   4.135  14.742 -0.2385 -0.1687  0.5899
 5519TIP3    H137972   5.666   4.199  14.685 -1.5271 -0.8168 -1.1762
 5519TIP3    H237973   5.590   4.187  14.815  0.7324  0.8097  0.3795
 5520TIP3   OH237974   0.310   5.953   5.937  0.3368  0.0683  0.2395
 5520TIP3    H137975   0.262   5.952   5.854 -1.6143  1.4075  1.2769
 5520TIP3    H237976   0.402   5.939   5.912 -0.2776 -0.2208 -2.0515
 5521TIP3   OH237977   2.995   0.326  16.838 -0.3078 -0.7188  0.2702
 5521TIP3    H137978   3.068   0.377  16.802  0.3635 -2.0003 -0.2538
 5521TIP3    H237979   3.028   0.236  16.840 -0.9399 -0.9715  2.4915
 5522TIP3   OH237980   2.649   0.830   3.326  0.1303 -0.5009  0.6418
 5522TIP3    H137981   2.581   0.798   3.385 -1.0231 -3.6095 -2.0393
 5522TIP3    H237982   2.610   0.907   3.284 -2.3776 -2.7370 -1.5255
 5523TIP3   OH237983   0.496   1.017   4.842 -0.2926  0.2151  0.2858
 5523TIP3    H137984   0.476   1.096   4.892  1.0330 -0.1460  1.4384
 5523TIP3    H237985   0.539   0.959   4.905  1.1389 -0.3866 -1.1889
 5524TIP3   OH237986   3.885   4.231   1.652  0.4507  0.1744 -0.0327
 5524TIP3    H137987   3.953   4.214   1.717 -0.2236  0.9626  0.9126
 5524TIP3    H237988   3.806   4.249   1.703 -0.2861  0.0891 -1.0889
 5525TIP3   OH237989   4.592   0.727   4.111 -0.1436  0.1820 -0.4601
 5525TIP3    H137990   4.650   0.662   4.149  0.6791  0.4512 -1.1954
 5525TIP3    H237991   4.651   0.787   4.064 -1.0673 -0.0905 -2.0678
 5526TIP3   OH237992   0.429   6.294  15.611  0.8202  0.3318  0.6994
 5526TIP3    H137993   0.522   6.277  15.602  0.6121 -0.1458 -0.8451
 5526TIP3    H237994   0.421   6.389  15.601  1.2927  0.5913  2.5422
 5527TIP3   OH237995   2.676   1.714   4.133  0.5718 -0.7797  0.2486
 5527TIP3    H137996   2.637   1.768   4.065  1.6881 -0.5233 -0.2103
 5527TIP3    H237997   2.718   1.776   4.192  2.1184 -1.1127 -0.4408
 5528TIP3   OH237998   5.876   4.367   4.781  0.1079  0.9666 -0.4789
 5528TIP3    H137999   5.812   4.345   4.848 -0.0698 -0.0094 -0.9614
 5528TIP3    H238000   5.960   4.338   4.816 -0.1250 -0.5418 -1.1142
 5529TIP3   OH238001   6.099   0.061   0.933  0.0454  0.3013  0.2094
 5529TIP3    H138002   6.100   0.142   0.882  0.6013 -0.1882 -0.5723
 5529TIP3    H238003   6.161   0.077   1.004 -1.0917  1.1615  1.0425
 5530TIP3   OH238004   1.287   6.288  17.106  0.2660  0.4209 -0.3610
 5530TIP3    H138005   1.254   6.206  17.068 -1.0601  0.3222  0.9100
 5530TIP3    H238006   1.323   6.336  17.031  0.0171 -0.8161 -1.3172
 5531TIP3   OH238007   6.397   1.164  16.799  0.0531 -0.7592 -0.3572
 5531TIP3    H138008   6.467   1.164  16.733 -0.3038 -0.3549 -0.7440
 5531TIP3    H238009   6.317   1.181  16.749 -0.3392 -1.3171  0.0699
 5532TIP3   OH238010   4.408   6.362  12.353 -0.8344 -0.3241 -0.2507
 5532TIP3    H138011   4.472   6.430  12.373 -0.7284 -0.3498 -0.5096
 5532TIP3    H238012   4.423   6.340  12.261 -1.2327 -0.3087 -0.3218
 5533TIP3   OH238013   0.535   0.786   3.766 -0.5392  0.0316  0.1560
 5533TIP3    H138014   0.472   0.798   3.837  1.0150  2.4651  1.2533
 5533TIP3    H238015   0.613   0.750   3.810 -0.5156 -1.2668 -0.8807
 5534TIP3   OH238016   1.411   5.624   0.437 -0.2841 -0.0286  0.6114
 5534TIP3    H138017   1.467   5.584   0.371 -2.1249 -2.3469  0.3330
 5534TIP3    H238018   1.343   5.669   0.388  0.6563  1.9087  0.9639
 5535TIP3   OH238019   2.644   5.742   1.706  0.4372 -0.2683  0.0801
 5535TIP3    H138020   2.731   5.726   1.670  0.9643 -0.8228  1.5255
 5535TIP3    H238021   2.634   5.677   1.775 -1.2842 -0.4491 -0.2945
 5536TIP3   OH238022   0.014   0.968   0.650 -0.3048  0.2756 -0.1902
 5536TIP3    H138023   0.045   1.005   0.567  1.3004  0.3235  0.4027
 5536TIP3    H238024  -0.074   0.937   0.630  0.8333 -1.7803 -2.5530
 5537TIP3   OH238025   1.446   4.680  11.117 -0.1878  0.0306  0.6114
 5537TIP3    H138026   1.485   4.688  11.031  0.6804 -1.9474  0.7805
 5537TIP3    H238027   1.363   4.635  11.102 -0.9353  1.3368  0.6359
 5538TIP3   OH238028   5.405   0.411  13.455  0.2381 -0.1774  0.1166
 5538TIP3    H138029   5.372   0.485  13.507 -0.1703 -0.7312  0.6566
 5538TIP3    H238030   5.422   0.449  13.368  0.1058  0.5656  0.4059
 5539TIP3   OH238031   3.756   4.473   0.410 -0.1156 -0.1531 -0.1665
 5539TIP3    H138032   3.755   4.379   0.396 -0.4614 -0.0516 -0.9214
 5539TIP3    H238033   3.695   4.507   0.344 -0.1717  0.5763  0.2464
 5540TIP3   OH238034   5.274   6.029   3.711  0.1914  0.4637  0.0597
 5540TIP3    H138035   5.221   5.950   3.719  0.8825  0.0691  0.8968
 5540TIP3    H238036   5.239   6.088   3.777 -0.2876  0.8481 -0.5268
 5541TIP3   OH238037   1.764   3.728   6.143  0.4340  0.2115  0.5217
 5541TIP3    H138038   1.744   3.803   6.086 -0.0868 -0.3134  0.0086
 5541TIP3    H238039   1.730   3.754   6.229 -1.2045 -0.0700 -0.0044
 5542TIP3   OH238040   5.994   0.980  17.264 -0.2462  1.0300 -0.1575
 5542TIP3    H138041   5.951   0.895  17.261  1.1822  0.2908 -0.0806
 5542TIP3    H238042   5.971   1.021  17.180  1.1722 -0.5064 -1.3745
 5543TIP3   OH238043   0.797   6.357   4.212  0.5037 -0.5658  0.2882
 5543TIP3    H138044   0.791   6.329   4.304  1.6567  0.0254  0.5593
 5543TIP3    H238045   0.799   6.452   4.217 -1.3229 -0.4421 -0.4972
 5544TIP3   OH238046   5.813   3.511   3.014 -0.3633 -0.2601 -0.1881
 5544TIP3    H138047   5.737   3.515   3.071 -0.4509 -1.7257 -0.1574
 5544TIP3    H238048   5.778   3.491   2.928 -0.0827 -0.0300 -0.3578
 5545TIP3   OH238049   3.812   5.261  14.082 -0.8617 -0.6745  0.0859
 5545TIP3    H138050   3.813   5.275  14.177  0.1447 -0.6127  0.0771
 5545TIP3    H238051   3.874   5.188  14.068 -3.7374 -3.2841 -0.1634
 5546TIP3   OH238052   1.876   6.049   0.858 -0.0513 -0.2164  0.2906
 5546TIP3    H138053   1.884   6.144   0.874  1.3661 -0.0247 -1.3114
 5546TIP3    H238054   1.922   6.009   0.932 -1.0782  0.3055  1.2417
 5547TIP3   OH238055   1.587   6.364   1.945 -0.0462  0.6064  0.1418
 5547TIP3    H138056   1.610   6.286   1.995  0.6060  0.8736  0.2629
 5547TIP3    H238057   1.663   6.380   1.889  0.0900  1.5112  0.5662
 5548TIP3   OH238058   0.252   2.274   0.259 -0.2818  0.2936 -0.4815
 5548TIP3    H138059   0.311   2.241   0.191 -2.1000  0.0765 -2.0032
 5548TIP3    H238060   0.238   2.366   0.236 -1.9587 -0.1137 -1.2447
 5549TIP3   OH238061   2.056   1.688   3.224  0.4101 -0.3119  0.3096
 5549TIP3    H138062   1.986   1.752   3.238  0.1979 -0.0878 -1.4596
 5549TIP3    H238063   2.128   1.740   3.188  1.2223 -0.6635  1.3989
 5550TIP3   OH238064   6.300   5.004   2.584 -0.0664  0.7165 -0.2847
 5550TIP3    H138065   6.283   4.913   2.611 -0.2130  1.1224  1.0555
 5550TIP3    H238066   6.270   5.007   2.493  1.5835 -1.0416 -0.9576
 5551TIP3   OH238067   3.975   4.907  11.352 -1.3376  0.3774  0.5143
 5551TIP3    H138068   4.060   4.943  11.374 -1.1347  0.4910 -0.3970
 5551TIP3    H238069   3.976   4.899  11.256 -1.8945 -0.7557  0.5813
 5552TIP3   OH238070   0.232   6.507   2.350  0.1050 -0.0717  0.1286
 5552TIP3    H138071   0.187   6.585   2.382 -0.5941  0.0195 -1.0311
 5552TIP3    H238072   0.325   6.529   2.353 -0.1388  2.1341 -3.3181
 5553TIP3   OH238073   4.946   6.233  14.402  0.0835  0.3972 -0.5626
 5553TIP3    H138074   4.867   6.190  14.370  0.7480 -0.9627 -0.4366
 5553TIP3    H238075   4.944   6.320  14.361 -1.5490  0.4531 -0.4251
 5554TIP3   OH238076   0.539   0.827   1.568  0.3398 -0.0770 -0.2184
 5554TIP3    H138077   0.516   0.771   1.493  1.5947  0.1371 -0.8064
 5554TIP3    H238078   0.602   0.774   1.618 -0.5659 -0.2521  0.7550
 5555TIP3   OH238079   0.580   4.472  15.032  0.6412  0.0254 -0.0804
 5555TIP3    H138080   0.672   4.454  15.054  0.1969 -2.3779  0.0312
 5555TIP3    H238081   0.575   4.455  14.938 -0.2096 -2.5882  0.3654
 5556TIP3   OH238082   2.409   2.177   4.778 -0.3673 -0.5381  0.3558
 5556TIP3    H138083   2.411   2.200   4.685  0.0466 -1.8757  0.0102
 5556TIP3    H238084   2.351   2.100   4.783  0.0872 -0.8454  1.1094
 5557TIP3   OH238085   1.085   2.030  12.015 -0.5190 -0.2600  0.0551
 5557TIP3    H138086   1.047   1.954  12.060 -1.1538  0.5541  0.9174
 5557TIP3    H238087   1.010   2.079  11.982 -0.1002 -0.1084 -0.6835
 5558TIP3   OH238088   6.302   0.046  16.039 -0.1282  0.1225  0.3200
 5558TIP3    H138089   6.249   0.088  15.971  0.5694 -1.9765 -1.6345
 5558TIP3    H238090   6.345  -0.026  15.994 -0.8122 -2.3624  3.3420
 5559TIP3   OH238091   0.145   6.678   0.922  0.4311 -0.4126 -0.4151
 5559TIP3    H138092   0.201   6.732   0.978 -1.0307  0.5242  0.2235
 5559TIP3    H238093   0.068   6.732   0.907 -1.0676 -2.2626  0.1521
 5560TIP3   OH238094   0.940   5.352  10.923  0.2516 -0.0205  0.2540
 5560TIP3    H138095   0.923   5.437  10.883 -0.8634 -0.0426  0.6367
 5560TIP3    H238096   1.013   5.315  10.872 -1.8292 -0.5713 -2.5900
 5561TIP3   OH238097   6.335   1.378   5.630 -0.0233 -0.4022 -0.3255
 5561TIP3    H138098   6.288   1.297   5.648  0.1716 -0.7782 -1.3972
 5561TIP3    H238099   6.415   1.372   5.683  0.9728 -1.8814 -1.8855
 5562TIP3   OH238100   0.530   3.074   3.983  0.2030 -0.2208  0.0659
 5562TIP3    H138101   0.585   3.014   4.033 -0.7366  0.3458  1.8463
 5562TIP3    H238102   0.454   3.022   3.958  0.7484 -0.5518 -1.0021
 5563TIP3   OH238103   6.149   1.716  11.968  0.1486 -0.6245 -0.1239
 5563TIP3    H138104   6.243   1.711  11.950  0.0501  0.1202 -0.9106
 5563TIP3    H238105   6.107   1.677  11.891 -0.2060 -0.2462 -0.1272
 5564TIP3   OH238106   5.386   4.293  14.203  0.6381  0.2530 -0.2726
 5564TIP3    H138107   5.418   4.209  14.237 -0.1382  0.0668  0.0132
 5564TIP3    H238108   5.378   4.349  14.280  1.5912  0.7504 -0.5173
 5565TIP3   OH238109   6.758   3.078   4.665  0.4136 -0.3098  0.2599
 5565TIP3    H138110   6.669   3.047   4.649  0.5092 -0.1629 -0.6328
 5565TIP3    H238111   6.793   3.019   4.731 -0.0756 -0.8733  0.0273
 5566TIP3   OH238112   5.569   6.117  17.340 -0.1552  0.2877  0.1399
 5566TIP3    H138113   5.546   6.033  17.299 -0.9027  1.0175 -1.0241
 5566TIP3    H238114   5.490   6.171  17.329  0.2467  1.0801  1.0299
 5567TIP3   OH238115   3.077   0.672  12.671  0.2487 -0.5023  0.1041
 5567TIP3    H138116   2.985   0.689  12.692  0.0912 -0.7233 -0.4055
 5567TIP3    H238117   3.126   0.726  12.734 -0.2215 -0.5992  0.5618
 5568TIP3   OH238118   5.245   2.847  15.692  0.2335  0.0884 -0.3741
 5568TIP3    H138119   5.329   2.821  15.731  0.0186 -0.1700 -0.0787
 5568TIP3    H238120   5.196   2.765  15.683 -0.5652  0.4081  0.8519
 5569TIP3   OH238121   1.050   2.421   1.529 -0.2441 -0.9166 -0.2612
 5569TIP3    H138122   1.115   2.378   1.584  1.1783  0.4400 -0.7784
 5569TIP3    H238123   1.080   2.404   1.439 -0.6248 -0.3321 -0.5059
 5570TIP3   OH238124   5.705   5.876   0.091  0.2007 -0.1076  0.4697
 5570TIP3    H138125   5.691   5.956   0.042  1.4401 -0.1384  0.0191
 5570TIP3    H238126   5.641   5.879   0.162 -0.1450  0.9949  0.1234
 5571TIP3   OH238127   1.180   5.243  12.974  0.0864 -0.0797 -0.0673
 5571TIP3    H138128   1.121   5.285  12.911 -1.4080  0.6093  1.7172
 5571TIP3    H238129   1.211   5.314  13.029  1.4293 -0.6625 -0.0248
 5572TIP3   OH238130   2.288   0.727  15.798 -0.1983 -0.2065  0.0267
 5572TIP3    H138131   2.313   0.658  15.860 -0.6687  0.0487  0.5024
 5572TIP3    H238132   2.329   0.806  15.833  0.0735 -0.1821 -0.3433
 5573TIP3   OH238133   6.409   1.221   1.581 -0.5335  0.2177 -0.1918
 5573TIP3    H138134   6.380   1.236   1.671 -0.0109  0.2512 -0.0268
 5573TIP3    H238135   6.337   1.172   1.541 -1.7565  2.0587 -0.4029
 5574TIP3   OH238136   1.753   6.457  12.499  0.4627  0.1356 -0.1156
 5574TIP3    H138137   1.810   6.471  12.575  0.7021 -1.3134 -0.0000
 5574TIP3    H238138   1.709   6.541  12.487  1.0538  0.6513  1.0984
 5575TIP3   OH238139   6.176   5.528  14.449  0.6462 -0.1794  1.1535
 5575TIP3    H138140   6.190   5.447  14.498 -0.6245 -0.1209  1.6609
 5575TIP3    H238141   6.093   5.514  14.404  1.0415  0.3717  0.2416
 5576TIP3   OH238142   6.597   5.740   3.133  0.4988 -0.1353 -0.2856
 5576TIP3    H138143   6.550   5.813   3.093 -2.9716 -1.4858  0.9572
 5576TIP3    H238144   6.565   5.663   3.086  1.3780 -1.1763  0.7622
 5577TIP3   OH238145   3.513   5.284   5.059 -0.3143  0.0030 -0.4068
 5577TIP3    H138146   3.471   5.363   5.026  0.9255  0.2554 -1.4357
 5577TIP3    H238147   3.453   5.213   5.036 -0.4529  0.4175 -1.3587
 5578TIP3   OH238148   0.877   0.169   3.562  0.1246  0.1412  0.3159
 5578TIP3    H138149   0.831   0.246   3.595 -0.5345 -0.9867  2.1512
 5578TIP3    H238150   0.817   0.096   3.578  2.5297 -1.4487  3.0552
 5579TIP3   OH238151   5.177   3.509   5.180 -0.3411 -0.5144  0.6236
 5579TIP3    H138152   5.095   3.462   5.167 -0.5225 -0.5438  1.7264
 5579TIP3    H238153   5.162   3.560   5.260  1.2559 -1.7538  1.7722
 5580TIP3   OH238154   3.997   3.879  15.941 -0.6841  0.7498 -0.5990
 5580TIP3    H138155   4.016   3.819  15.869 -0.2006 -0.2477  0.3326
 5580TIP3    H238156   3.902   3.876  15.950 -0.8733  1.7547 -1.9023
 5581TIP3   OH238157   3.996   1.715   4.615  0.2306  0.0423  0.3091
 5581TIP3    H138158   3.943   1.745   4.541 -0.3077  1.4645  1.2309
 5581TIP3    H238159   4.029   1.630   4.587  0.2037  0.6128 -1.6462
 5582TIP3   OH238160   1.063   3.025   4.221 -0.5104 -0.4507  0.7320
 5582TIP3    H138161   0.977   3.035   4.263 -0.5198 -0.8243  0.8122
 5582TIP3    H238162   1.069   3.098   4.160 -0.2359  0.4497  1.8202
 5583TIP3   OH238163   2.909   4.334  17.384 -0.2402  1.0874 -0.3745
 5583TIP3    H138164   2.978   4.347  17.449 -0.4423  1.2016 -0.1806
 5583TIP3    H238165   2.953   4.292  17.310  0.0805  1.3542 -0.3388
 5584TIP3   OH238166   0.200   1.140   2.005 -0.3517 -0.3429  0.7520
 5584TIP3    H138167   0.266   1.209   2.001  0.2422 -0.8854  0.9097
 5584TIP3    H238168   0.159   1.140   1.919  1.9680 -2.0126 -0.4653
 5585TIP3   OH238169   2.329   6.007  14.270 -0.3814  0.3308  0.4410
 5585TIP3    H138170   2.393   5.936  14.265 -1.4779 -0.7253  0.9103
 5585TIP3    H238171   2.305   6.024  14.179  0.1210  0.3256  0.3050
 5586TIP3   OH238172   0.865   4.381   5.969 -0.4602  0.5047 -0.7618
 5586TIP3    H138173   0.844   4.323   5.895  1.9211  0.0260 -1.1213
 5586TIP3    H238174   0.842   4.329   6.046  0.5639 -0.5183 -1.1110
 5587TIP3   OH238175   3.550   0.694  12.111  0.0615 -0.0311  0.5146
 5587TIP3    H138176   3.514   0.622  12.060  0.6775 -0.7540  1.0854
 5587TIP3    H238177   3.639   0.667  12.133  0.1700  0.7283  1.0689
 5588TIP3   OH238178   1.150   5.498   1.655  0.5656  0.4286 -0.2662
 5588TIP3    H138179   1.189   5.423   1.610  0.8144 -0.1909  0.9369
 5588TIP3    H238180   1.210   5.570   1.637 -0.3479  0.7262 -2.5441
 5589TIP3   OH238181   4.014   6.108   4.307 -0.0767 -0.1572  0.3535
 5589TIP3    H138182   3.957   6.076   4.236  0.5023 -0.9286  0.2264
 5589TIP3    H238183   3.979   6.066   4.385  0.8420 -1.3427  0.1498
 5590TIP3   OH238184   5.307   6.650   5.014  0.2968  0.5817  0.1045
 5590TIP3    H138185   5.316   6.577   5.075  3.1126 -0.9997 -1.9274
 5590TIP3    H238186   5.241   6.621   4.951  1.4249 -0.3179 -0.7112
 5591TIP3   OH238187   2.826   5.125  15.002  0.0392 -0.0702 -0.1120
 5591TIP3    H138188   2.767   5.199  15.017 -0.0999 -0.3368  0.7017
 5591TIP3    H238189   2.842   5.127  14.908 -1.7849 -0.3596 -0.4781
 5592TIP3   OH238190   3.081   2.442   3.261 -0.1661  0.9107 -0.2014
 5592TIP3    H138191   3.159   2.437   3.205 -0.8784 -1.3908 -1.1226
 5592TIP3    H238192   3.009   2.457   3.200 -0.5991  1.7921  0.5113
 5593TIP3   OH238193   5.438   5.158  11.812 -0.4568  0.7698 -0.5422
 5593TIP3    H138194   5.367   5.094  11.818 -0.0763  0.3611 -0.3912
 5593TIP3    H238195   5.399   5.239  11.846 -0.8738  0.5728 -0.5367
 5594TIP3   OH238196   6.725   4.221  16.272 -0.0107 -0.2232  0.1827
 5594TIP3    H138197   6.641   4.182  16.246 -0.6090 -0.2137  1.9579
 5594TIP3    H238198   6.774   4.148  16.311  0.0959  0.1402  0.7344
 5595TIP3   OH238199   0.534   1.181   5.068  0.4184 -0.4013 -0.0604
 5595TIP3    H138200   0.513   1.274   5.076 -1.3339 -0.7917  0.3767
 5595TIP3    H238201   0.549   1.152   5.158 -0.3063 -0.7815 -0.0478
 5596TIP3   OH238202   5.072   4.200   6.747 -0.5393  1.0338  0.0238
 5596TIP3    H138203   5.044   4.117   6.785 -1.2601  1.0057 -0.5407
 5596TIP3    H238204   4.993   4.254   6.745  0.6487  3.4240  4.4083
 5597TIP3   OH238205   3.914   0.884   5.079 -0.3126 -0.2772  0.0737
 5597TIP3    H138206   3.928   0.978   5.090 -0.1772 -0.2897  0.0087
 5597TIP3    H238207   3.998   0.851   5.045 -1.0091 -0.0835 -1.9866
 5598TIP3   OH238208   1.258   6.045   4.288 -0.2524  0.0050  0.0299
 5598TIP3    H138209   1.316   6.120   4.272 -0.0295 -0.6301 -2.7210
 5598TIP3    H238210   1.183   6.062   4.231 -0.8442 -1.1999  0.4263
 5599TIP3   OH238211   5.335   5.730   0.315  0.6673  0.2174 -0.4555
 5599TIP3    H138212   5.316   5.721   0.221  2.5694  0.2908 -0.8911
 5599TIP3    H238213   5.315   5.822   0.334 -0.3964  0.0277 -0.6073
 5600TIP3   OH238214   2.552   6.238  16.829 -0.2961  0.0673  0.1542
 5600TIP3    H138215   2.518   6.257  16.917  0.5328  2.0969  0.0931
 5600TIP3    H238216   2.646   6.225  16.842 -0.3809 -1.0986 -0.2682
 5601TIP3   OH238217   0.312   4.992   2.064  0.2936 -0.2751 -0.4203
 5601TIP3    H138218   0.372   5.066   2.069 -1.3009  1.0318  0.5203
 5601TIP3    H238219   0.341   4.932   2.133  1.5079 -0.4818 -1.0886
 5602TIP3   OH238220   1.098   6.178  14.766 -0.1141 -0.1497  0.4269
 5602TIP3    H138221   1.144   6.097  14.789 -0.0599  0.2198  1.7109
 5602TIP3    H238222   1.166   6.236  14.733  0.1605 -0.0367  1.1610
 5603TIP3   OH238223   0.855   4.382  15.025  0.4050 -0.2528  0.0652
 5603TIP3    H138224   0.844   4.376  14.930 -1.7646 -2.7828  0.3770
 5603TIP3    H238225   0.946   4.409  15.037  0.9117 -0.4538 -2.7108
 5604TIP3   OH238226   3.169   3.486   2.777 -0.2209  0.2702 -0.5375
 5604TIP3    H138227   3.130   3.419   2.834 -2.8305 -0.0982 -2.5320
 5604TIP3    H238228   3.172   3.565   2.830 -0.9644 -0.4515  0.6175
 5605TIP3   OH238229   1.849   6.542  16.479 -0.6231  0.1548  0.6134
 5605TIP3    H138230   1.936   6.569  16.450 -0.5994  0.0877  0.6229
 5605TIP3    H238231   1.804   6.514  16.398 -0.8597  0.8052  0.5168
 5606TIP3   OH238232   2.321   5.744  12.840  0.4551  0.3151 -1.0218
 5606TIP3    H138233   2.287   5.804  12.774  1.0069  0.8750 -0.7977
 5606TIP3    H238234   2.400   5.786  12.874  0.1041  0.1180  0.1017
 5607TIP3   OH238235   1.244   1.374  11.261  0.5178 -0.4106  0.0542
 5607TIP3    H138236   1.312   1.358  11.195  1.6497  2.0034  0.5273
 5607TIP3    H238237   1.208   1.459  11.239 -0.2123 -0.2750  1.6296
 5608TIP3   OH238238   1.748   0.665   2.346  0.6939 -0.1652  0.7712
 5608TIP3    H138239   1.674   0.674   2.407  0.0624 -0.1987  0.0326
 5608TIP3    H238240   1.779   0.576   2.358 -1.7641 -1.4858 -1.4645
 5609TIP3   OH238241   2.638   4.049  12.206 -0.4832 -0.0733 -0.6595
 5609TIP3    H138242   2.554   4.014  12.175 -0.2458  0.5595 -2.0747
 5609TIP3    H238243   2.669   4.105  12.135  0.6566  0.5212  0.2672
 5610TIP3   OH238244   1.213   4.355  11.249 -0.5670 -0.1005  0.6100
 5610TIP3    H138245   1.240   4.413  11.178 -0.2948  1.2972  1.7899
 5610TIP3    H238246   1.260   4.273  11.233 -0.6804  0.1029 -0.9086
 5611TIP3   OH238247   5.665   1.406   0.676 -0.9273  0.3900 -1.0876
 5611TIP3    H138248   5.741   1.369   0.630 -0.9090  0.4027 -1.0675
 5611TIP3    H238249   5.700   1.481   0.724 -0.8141 -0.0081 -0.5341
 5612TIP3   OH238250   2.457   3.667  13.814 -0.4054 -0.0814  0.0041
 5612TIP3    H138251   2.376   3.708  13.845  0.2347  1.0937  0.1775
 5612TIP3    H238252   2.487   3.615  13.889  0.4286  1.6780  0.9492
 5613TIP3   OH238253   1.627   0.061  10.981  1.0324  0.1801  0.0087
 5613TIP3    H138254   1.667   0.079  11.066 -2.2954  2.3463  1.2987
 5613TIP3    H238255   1.579  -0.021  10.994 -0.0736  0.8858  0.5185
 5614TIP3   OH238256   4.235   5.633  11.571 -0.0011 -0.3668  0.2066
 5614TIP3    H138257   4.247   5.714  11.522  0.9316 -0.0353  0.9414
 5614TIP3    H238258   4.321   5.615  11.608 -0.1743 -1.7727 -0.0443
 5615TIP3   OH238259   1.854   6.295   6.307  0.2638 -0.6913 -0.0119
 5615TIP3    H138260   1.919   6.226   6.322 -0.1689 -1.5455 -1.7345
 5615TIP3    H238261   1.770   6.254   6.323  0.0413 -0.3164 -0.1906
 5616TIP3   OH238262   3.788   2.778   3.025 -0.5624 -0.3254  0.6091
 5616TIP3    H138263   3.817   2.868   3.011 -0.2104 -0.8253 -2.9092
 5616TIP3    H238264   3.846   2.743   3.092  1.1948  1.2718 -0.0079
 5617TIP3   OH238265   6.737   3.868  15.347 -0.1219  0.2738  0.0116
 5617TIP3    H138266   6.761   3.870  15.254 -1.8274  0.1117 -0.4723
 5617TIP3    H238267   6.786   3.795  15.383  2.1151  1.5367 -0.2614
 5618TIP3   OH238268   4.344   0.404   0.225  0.1942 -1.2597  0.0944
 5618TIP3    H138269   4.258   0.408   0.268 -1.0019  0.9114 -2.2135
 5618TIP3    H238270   4.331   0.346   0.150 -0.3692  1.4764 -2.1314
 5619TIP3   OH238271   3.569   2.843  10.814 -0.4736  0.2841 -0.9223
 5619TIP3    H138272   3.481   2.867  10.787 -0.0995  1.9462 -0.7569
 5619TIP3    H238273   3.620   2.924  10.806  0.1566  0.4142  2.6966
 5620TIP3   OH238274   0.063   3.332  15.471 -0.4419 -0.3729 -0.3775
 5620TIP3    H138275   0.096   3.277  15.543 -0.0670 -0.2213 -0.4286
 5620TIP3    H238276   0.142   3.360  15.425 -0.5069  1.4139  0.5187
 5621TIP3   OH238277   4.870   3.602   0.561  0.0487 -0.6396 -0.1358
 5621TIP3    H138278   4.909   3.606   0.473 -0.9666 -2.2674 -0.6990
 5621TIP3    H238279   4.945   3.591   0.620  0.7984  1.0815 -0.7022
 5622TIP3   OH238280   0.921   0.180   2.714 -0.2356 -0.2367 -0.3454
 5622TIP3    H138281   0.861   0.167   2.787 -0.1830 -0.7673 -0.3968
 5622TIP3    H238282   0.873   0.237   2.654 -0.4009 -0.0581 -0.0452
 5623TIP3   OH238283   3.045   5.907  16.899 -0.1370  0.4333 -0.2587
 5623TIP3    H138284   3.067   5.890  16.990 -1.2225  1.4876  0.2334
 5623TIP3    H238285   2.986   5.835  16.875  0.3900 -0.0125 -0.2333
 5624TIP3   OH238286   5.784   5.179  16.111  0.3159  0.1328  0.5398
 5624TIP3    H138287   5.874   5.145  16.106  0.3299  0.3129 -0.8762
 5624TIP3    H238288   5.795   5.269  16.141  0.9378  1.1775 -2.4799
 5625TIP3   OH238289   0.829   2.066   4.742 -0.2620 -0.2560 -0.3761
 5625TIP3    H138290   0.917   2.081   4.707 -0.2201  0.5695  0.0725
 5625TIP3    H238291   0.770   2.089   4.670 -0.2090  2.2749  0.3015
 5626TIP3   OH238292   5.064   6.289  17.154  0.1913  0.2282  0.0388
 5626TIP3    H138293   5.048   6.253  17.067 -2.5075 -1.1293  0.9634
 5626TIP3    H238294   4.978   6.320  17.183  0.4087 -1.6905  3.1715
 5627TIP3   OH238295   0.952   5.180  14.370  0.2586 -0.5860 -0.1968
 5627TIP3    H138296   0.951   5.094  14.412 -1.0694  0.6885  2.6680
 5627TIP3    H238297   1.006   5.234  14.427 -0.2718  0.8808 -1.0230
 5628TIP3   OH238298   5.734   5.656   4.806  0.5060 -0.0908  0.2234
 5628TIP3    H138299   5.732   5.561   4.805 -1.2787 -0.1470  2.3639
 5628TIP3    H238300   5.704   5.680   4.893 -1.9518  2.4917 -1.1813
 5629TIP3   OH238301   5.331   4.396  13.943 -0.3446 -0.6637  0.3621
 5629TIP3    H138302   5.416   4.419  13.905  0.3534  0.4910  2.4209
 5629TIP3    H238303   5.350   4.377  14.035 -2.3929  0.4782  1.1098
 5630TIP3   OH238304   5.028   6.110   2.470  0.0434  0.4611  0.5542
 5630TIP3    H138305   5.070   6.054   2.535  0.4314  0.8211  0.6184
 5630TIP3    H238306   5.021   6.196   2.513 -0.2496  0.5470  0.3402
 5631TIP3   OH238307   4.965   2.500  13.943  0.2322  0.5722 -0.1709
 5631TIP3    H138308   4.897   2.435  13.961  1.2909 -0.4639  0.2137
 5631TIP3    H238309   5.010   2.467  13.866 -0.7756  2.1633 -1.5191
 5632TIP3   OH238310   4.048   2.742   2.609 -0.0129 -0.3634  0.2194
 5632TIP3    H138311   3.978   2.701   2.659 -0.6755 -1.7187 -1.6859
 5632TIP3    H238312   4.032   2.715   2.518  2.3419  0.2072 -0.4473
 5633TIP3   OH238313   2.803   5.331   0.961  0.5251 -0.3095  0.1840
 5633TIP3    H138314   2.844   5.329   1.047 -0.6366  0.2505  0.7741
 5633TIP3    H238315   2.775   5.422   0.949 -1.1724 -0.8007  0.1441
 5634TIP3   OH238316   4.867   6.658  15.693  0.2284  0.0966 -0.4103
 5634TIP3    H138317   4.835   6.574  15.662 -0.3294 -0.2834  1.1262
 5634TIP3    H238318   4.896   6.642  15.783  0.0657  1.5517 -0.0639
 5635TIP3   OH238319   0.361   3.707   4.623  0.0264 -0.6379 -0.4260
 5635TIP3    H138320   0.389   3.617   4.640  0.1134 -1.0004 -2.3221
 5635TIP3    H238321   0.301   3.727   4.695  2.3777 -1.0485  1.8318
 5636TIP3   OH238322   5.266   6.183  17.292 -0.1062  0.6898  0.1841
 5636TIP3    H138323   5.216   6.245  17.238  0.5352  0.7204 -0.3988
 5636TIP3    H238324   5.257   6.099  17.246 -0.8073  0.3831  0.8660
 5637TIP3   OH238325   6.757   2.882  13.852  0.1448 -0.0598  0.3014
 5637TIP3    H138326   6.751   2.867  13.758  0.1511 -0.0568  0.3005
 5637TIP3    H238327   6.850   2.899  13.868  0.2746 -0.8366  0.4206
 5638TIP3   OH238328   6.721   6.172   5.536  0.3313  0.2719  0.1877
 5638TIP3    H138329   6.632   6.149   5.563  0.8660  0.3879  2.2712
 5638TIP3    H238330   6.776   6.144   5.609  1.6950  2.6230  0.1756
 5639TIP3   OH238331   0.351   5.598  11.992  0.1788  0.1826 -0.9034
 5639TIP3    H138332   0.318   5.533  11.931  0.1329 -1.4000  0.7278
 5639TIP3    H238333   0.372   5.549  12.071  1.9095  1.8782 -0.2203
 5640TIP3   OH238334   3.001   1.914  14.756  0.1404  0.4510  0.1925
 5640TIP3    H138335   3.037   2.000  14.776  0.7024  0.0830  0.8327
 5640TIP3    H238336   2.940   1.929  14.684 -0.8954  1.6153  1.2694
 5641TIP3   OH238337   0.221   5.359  12.410  0.5436  0.8835  0.6091
 5641TIP3    H138338   0.245   5.291  12.472 -1.6306  0.1129  0.6587
 5641TIP3    H238339   0.135   5.389  12.437 -0.0312  1.2500 -1.4165
 5642TIP3   OH238340   4.769   5.827  11.103 -0.4952  0.6008 -0.1971
 5642TIP3    H138341   4.748   5.915  11.071  1.3846  1.0088 -0.3814
 5642TIP3    H238342   4.859   5.833  11.135 -0.1013 -1.4145 -0.7744
 5643TIP3   OH238343   2.045   2.571  13.426 -0.8578  0.3792 -0.1509
 5643TIP3    H138344   2.003   2.648  13.388 -1.0115  0.4257  0.1073
 5643TIP3    H238345   2.112   2.607  13.485 -0.4338  0.3044 -0.5847
 5644TIP3   OH238346   0.347   2.063  13.809 -0.3398  0.0832  0.5476
 5644TIP3    H138347   0.339   2.141  13.864 -0.0930 -0.4653  1.3676
 5644TIP3    H238348   0.375   2.098  13.724 -1.1641  0.9753  0.6263
 5645TIP3   OH238349   5.455   2.935  16.511 -0.0994 -0.2779 -0.1835
 5645TIP3    H138350   5.427   2.987  16.436 -0.8081 -0.8830 -0.3490
 5645TIP3    H238351   5.380   2.935  16.570  0.1885 -0.4248  0.1879
 5646TIP3   OH238352   2.328   3.268  16.738  0.4103  0.3171 -0.3934
 5646TIP3    H138353   2.322   3.350  16.787  1.1745  0.8355 -1.1225
 5646TIP3    H238354   2.289   3.202  16.795 -1.9442  1.5008 -0.5388
 5647TIP3   OH238355   5.008   3.975  16.629 -0.1886 -0.6904  0.0200
 5647TIP3    H138356   5.016   3.901  16.569 -1.7224 -0.7803 -0.1111
 5647TIP3    H238357   4.922   3.964  16.669  0.5794 -0.3302  1.8615
 5648TIP3   OH238358   0.303   5.439  13.312 -0.1591  0.0940  0.6764
 5648TIP3    H138359   0.396   5.421  13.323  0.1482  1.3747  0.2921
 5648TIP3    H238360   0.266   5.355  13.283  1.2680  0.0936 -1.4092
 5649TIP3   OH238361   2.991   2.287  12.179 -0.2990  0.0241 -0.2215
 5649TIP3    H138362   2.941   2.301  12.098  0.1180  0.5748 -0.3942
 5649TIP3    H238363   3.071   2.339  12.167 -0.9304  1.4086  1.1814
 5650TIP3   OH238364   1.898   0.113   4.387 -0.3056  0.3705 -0.2957
 5650TIP3    H138365   1.944   0.057   4.324  0.1721  0.2273  0.1721
 5650TIP3    H238366   1.835   0.055   4.429  0.2965  0.1211  0.3010
 5651TIP3   OH238367   5.659   1.164  12.914 -0.1147  0.6924 -0.0281
 5651TIP3    H138368   5.706   1.216  12.850  0.1282 -0.4404 -0.8084
 5651TIP3    H238369   5.727   1.117  12.962 -0.3483  0.6928  0.3090
 5652TIP3   OH238370   1.479   5.736  14.803 -0.2532 -0.3467  0.0271
 5652TIP3    H138371   1.428   5.812  14.776 -0.3513  0.6356  2.7353
 5652TIP3    H238372   1.495   5.688  14.721  0.8184  3.1392 -2.0539
 5653TIP3   OH238373   0.752   6.168   0.639  0.6428 -0.2543 -0.0120
 5653TIP3    H138374   0.837   6.206   0.616  1.7839 -1.4674  1.8923
 5653TIP3    H238375   0.751   6.083   0.594  1.6538 -1.3905  1.9688
 5654TIP3   OH238376   1.556   5.377   4.624 -0.4055  0.4232  0.0781
 5654TIP3    H138377   1.506   5.306   4.664  1.3175  0.1391  1.9114
 5654TIP3    H238378   1.514   5.457   4.654 -0.8078  0.1940  0.1316
 5655TIP3   OH238379   6.230   1.602  15.102 -0.5252  0.4915 -0.2638
 5655TIP3    H138380   6.321   1.607  15.073 -0.5217 -0.9334 -0.5799
 5655TIP3    H238381   6.205   1.510  15.088 -1.7044  0.6264  0.7408
 5656TIP3   OH238382   1.533   5.406  12.815  0.0717  0.0189 -0.2070
 5656TIP3    H138383   1.577   5.325  12.839 -0.0996 -0.1383 -0.4176
 5656TIP3    H238384   1.467   5.379  12.751 -0.2949  0.2561  0.0641
 5657TIP3   OH238385   4.146   0.470   5.203 -0.0771 -0.4672 -0.4912
 5657TIP3    H138386   4.136   0.511   5.118  2.3265 -1.3549 -1.2944
 5657TIP3    H238387   4.239   0.481   5.224 -0.2946 -1.5944  1.3063
 5658TIP3   OH238388   4.862   3.156   4.943  0.1086 -0.4544 -0.1392
 5658TIP3    H138389   4.916   3.089   4.985  0.4340 -0.4159 -0.4895
 5658TIP3    H238390   4.909   3.177   4.862 -0.2242 -0.1276 -0.2492
 5659TIP3   OH238391   4.051   4.359   3.344  0.2592  0.0789  0.4883
 5659TIP3    H138392   4.129   4.335   3.394 -0.0351 -1.6969  0.1632
 5659TIP3    H238393   4.000   4.414   3.403  1.9151  1.5941  0.5643
 5660TIP3   OH238394   4.510   1.123   5.335 -0.1061  0.5084  0.3425
 5660TIP3    H138395   4.574   1.119   5.406  0.7065  1.6630 -0.2870
 5660TIP3    H238396   4.545   1.189   5.275 -1.3496  0.3786 -0.5657
 5661TIP3   OH238397   0.662   4.604   2.939 -0.5702 -0.3492  0.4789
 5661TIP3    H138398   0.621   4.634   3.020  1.0357  1.7015  0.6101
 5661TIP3    H238399   0.588   4.586   2.881 -1.7552  2.5391  0.9158
 5662TIP3   OH238400   4.886   6.630  11.749  0.0861  0.0566 -0.2317
 5662TIP3    H138401   4.867   6.562  11.685 -3.7491  1.0279 -0.3729
 5662TIP3    H238402   4.919   6.704  11.698  0.9308 -0.5185 -0.5244
 5663TIP3   OH238403   4.403   5.562   0.762 -0.4232  0.0996  0.1501
 5663TIP3    H138404   4.428   5.563   0.669 -1.5158 -2.1110 -0.2453
 5663TIP3    H238405   4.307   5.566   0.760 -0.4732 -0.3847  1.1706
 5664TIP3   OH238406   1.945   6.195  12.942 -0.5176 -0.1007 -0.2449
 5664TIP3    H138407   1.910   6.111  12.973 -0.8534  0.6281  1.4359
 5664TIP3    H238408   2.039   6.190  12.961 -0.4283 -0.3243 -0.7213
 5665TIP3   OH238409   1.127   3.558  15.171  0.1266  0.3831  0.1362
 5665TIP3    H138410   1.169   3.474  15.152  0.6212  0.2512  1.6306
 5665TIP3    H238411   1.121   3.560  15.267 -1.4613  1.3012  0.0488
 5666TIP3   OH238412   6.330   4.278   2.046  0.3294 -0.7450  0.3147
 5666TIP3    H138413   6.243   4.294   2.008  0.1712 -2.5241 -0.1862
 5666TIP3    H238414   6.389   4.278   1.970  0.7736  0.3679  0.6444
 5667TIP3   OH238415   5.550   4.309   1.199 -0.3078 -0.0683 -0.2033
 5667TIP3    H138416   5.511   4.330   1.114  1.0396 -0.0256 -0.8420
 5667TIP3    H238417   5.556   4.393   1.245 -1.1782 -0.1132  0.0196
 5668TIP3   OH238418   0.934   6.433   6.914 -0.4363 -0.0791  0.6724
 5668TIP3    H138419   1.028   6.448   6.924 -0.8274  4.1173 -0.3408
 5668TIP3    H238420   0.927   6.377   6.837  1.1755  0.5239  0.0568
 5669TIP3   OH238421   6.627   2.215   4.116  0.1721 -0.3151  0.2038
 5669TIP3    H138422   6.620   2.276   4.043  0.6342  1.6756  1.7329
 5669TIP3    H238423   6.721   2.202   4.129  0.0999 -0.5400  0.5347
 5670TIP3   OH238424   3.645   1.406   1.802  0.4424 -0.0062 -0.6206
 5670TIP3    H138425   3.649   1.394   1.896  0.5114 -2.2258 -0.8640
 5670TIP3    H238426   3.736   1.408   1.774  0.4083 -0.9457 -0.8077
 5671TIP3   OH238427   2.546   2.712   0.364 -0.0982  0.4597 -0.0036
 5671TIP3    H138428   2.518   2.789   0.315  0.6171  0.4587 -0.4348
 5671TIP3    H238429   2.636   2.734   0.392 -0.0211 -0.0757  0.1758
 5672TIP3   OH238430   0.124   5.817   3.127  0.2066  0.3965 -0.2464
 5672TIP3    H138431   0.113   5.881   3.196  0.6104  1.0659 -0.7880
 5672TIP3    H238432   0.049   5.831   3.069 -0.4435 -0.5447  0.3310
 5673TIP3   OH238433   3.083   2.562   0.459  0.4001 -0.4825 -0.6852
 5673TIP3    H138434   3.068   2.638   0.515  1.7104 -0.9667  0.3984
 5673TIP3    H238435   3.005   2.556   0.404 -0.4445  0.6718  0.3385
 5674TIP3   OH238436   3.809   5.646  10.785 -0.0010 -0.4014 -0.2837
 5674TIP3    H138437   3.874   5.709  10.817  1.8394 -1.5638 -1.5089
 5674TIP3    H238438   3.861   5.578  10.743 -1.9699 -2.2264  0.0727
 5675TIP3   OH238439   1.791   1.885   1.547 -0.1321  0.1868 -0.1619
 5675TIP3    H138440   1.787   1.846   1.460  0.3221  0.5234 -0.3376
 5675TIP3    H238441   1.835   1.819   1.601 -0.5737 -0.0969 -0.1390
 5676TIP3   OH238442   5.345   1.392  13.588  0.2748  0.1013 -0.5899
 5676TIP3    H138443   5.309   1.432  13.509 -0.2384 -0.8799 -0.8724
 5676TIP3    H238444   5.434   1.427  13.594 -0.3441  1.7591 -0.4581
 5677TIP3   OH238445   2.496   5.728   6.572 -0.0180 -0.5225  0.3953
 5677TIP3    H138446   2.573   5.674   6.555 -0.1196 -0.9094  1.1161
 5677TIP3    H238447   2.430   5.695   6.510  0.7338  0.6303 -1.0938
 5678TIP3   OH238448   3.453   2.067  14.057  0.6780  0.0783  0.3052
 5678TIP3    H138449   3.467   2.027  13.972  2.2717 -0.5978  0.8481
 5678TIP3    H238450   3.541   2.090  14.088 -0.0571  3.8062  0.1610
 5679TIP3   OH238451   0.160   5.762   1.336 -0.4530 -0.2750  0.2070
 5679TIP3    H138452   0.213   5.831   1.295 -0.7840 -0.0799  0.1013
 5679TIP3    H238453   0.195   5.755   1.425  1.5947 -2.0610 -0.6453
 5680TIP3   OH238454   2.869   3.095   5.709  0.1685 -0.1111  0.1490
 5680TIP3    H138455   2.824   3.054   5.783  0.7493  0.2882  0.7348
 5680TIP3    H238456   2.884   3.185   5.737  1.6973 -0.3422  0.1583
 5681TIP3   OH238457   3.073   6.753  16.886  0.2813  0.2773 -0.2188
 5681TIP3    H138458   3.165   6.775  16.870  0.2865 -0.6159 -1.5884
 5681TIP3    H238459   3.075   6.663  16.918 -0.0701  0.5850  0.7119
 5682TIP3   OH238460   0.558   4.012  14.636 -0.2487  0.5199  0.4178
 5682TIP3    H138461   0.634   4.013  14.695  0.5394 -0.9683 -0.5053
 5682TIP3    H238462   0.562   3.926  14.593 -0.6162  1.6055 -1.9875
 5683TIP3   OH238463   1.751   1.830  12.789  0.1941  0.2877 -0.2413
 5683TIP3    H138464   1.751   1.859  12.880  2.6374 -0.2201 -0.0172
 5683TIP3    H238465   1.804   1.895  12.743  1.7127 -1.1629 -0.6413
 5684TIP3   OH238466   1.653   2.813  15.578 -0.5538  0.2926  0.2684
 5684TIP3    H138467   1.700   2.775  15.652 -0.4704  1.6084  0.9145
 5684TIP3    H238468   1.584   2.866  15.618 -1.3400 -0.0218 -0.6315
 5685TIP3   OH238469   5.976   2.394  11.038 -0.2143  0.0754  0.2218
 5685TIP3    H138470   5.902   2.338  11.015 -0.4771  0.6247 -0.2920
 5685TIP3    H238471   6.020   2.410  10.954  0.7373 -0.5793  0.5669
 5686TIP3   OH238472   2.998   2.890   0.648  0.2453 -0.3139 -0.3607
 5686TIP3    H138473   3.086   2.906   0.614 -0.0190  1.2736 -0.3750
 5686TIP3    H238474   3.008   2.897   0.743  0.2910 -1.0484 -0.3055
 5687TIP3   OH238475   2.137   5.679   6.229  0.5743 -0.5250 -0.4288
 5687TIP3    H138476   2.205   5.709   6.289  0.6393  0.8486 -1.1282
 5687TIP3    H238477   2.117   5.590   6.256 -0.1302  0.3800  2.2789
 5688TIP3   OH238478   4.000   6.140  12.799 -0.0254 -0.0171  0.5550
 5688TIP3    H138479   3.922   6.085  12.812 -0.0658  0.0228  0.4801
 5688TIP3    H238480   4.046   6.135  12.883 -1.7920  2.6514  1.8280
 5689TIP3   OH238481   5.956   4.638   0.481  0.2614 -0.1530 -0.4491
 5689TIP3    H138482   6.013   4.714   0.482 -0.7964  0.6621 -0.7787
 5689TIP3    H238483   5.957   4.607   0.390 -1.6904  1.3496 -1.0542
 5690TIP3   OH238484   1.879   6.533  13.732 -0.0526  0.5089  0.2045
 5690TIP3    H138485   1.902   6.441  13.719 -0.6327  0.2819  0.7379
 5690TIP3    H238486   1.936   6.581  13.671 -0.2447 -0.2444 -0.5820
 5691TIP3   OH238487   3.373   1.452   0.292 -0.2935  0.0718  0.0819
 5691TIP3    H138488   3.411   1.497   0.216 -1.3553  0.3227 -0.3198
 5691TIP3    H238489   3.281   1.480   0.293 -0.6613 -1.0963  0.5887
 5692TIP3   OH238490   3.916   3.363   1.078 -0.3641  0.0304 -0.4348
 5692TIP3    H138491   3.969   3.422   1.132 -0.0381 -1.0062  0.4335
 5692TIP3    H238492   3.971   3.285   1.069 -0.2709  0.2849 -2.5800
 5693TIP3   OH238493   0.419   6.044  11.361 -0.5396 -0.0074  0.3514
 5693TIP3    H138494   0.348   6.108  11.363  2.2967  3.4079  1.7009
 5693TIP3    H238495   0.388   5.972  11.416 -3.4866  0.5410 -0.3986
 5694TIP3   OH238496   5.983   4.824  13.025  0.3042 -0.1736 -0.4383
 5694TIP3    H138497   6.065   4.792  13.063  0.4193  0.1490 -0.4100
 5694TIP3    H238498   6.011   4.875  12.949  0.0842 -0.7151 -0.8910
 5695TIP3   OH238499   4.330   1.450   2.311 -0.5225 -0.1034  0.1702
 5695TIP3    H138500   4.267   1.404   2.368 -2.8525  2.1432 -0.3735
 5695TIP3    H238501   4.275   1.506   2.256  1.9864  2.5240  0.0916
 5696TIP3   OH238502   1.006   4.389   2.945 -0.0660  0.0009 -0.2501
 5696TIP3    H138503   1.034   4.423   2.860  0.0617  0.5215 -0.0088
 5696TIP3    H238504   1.041   4.452   3.009  0.2877 -0.6685  0.2271
 5697TIP3   OH238505   2.690   0.960  13.619  0.4505  0.0054 -0.4315
 5697TIP3    H138506   2.624   1.024  13.645  0.4510  0.0685 -0.5874
 5697TIP3    H238507   2.728   0.996  13.539 -0.5597 -0.9005 -1.3471
 5698TIP3   OH238508   5.454   3.833  11.559  0.4013  0.1411 -0.2310
 5698TIP3    H138509   5.398   3.829  11.481 -0.9343  0.0346  0.7036
 5698TIP3    H238510   5.442   3.748  11.601  0.0596  0.6900  0.7978
 5699TIP3   OH238511   1.518   1.969   2.303  0.2130 -0.8737  1.0561
 5699TIP3    H138512   1.427   1.942   2.305 -0.0441 -0.4184 -1.4849
 5699TIP3    H238513   1.557   1.919   2.232  0.4058  3.1418 -2.0209
 5700TIP3   OH238514   1.510   1.162   5.505 -0.1279 -1.2364 -0.2187
 5700TIP3    H138515   1.561   1.242   5.516 -1.9068 -0.1196  0.3742
 5700TIP3    H238516   1.432   1.190   5.456  0.5693 -3.2228 -2.6786
 5701TIP3   OH238517   6.503   6.302  16.922 -0.5556 -0.4164  0.0201
 5701TIP3    H138518   6.512   6.288  17.017 -0.3890 -1.7516 -0.1744
 5701TIP3    H238519   6.556   6.380  16.904  0.3928 -0.8593  0.8380
 5702TIP3   OH238520   4.350   4.119  13.139 -0.1012 -0.2176 -0.3138
 5702TIP3    H138521   4.325   4.194  13.084  0.8950  1.4681  1.4033
 5702TIP3    H238522   4.442   4.103  13.115  0.4269  0.7121  0.9865
 5703TIP3   OH238523   0.537   5.340   1.617 -0.3609 -0.0973 -0.1562
 5703TIP3    H138524   0.496   5.338   1.704  1.1606  0.9090  0.6327
 5703TIP3    H238525   0.530   5.250   1.585 -1.6152 -0.3292  0.6602
 5704TIP3   OH238526   3.644   4.711  13.687  0.3539 -0.2688 -0.0435
 5704TIP3    H138527   3.701   4.637  13.663 -1.1360 -0.9037 -1.8534
 5704TIP3    H238528   3.695   4.788  13.663  0.3950 -0.8342 -1.9201
 5705TIP3   OH238529   6.314   2.478   0.932  0.7758  0.2145 -0.0957
 5705TIP3    H138530   6.342   2.565   0.960  2.5990 -0.1581 -0.6590
 5705TIP3    H238531   6.277   2.439   1.011  0.8120  1.1459  0.4009
 5706TIP3   OH238532   2.452   5.966  13.860 -0.0870 -0.3645 -0.1972
 5706TIP3    H138533   2.490   6.046  13.823  0.2787 -0.8433 -0.8904
 5706TIP3    H238534   2.496   5.895  13.813 -1.7952 -0.9437 -1.0015
 5707TIP3   OH238535   1.778   0.511   1.246 -0.0836  0.6719  0.4053
 5707TIP3    H138536   1.762   0.417   1.255 -0.9502  0.8053  0.3403
 5707TIP3    H238537   1.797   0.523   1.153  4.1170 -0.0040  0.9870
 5708TIP3   OH238538   2.096   6.234  11.793 -0.3401 -0.0139 -0.1519
 5708TIP3    H138539   2.085   6.179  11.870  0.7050  2.6727  2.0840
 5708TIP3    H238540   2.188   6.223  11.768 -0.1823  0.5099  0.1749
 5709TIP3   OH238541   3.082   1.384  16.492 -0.4692  0.1184 -0.2802
 5709TIP3    H138542   3.146   1.384  16.421 -0.2506 -1.0810 -0.1027
 5709TIP3    H238543   3.007   1.337  16.455  0.0105 -1.3773  0.5799
 5710TIP3   OH238544   6.166   1.525   5.748  0.2731  0.4739 -0.1403
 5710TIP3    H138545   6.220   1.458   5.705 -1.5869 -1.4548  0.3344
 5710TIP3    H238546   6.224   1.565   5.813  0.9565 -2.1786  1.0231
 5711TIP3   OH238547   5.019   5.281   3.159  0.1520 -0.3817  0.0942
 5711TIP3    H138548   5.095   5.234   3.126 -0.4675  0.2488 -2.4385
 5711TIP3    H238549   4.944   5.238   3.119 -0.8406 -0.6040  2.0531
 5712TIP3   OH238550   5.979   2.191   6.061  0.3245 -0.1941 -0.2825
 5712TIP3    H138551   6.056   2.227   6.105  1.9938 -0.6088 -2.6591
 5712TIP3    H238552   5.931   2.144   6.131  2.4295 -0.2758  1.2040
 5713TIP3   OH238553   5.962   3.333  17.236 -0.1373  0.1661  0.1396
 5713TIP3    H138554   5.933   3.419  17.205 -1.9087 -0.5401 -0.2993
 5713TIP3    H238555   5.916   3.320  17.319 -0.4270 -0.6295 -0.1330
 5714TIP3   OH238556   3.898   2.370   3.249  0.1771  0.5679 -0.3172
 5714TIP3    H138557   3.867   2.338   3.334 -1.8368 -0.1679 -1.2647
 5714TIP3    H238558   3.928   2.459   3.267 -0.1270  0.3990  1.1891
 5715TIP3   OH238559   1.610   1.258  12.975 -0.0594 -0.2189  0.0724
 5715TIP3    H138560   1.549   1.187  12.956 -0.4181  0.1294 -0.0724
 5715TIP3    H238561   1.654   1.229  13.056 -0.3353 -0.5186  0.1212
 5716TIP3   OH238562   3.043   5.121  17.200 -0.0647  0.2827  0.0753
 5716TIP3    H138563   3.000   5.052  17.251 -0.4613 -0.7022 -1.5197
 5716TIP3    H238564   3.102   5.164  17.262 -0.4974 -0.8854  1.3360
 5717TIP3   OH238565   1.437   1.954   2.992 -0.4811 -0.0332 -0.4173
 5717TIP3    H138566   1.435   1.862   3.020  1.4247  0.2745  0.8766
 5717TIP3    H238567   1.434   2.004   3.074 -0.8420  1.0692 -1.0803
 5718TIP3   OH238568   2.034   1.943   0.977 -0.1339 -0.6745 -0.2129
 5718TIP3    H138569   1.963   1.928   1.039  0.5895 -1.1448  0.5338
 5718TIP3    H238570   2.106   1.889   1.010  1.4336  1.6954  0.5600
 5719TIP3   OH238571   2.754   6.022   2.119 -0.5470 -0.2950  0.1298
 5719TIP3    H138572   2.779   6.087   2.053 -0.8285 -2.2252 -2.0233
 5719TIP3    H238573   2.658   6.026   2.120 -0.5325  0.3149  1.1307
 5720TIP3   OH238574   3.037   3.629   0.805  0.8035  0.4775 -0.5931
 5720TIP3    H138575   3.054   3.544   0.764 -1.1509 -0.2551  0.0159
 5720TIP3    H238576   3.120   3.676   0.798  1.5999 -1.0441 -1.9648
 5721TIP3   OH238577   5.576   2.685  11.856 -0.1731 -0.7805 -0.2642
 5721TIP3    H138578   5.560   2.723  11.942  0.4856  1.7043 -1.1374
 5721TIP3    H238579   5.639   2.615  11.872  0.1823 -0.1524  1.2428
 5722TIP3   OH238580   6.658   1.490   1.622 -0.2566  0.0639 -0.3180
 5722TIP3    H138581   6.673   1.495   1.717  0.4230  0.6951 -0.4511
 5722TIP3    H238582   6.647   1.397   1.604  0.9146 -0.1839  0.1857
 5723TIP3   OH238583   1.348   5.223  16.094 -0.2688  0.0653  0.5643
 5723TIP3    H138584   1.442   5.225  16.077 -0.1744  1.0616  1.0857
 5723TIP3    H238585   1.308   5.215  16.007  0.2844  0.5322  0.2580
 5724TIP3   OH238586   4.499   0.788  14.445 -0.1760  0.1597  0.7592
 5724TIP3    H138587   4.476   0.771  14.537 -0.5306  1.3005  0.8910
 5724TIP3    H238588   4.551   0.867  14.447 -1.2452  0.9193 -0.1404
 5725TIP3   OH238589   5.658   0.982  15.683 -0.3016  0.0638  0.2304
 5725TIP3    H138590   5.707   1.042  15.739  1.1470  0.0460 -0.9294
 5725TIP3    H238591   5.567   1.006  15.695 -0.0804 -0.1297  2.7648
 5726TIP3   OH238592   0.040   3.521   5.872  0.0610  0.6411  0.1072
 5726TIP3    H138593  -0.049   3.538   5.842  0.2410  0.6714 -0.4248
 5726TIP3    H238594   0.083   3.607   5.867  1.0665  0.1032 -2.8927
 5727TIP3   OH238595   4.089   1.725   2.672  0.1943 -0.7867 -0.1026
 5727TIP3    H138596   4.011   1.776   2.648  0.5165 -0.9924 -1.7130
 5727TIP3    H238597   4.134   1.780   2.737 -1.6548 -1.0259  1.4572
 5728TIP3   OH238598   2.957   2.272   5.731  0.3907 -0.0276 -0.2039
 5728TIP3    H138599   2.984   2.350   5.779  0.4175 -0.5421  0.6359
 5728TIP3    H238600   3.039   2.237   5.695  0.4220  0.1298 -0.2909
 5729TIP3   OH238601   4.827   5.759  13.416 -0.0896 -0.4448 -0.7225
 5729TIP3    H138602   4.769   5.782  13.344  0.3071 -0.6347 -1.1073
 5729TIP3    H238603   4.913   5.788  13.387  0.2207 -1.3304 -0.7103
 5730TIP3   OH238604   3.888   4.961   5.865 -0.0372  0.1965 -0.3960
 5730TIP3    H138605   3.896   4.878   5.817 -2.8873 -0.9485  0.8340
 5730TIP3    H238606   3.827   5.012   5.812  0.3286  0.7831 -0.2513
 5731TIP3   OH238607   0.865   6.092   5.926 -0.1636  0.0436  0.4519
 5731TIP3    H138608   0.897   6.166   5.978  1.5424 -0.6001  0.3617
 5731TIP3    H238609   0.849   6.129   5.840  1.3593  0.1870  0.2117
 5732TIP3   OH238610   3.514   4.593   5.311  0.2784  0.1391 -0.0387
 5732TIP3    H138611   3.573   4.609   5.384 -1.4007  0.5271  1.3037
 5732TIP3    H238612   3.542   4.654   5.243 -0.7322  2.9268  1.8902
 5733TIP3   OH238613   5.721   3.033   2.465  0.3137  0.5945  0.3123
 5733TIP3    H138614   5.726   3.085   2.545  0.3588 -1.1147  1.4816
 5733TIP3    H238615   5.645   3.068   2.419 -2.2514 -0.8921  3.0528
 5734TIP3   OH238616   4.630   0.516   0.482 -0.2519  0.3589  0.5649
 5734TIP3    H138617   4.602   0.424   0.481 -0.7890  0.4896 -1.1687
 5734TIP3    H238618   4.549   0.565   0.498 -0.0834  0.5436  0.8396
 5735TIP3   OH238619   2.837   5.749  14.076  0.1673 -0.5974 -0.2271
 5735TIP3    H138620   2.803   5.736  13.987 -0.7022  2.5574 -0.4950
 5735TIP3    H238621   2.794   5.830  14.106  1.6668 -0.6933  2.4578
 5736TIP3   OH238622   2.313   5.557   5.073  0.0032 -0.0647  0.2318
 5736TIP3    H138623   2.385   5.525   5.019  0.6233  1.0018  0.3896
 5736TIP3    H238624   2.263   5.614   5.015 -0.5496 -0.5549  0.2120
 5737TIP3   OH238625   1.128   0.234  10.857 -0.8747 -0.0650  0.8948
 5737TIP3    H138626   1.039   0.224  10.823 -0.5695  1.1689 -0.4104
 5737TIP3    H238627   1.117   0.250  10.950 -2.2975  2.9180  0.3403
 5738TIP3   OH238628   1.970   3.814   1.936 -0.3415  0.3698 -0.3024
 5738TIP3    H138629   1.883   3.849   1.919 -1.2743 -1.4792  0.3813
 5738TIP3    H238630   1.955   3.721   1.955  1.5809  0.3725  1.5735
 5739TIP3   OH238631   4.857   6.723  17.367  0.2263  0.2936 -0.1774
 5739TIP3    H138632   4.898   6.802  17.333  2.2593 -1.3245 -1.8518
 5739TIP3    H238633   4.851   6.665  17.290 -1.2804 -1.1528  0.9542
 5740TIP3   OH238634   1.729   0.602  13.179  0.0033  0.0566 -0.2317
 5740TIP3    H138635   1.788   0.549  13.231 -1.0720 -2.2199 -1.1866
 5740TIP3    H238636   1.656   0.623  13.238  0.4072  0.4443  0.1336
 5741TIP3   OH238637   0.268   5.743  15.500  0.3351  0.1973 -0.0973
 5741TIP3    H138638   0.315   5.764  15.419  0.4959  0.9696  0.1860
 5741TIP3    H238639   0.294   5.812  15.561 -1.9508  1.2616 -0.2239
 5742TIP3   OH238640   4.835   2.668  15.317  0.1452 -0.6265  0.3467
 5742TIP3    H138641   4.797   2.740  15.367  1.3094 -0.0424  0.4276
 5742TIP3    H238642   4.929   2.678  15.328  0.4031 -1.0146 -1.2250
 5743TIP3   OH238643   4.399   5.030   3.556  0.1914  0.6896  0.2733
 5743TIP3    H138644   4.492   5.043   3.573  0.1408 -1.2176  2.5094
 5743TIP3    H238645   4.392   4.939   3.529 -1.2346 -0.0650  2.8190
 5744TIP3   OH238646   5.005   3.777  12.239 -0.0575  0.0189 -0.4217
 5744TIP3    H138647   5.085   3.823  12.212 -0.2731 -0.0391 -1.1776
 5744TIP3    H238648   5.026   3.742  12.326  0.7490 -0.0259 -0.6215
 5745TIP3   OH238649   0.104   2.531  11.286 -0.1943 -0.3448 -0.2414
 5745TIP3    H138650   0.184   2.524  11.234 -0.4368 -2.7269 -0.3731
 5745TIP3    H238651   0.048   2.461  11.254 -2.8097  1.8236 -0.8438
 5746TIP3   OH238652   5.883   6.084   5.117  0.4257 -0.3049  0.0717
 5746TIP3    H138653   5.957   6.027   5.095 -0.7430 -2.0305  0.3968
 5746TIP3    H238654   5.880   6.082   5.213 -0.2955 -0.6028  0.0436
 5747TIP3   OH238655   0.143   4.093   5.213 -0.0678 -0.4740  0.0834
 5747TIP3    H138656   0.083   4.026   5.246  0.3293 -0.1793  1.4696
 5747TIP3    H238657   0.214   4.094   5.278 -0.7524  2.2759  0.9023
 5748TIP3   OH238658   5.714   1.265  11.290  0.4544  0.1993 -0.9800
 5748TIP3    H138659   5.637   1.261  11.235  0.5565 -0.0888 -1.1023
 5748TIP3    H238660   5.751   1.352  11.274 -1.1745  1.3405  0.8815
 5749TIP3   OH238661   4.703   1.229   4.699  0.5282  0.0863  0.2015
 5749TIP3    H138662   4.704   1.321   4.671 -0.9752  0.6251  1.7340
 5749TIP3    H238663   4.746   1.229   4.784 -1.0275 -0.2885  1.0273
 5750TIP3   OH238664   5.132   0.109   5.014 -0.0350 -0.5643 -0.5609
 5750TIP3    H138665   5.110   0.050   4.943  1.8816 -1.4623 -0.4698
 5750TIP3    H238666   5.220   0.083   5.041 -1.3855 -1.6220  3.5047
 5751TIP3   OH238667   1.426   6.411   4.403 -0.8164 -0.0858  0.1214
 5751TIP3    H138668   1.521   6.413   4.418 -0.8318 -0.5404  0.3043
 5751TIP3    H238669   1.414   6.458   4.320 -0.4005 -0.3044 -0.0669
 5752TIP3   OH238670   1.413   4.827  13.650 -0.4810 -0.5447  0.0073
 5752TIP3    H138671   1.486   4.876  13.613 -0.8548  0.2850  0.3327
 5752TIP3    H238672   1.337   4.857  13.600 -0.4191 -2.5267 -1.3734
 5753TIP3   OH238673   3.474   4.435  17.116  0.0307  0.1496  0.2668
 5753TIP3    H138674   3.436   4.353  17.149  0.6823 -0.2059  0.1435
 5753TIP3    H238675   3.464   4.428  17.021 -1.2548  0.8835  0.3240
 5754TIP3   OH238676   0.020   4.235  13.535 -0.1553 -0.4132 -0.4658
 5754TIP3    H138677  -0.014   4.323  13.551 -1.6284 -1.1162  0.5426
 5754TIP3    H238678   0.115   4.245  13.538 -0.2925  1.1930 -0.7027
 5755TIP3   OH238679   6.200   3.267   0.183  0.4730  0.5101 -0.1312
 5755TIP3    H138680   6.155   3.217   0.115  0.4162  0.2724  0.0796
 5755TIP3    H238681   6.188   3.216   0.263  0.6044  0.7490  0.0442
 5756TIP3   OH238682   2.950   6.199   4.438 -0.4511  0.3020 -0.4375
 5756TIP3    H138683   2.855   6.198   4.429 -0.4600  1.4120 -0.6918
 5756TIP3    H238684   2.971   6.291   4.458  0.6562  0.3380 -1.6165
 5757TIP3   OH238685   6.663   3.160   0.604  0.0807 -0.4348  0.3621
 5757TIP3    H138686   6.699   3.160   0.693  0.0693 -2.0553  0.3802
 5757TIP3    H238687   6.570   3.180   0.616  0.3931  1.0759  0.5364
 5758TIP3   OH238688   4.040   5.132   5.505  0.1834 -0.2169  1.1690
 5758TIP3    H138689   4.115   5.092   5.548 -0.5937 -1.8523  1.0721
 5758TIP3    H238690   3.964   5.089   5.542 -0.7259  1.1675  1.0196
 5759TIP3   OH238691   6.646   3.718  12.620 -0.1404  0.1154  0.6846
 5759TIP3    H138692   6.564   3.671  12.640  1.1149 -1.8682  1.5305
 5759TIP3    H238693   6.666   3.694  12.530 -0.3269  0.3398  0.5833
 5760TIP3   OH238694   0.944   3.653   2.891 -0.5046 -0.1949 -0.5304
 5760TIP3    H138695   0.973   3.724   2.833  0.8990 -0.1320  0.1840
 5760TIP3    H238696   0.864   3.686   2.931 -0.2244  0.7392 -0.6948
 5761TIP3   OH238697   0.018   2.174  15.717 -0.4117  0.0181  0.4602
 5761TIP3    H138698  -0.077   2.182  15.709 -0.7614 -1.8575  1.9070
 5761TIP3    H238699   0.042   2.236  15.785 -0.6852  0.0885  0.4934
 5762TIP3   OH238700   0.334   4.343  12.442  0.2993 -0.9118 -0.3812
 5762TIP3    H138701   0.422   4.348  12.480 -0.0302 -1.0045  0.4201
 5762TIP3    H238702   0.348   4.336  12.348  1.1028  2.7162 -0.6932
 5763TIP3   OH238703   5.726   2.795   0.485  0.4589  0.3273  0.0115
 5763TIP3    H138704   5.672   2.872   0.506 -0.7260 -0.3281 -0.5757
 5763TIP3    H238705   5.664   2.730   0.454  1.5859 -0.5113 -0.5330
 5764TIP3   OH238706   4.345   3.477   5.365  0.1211 -0.1949 -0.3975
 5764TIP3    H138707   4.282   3.456   5.435  1.1053  0.1651  0.6197
 5764TIP3    H238708   4.384   3.560   5.392  1.0409 -0.4178 -1.0002
 5765TIP3   OH238709   3.426   4.662  14.625 -0.4054 -0.9183  0.0340
 5765TIP3    H138710   3.520   4.654  14.642 -0.5272 -0.4530  0.9565
 5765TIP3    H238711   3.413   4.614  14.543  0.6892 -0.7261 -0.2770
 5766TIP3   OH238712   4.357   6.345  14.060  0.7434 -0.1322 -0.2961
 5766TIP3    H138713   4.390   6.408  13.996  1.8590  1.1892  1.4738
 5766TIP3    H238714   4.350   6.263  14.011 -0.4536  1.2393 -2.5948
 5767TIP3   OH238715   2.814   1.536   1.630 -0.0398  0.2621 -0.3633
 5767TIP3    H138716   2.764   1.605   1.674 -0.5040  0.6511 -1.4780
 5767TIP3    H238717   2.806   1.556   1.537  1.9405  0.1651 -0.6094
 5768TIP3   OH238718   6.415   5.885  15.691 -0.3469  0.4314  0.4148
 5768TIP3    H138719   6.360   5.961  15.713  0.3488  0.5554  1.7966
 5768TIP3    H238720   6.354   5.823  15.650 -0.9557  1.6537 -0.6165
 5769TIP3   OH238721   4.785   0.627  14.086  0.2761 -0.6247  0.4363
 5769TIP3    H138722   4.723   0.620  14.158 -0.1251 -0.4383  0.1112
 5769TIP3    H238723   4.843   0.699  14.111 -0.0432 -0.3663  0.4414
 5770TIP3   OH238724   2.975   0.055  17.150 -0.4075  0.1143 -0.1478
 5770TIP3    H138725   2.992   0.037  17.057  2.3647 -0.7542  0.4294
 5770TIP3    H238726   3.017   0.140  17.165 -0.4812  0.0531  0.3995
 5771TIP3   OH238727   5.252   5.244   2.983 -0.1159 -0.4391 -0.7643
 5771TIP3    H138728   5.236   5.163   2.935 -0.2213 -1.9961  1.7001
 5771TIP3    H238729   5.328   5.283   2.940 -0.5768 -1.4085 -2.5312
 5772TIP3   OH238730   2.048   4.024  16.839 -0.9701 -0.5107 -0.1243
 5772TIP3    H138731   2.066   3.951  16.780  0.8418 -1.1095  1.1004
 5772TIP3    H238732   2.134   4.061  16.859 -1.6961  0.7814  0.7620
 5773TIP3   OH238733   4.787   2.491   1.668 -0.0216  0.0864 -0.0853
 5773TIP3    H138734   4.880   2.513   1.671 -0.4597  2.0932  0.2721
 5773TIP3    H238735   4.753   2.540   1.594 -0.7847 -0.7157 -0.2763
 5774TIP3   OH238736   0.279   4.603   1.369  1.0491  0.1389  0.3101
 5774TIP3    H138737   0.278   4.684   1.418 -0.1925  0.4585 -0.1910
 5774TIP3    H238738   0.350   4.552   1.407 -0.3309  0.0402  2.9691
 5775TIP3   OH238739   5.253   1.900  11.865  0.4102  0.1451  0.1190
 5775TIP3    H138740   5.219   1.987  11.842 -2.1267 -0.8139 -0.0893
 5775TIP3    H238741   5.274   1.860  11.780  2.0598  0.6778  0.2397
 5776TIP3   OH238742   4.218   5.450  15.065  1.1835 -0.4396  0.2956
 5776TIP3    H138743   4.148   5.500  15.107  1.4295 -1.1696  1.6207
 5776TIP3    H238744   4.198   5.455  14.971  0.3682  0.8468  0.5219
 5777TIP3   OH238745   1.609   4.923   0.770  0.1823 -0.5726 -0.6366
 5777TIP3    H138746   1.574   4.887   0.851  1.3869 -1.1712 -0.3571
 5777TIP3    H238747   1.620   5.016   0.788  0.3973 -0.6916 -0.1169
 5778TIP3   OH238748   3.396   4.664   4.470 -0.8309 -0.3345  0.5722
 5778TIP3    H138749   3.313   4.710   4.462 -0.9419 -0.6062  0.1320
 5778TIP3    H238750   3.372   4.572   4.471 -0.5123 -0.4242  0.1128
 5779TIP3   OH238751   5.073   3.342  16.328 -0.2168 -0.2011  0.4869
 5779TIP3    H138752   5.015   3.392  16.270 -0.2984  0.8671  1.4575
 5779TIP3    H238753   5.035   3.254  16.329 -1.2765  0.2361  0.3530
 5780TIP3   OH238754   1.179   6.007   6.011 -0.8266  0.7576 -0.3672
 5780TIP3    H138755   1.104   6.048   5.969 -1.7431 -0.8089 -0.3603
 5780TIP3    H238756   1.142   5.960   6.086 -0.0081 -0.7481 -0.8515
 5781TIP3   OH238757   3.603   2.438  17.090 -0.0742 -0.4445 -0.2561
 5781TIP3    H138758   3.600   2.433  17.185  1.5450  1.4443 -0.0399
 5781TIP3    H238759   3.562   2.521  17.068  0.3016 -0.4738 -1.1363
 5782TIP3   OH238760   4.459   0.037   4.142  0.2072 -0.0679  0.2561
 5782TIP3    H138761   4.526  -0.007   4.091 -0.5069 -1.3121  0.3458
 5782TIP3    H238762   4.480   0.016   4.233 -0.7994 -1.2588  0.2425
 5783TIP3   OH238763   3.580   3.655  15.861 -0.0838  0.7331 -0.3995
 5783TIP3    H138764   3.670   3.640  15.888 -0.8548 -3.0486  0.7297
 5783TIP3    H238765   3.584   3.729  15.801  3.4540  1.8558  1.0140
 5784TIP3   OH238766   1.861   3.755   4.280 -0.1099  0.0377 -0.3306
 5784TIP3    H138767   1.798   3.763   4.207 -1.7922  3.9402  1.2280
 5784TIP3    H238768   1.946   3.767   4.239 -0.9957  1.9452 -1.8267
 5785TIP3   OH238769   0.464   5.387  13.053  0.0227 -0.3222  0.0458
 5785TIP3    H138770   0.485   5.480  13.063 -0.4040 -0.2257  0.0862
 5785TIP3    H238771   0.517   5.342  13.119 -0.5804  0.0070  0.7660
 5786TIP3   OH238772   1.874   5.744   0.325  0.1075  0.5823 -0.4667
 5786TIP3    H138773   1.779   5.738   0.328  0.1810 -0.9820 -0.5429
 5786TIP3    H238774   1.897   5.801   0.399 -0.9278  2.0330 -1.1984
 5787TIP3   OH238775   4.238   3.521  12.064  0.3571 -0.1051 -0.0799
 5787TIP3    H138776   4.178   3.546  11.994  0.8643 -2.2501 -1.3875
 5787TIP3    H238777   4.194   3.448  12.108  1.1431 -0.4240  0.1923
 5788TIP3   OH238778   1.182   2.285   2.677 -0.5309  0.0710  0.5588
 5788TIP3    H138779   1.174   2.339   2.598 -1.4501  0.5575  0.9662
 5788TIP3    H238780   1.262   2.234   2.663 -1.5252 -1.0604 -1.4209
 5789TIP3   OH238781   3.844   0.366  17.244 -0.2229 -0.2797 -0.2012
 5789TIP3    H138782   3.925   0.383  17.291  0.8725 -0.5145 -1.9327
 5789TIP3    H238783   3.871   0.319  17.165 -2.2665 -2.4770  0.2837
 5790TIP3   OH238784   2.867   5.458  17.371 -0.1091 -0.1602 -0.1518
 5790TIP3    H138785   2.928   5.448  17.298  2.1857 -0.9391  1.7445
 5790TIP3    H238786   2.842   5.551  17.369  0.6185  0.0279 -1.3671
 5791TIP3   OH238787   4.683   1.946  11.526  0.0168 -0.5310  0.0412
 5791TIP3    H138788   4.676   2.027  11.576  1.2538 -0.6506  0.4473
 5791TIP3    H238789   4.659   1.877  11.588  0.0370 -0.5577  0.0191
 5792TIP3   OH238790   4.862   4.385  13.082 -0.6680  0.1072 -0.2759
 5792TIP3    H138791   4.921   4.432  13.023 -0.8853 -1.4605 -1.8492
 5792TIP3    H238792   4.816   4.453  13.131  0.9254  1.4120 -0.5172
 5793TIP3   OH238793   5.952   3.952   1.836 -0.1131  0.0492  0.1103
 5793TIP3    H138794   5.960   3.868   1.790 -1.3758 -0.3897  0.6570
 5793TIP3    H238795   6.032   3.958   1.889 -0.1886 -0.9926  0.3603
 5794TIP3   OH238796   5.882   3.690  10.888  0.1657 -0.2347 -0.5216
 5794TIP3    H138797   5.833   3.610  10.870  0.2952 -0.5035  0.3133
 5794TIP3    H238798   5.863   3.747  10.813 -1.4934 -0.2975 -0.1871
 5795TIP3   OH238799   2.767   6.014   2.997  0.4512  0.6416  0.0754
 5795TIP3    H138800   2.682   6.045   2.965 -0.2889 -1.8001 -0.5560
 5795TIP3    H238801   2.787   6.071   3.071 -1.1286  2.0508 -0.5212
 5796TIP3   OH238802   3.725   4.990  15.453 -0.2391  0.5108  0.2318
 5796TIP3    H138803   3.651   5.004  15.513 -0.4673  2.7293 -0.4736
 5796TIP3    H238804   3.687   4.952  15.375 -0.5301  1.0240  0.1240
 5797TIP3   OH238805   3.043   2.885   4.201  0.3306  0.4155  0.0172
 5797TIP3    H138806   3.020   2.961   4.254  1.4631  0.7212  0.0987
 5797TIP3    H238807   2.992   2.813   4.240 -1.0624  1.1814 -0.3225
 5798TIP3   OH238808   4.651   1.621   0.435 -0.0443  0.5198  0.3625
 5798TIP3    H138809   4.721   1.678   0.466 -1.6162  3.0599 -0.4240
 5798TIP3    H238810   4.694   1.557   0.379  2.0183 -0.2401  2.6182
 5799TIP3   OH238811   1.685   1.229  16.529  0.0951 -0.1481  0.4586
 5799TIP3    H138812   1.613   1.193  16.478 -0.2948  1.5810 -0.2708
 5799TIP3    H238813   1.730   1.152  16.565 -0.6465 -1.3403 -1.0712
 5800TIP3   OH238814   0.448   5.648   5.303  0.1028  0.0429  0.6826
 5800TIP3    H138815   0.516   5.581   5.301 -1.7082 -1.8848  0.4783
 5800TIP3    H238816   0.438   5.676   5.212 -0.3866 -0.7572  0.4859
 5801TIP3   OH238817   0.580   3.997  12.027 -0.1637  0.5925 -0.3128
 5801TIP3    H138818   0.562   4.025  12.116  0.0904  0.0710 -0.0929
 5801TIP3    H238819   0.614   3.908  12.036  0.2081  0.6683 -0.9002
 5802TIP3   OH238820   6.603   5.537   6.334 -0.3015 -0.1137  0.0357
 5802TIP3    H138821   6.595   5.527   6.429 -2.2021  0.4741 -0.0301
 5802TIP3    H238822   6.666   5.469   6.308  0.3600 -0.1875  1.7190
 5803TIP3   OH238823   3.107   5.423  12.681  0.4639  0.0863 -0.1918
 5803TIP3    H138824   3.044   5.396  12.747  0.9022  0.9961  0.6353
 5803TIP3    H238825   3.126   5.344  12.631 -0.4153 -0.4572  0.3121
 5804TIP3   OH238826   4.667   4.097   0.802  0.2173 -0.2011  0.3980
 5804TIP3    H138827   4.748   4.132   0.765  1.0226 -2.4608 -0.1533
 5804TIP3    H238828   4.696   4.026   0.859 -1.3489 -0.4879  0.8814
 5805TIP3   OH238829   3.414   0.884  10.667  0.0353 -0.1098  0.3167
 5805TIP3    H138830   3.451   0.965  10.704 -1.9580  1.5763 -1.1016
 5805TIP3    H238831   3.487   0.823  10.664  1.6998  1.7236  1.2250
 5806TIP3   OH238832   5.652   2.972  14.228  0.3847 -0.1703 -0.0955
 5806TIP3    H138833   5.640   2.910  14.300  0.1251 -1.2426 -1.0372
 5806TIP3    H238834   5.699   2.923  14.162  0.6725  0.8243 -0.6408
 5807TIP3   OH238835   3.524   4.975   3.958 -0.2414 -0.1099  0.2299
 5807TIP3    H138836   3.505   4.895   4.007 -2.5807  1.3490  1.9029
 5807TIP3    H238837   3.544   4.944   3.869 -0.8617 -2.5537  0.8556
 5808TIP3   OH238838   4.511   2.851   0.589  0.3549 -0.5072 -0.0567
 5808TIP3    H138839   4.602   2.833   0.614  0.0931 -1.7997 -0.0008
 5808TIP3    H238840   4.466   2.767   0.599 -0.3277 -0.4993 -2.4727
 5809TIP3   OH238841   1.495   1.250  16.960 -0.2936  0.4682 -0.0432
 5809TIP3    H138842   1.453   1.331  16.933 -1.5721 -0.6525 -1.6767
 5809TIP3    H238843   1.526   1.211  16.878  0.5157 -0.5797  0.7287
 5810TIP3   OH238844   5.517   0.734  14.502 -0.4227 -0.6041 -0.3501
 5810TIP3    H138845   5.435   0.781  14.488 -0.4755 -0.9153 -1.1351
 5810TIP3    H238846   5.523   0.725  14.597 -1.1369 -0.2951 -0.2681
 5811TIP3   OH238847   4.207   5.631   5.425 -0.3630  0.0542 -0.4456
 5811TIP3    H138848   4.217   5.536   5.428  0.2487  0.1030 -0.8691
 5811TIP3    H238849   4.278   5.661   5.368  0.8503  0.9774  1.4594
 5812TIP3   OH238850   5.002   4.144   3.652 -0.7496 -0.6526  0.3580
 5812TIP3    H138851   4.915   4.142   3.691 -0.4061  3.0520  1.7249
 5812TIP3    H238852   4.988   4.181   3.565 -0.6636 -1.3295  0.0531
 5813TIP3   OH238853   2.171   5.123   3.484 -0.1370 -0.2089 -0.4160
 5813TIP3    H138854   2.123   5.078   3.554 -1.7743  0.6501 -0.9300
 5813TIP3    H238855   2.197   5.053   3.424  0.2874 -0.8252  0.4662
 5814TIP3   OH238856   5.419   0.850   3.194 -0.1891  0.2893 -0.0362
 5814TIP3    H138857   5.447   0.907   3.122  0.9901 -2.0890 -1.5931
 5814TIP3    H238858   5.501   0.812   3.228 -0.9425 -0.8537  0.5877
 5815TIP3   OH238859   2.066   4.460  16.550 -0.0803 -0.2692 -0.2771
 5815TIP3    H138860   2.091   4.455  16.457  1.4407  2.0051 -0.0806
 5815TIP3    H238861   2.075   4.370  16.582  2.0448 -0.6547 -1.7316
 5816TIP3   OH238862   4.546   4.900   2.468 -0.4128 -0.1500 -0.6434
 5816TIP3    H138863   4.534   4.909   2.562 -1.0046 -1.2650 -0.5874
 5816TIP3    H238864   4.593   4.979   2.441 -0.1524  0.1346  0.5964
 5817TIP3   OH238865   0.308   4.481  17.186 -0.1763 -0.0416 -0.3063
 5817TIP3    H138866   0.356   4.446  17.261 -0.6191 -0.4288 -0.2001
 5817TIP3    H238867   0.341   4.432  17.111 -1.0505 -0.9645 -0.1098
 5818TIP3   OH238868   4.202   1.691  15.450 -0.3203  0.2694 -1.0703
 5818TIP3    H138869   4.205   1.768  15.393 -0.5339 -0.3533 -1.9526
 5818TIP3    H238870   4.283   1.695  15.500 -0.3865  1.1323 -1.0142
 5819TIP3   OH238871   4.768   5.861  12.433 -0.3048 -0.4496  0.4466
 5819TIP3    H138872   4.862   5.859  12.415  0.1747  0.4686  2.5154
 5819TIP3    H238873   4.733   5.784  12.388  1.4215 -0.8090 -0.3686
 5820TIP3   OH238874   3.173   3.287   0.212 -0.2835 -0.1799  0.3642
 5820TIP3    H138875   3.124   3.368   0.197 -0.8334 -0.5207  0.3003
 5820TIP3    H238876   3.249   3.293   0.155  0.0923  0.6447  0.9325
 5821TIP3   OH238877   5.061   4.793   5.444 -0.5355 -0.5302 -0.0998
 5821TIP3    H138878   5.042   4.881   5.477 -2.0209 -0.9229  0.1350
 5821TIP3    H238879   5.035   4.796   5.352  2.0043  0.0515 -0.8866
 5822TIP3   OH238880   5.421   6.119   0.875  0.0768  0.3387 -0.0967
 5822TIP3    H138881   5.389   6.198   0.831  0.4720  0.7899  0.4112
 5822TIP3    H238882   5.516   6.130   0.879  0.6193 -1.8300 -3.2114
 5823TIP3   OH238883   0.258   2.738   3.666  0.1622  0.0996  0.5243
 5823TIP3    H138884   0.240   2.659   3.615 -0.1247  2.0590 -2.6944
 5823TIP3    H238885   0.253   2.709   3.757 -0.4722 -3.4333 -0.4643
 5824TIP3   OH238886   3.492   0.059  14.836 -0.0148 -0.4272  0.2474
 5824TIP3    H138887   3.587   0.045  14.831  0.3989  1.7284  1.1773
 5824TIP3    H238888   3.470   0.040  14.927  0.0412  1.6444  0.7384
 5825TIP3   OH238889   5.897   1.511   5.695 -1.0784  0.0255 -0.1679
 5825TIP3    H138890   5.988   1.497   5.718 -1.4302  0.3284  1.5643
 5825TIP3    H238891   5.853   1.429   5.716 -1.2828  0.0238 -0.5813
 5826TIP3   OH238892   4.111   3.626   1.610  0.2049  0.2335 -0.5060
 5826TIP3    H138893   4.047   3.626   1.681 -0.2651  0.6956 -0.9244
 5826TIP3    H238894   4.084   3.698   1.553  2.1295  1.6498  0.2578
 5827TIP3   OH238895   4.293   6.687  12.341  0.2501  0.1124  0.3171
 5827TIP3    H138896   4.203   6.704  12.311  0.6617  1.0485 -0.4262
 5827TIP3    H238897   4.348   6.734  12.279  1.3317 -1.5633 -0.0323
 5828TIP3   OH238898   5.581   4.349  15.315 -0.4323  0.2521 -0.4098
 5828TIP3    H138899   5.631   4.268  15.307  0.0119  0.0916  2.7327
 5828TIP3    H238900   5.507   4.338  15.255  1.3908 -0.9843 -2.5547
 5829TIP3   OH238901   3.396   0.032   4.956 -0.0476  0.1411 -1.0607
 5829TIP3    H138902   3.388   0.121   4.924 -1.5210 -0.0003 -1.1409
 5829TIP3    H238903   3.427   0.042   5.046 -1.0713  0.7861 -0.7669
 5830TIP3   OH238904   3.558   1.761  13.480  0.2697  0.1815  0.6307
 5830TIP3    H138905   3.579   1.853  13.495 -1.0416  1.0435 -2.1288
 5830TIP3    H238906   3.491   1.763  13.412 -1.5339 -2.7620  2.1420
 5831TIP3   OH238907   6.390   0.236   4.021  0.1834  0.7912  0.1069
 5831TIP3    H138908   6.384   0.276   4.108 -3.8117  2.0935 -0.5625
 5831TIP3    H238909   6.370   0.144   4.035 -3.1610  1.4450  0.4532
 5832TIP3   OH238910   4.119   5.845   1.314  0.2621 -0.0299  0.2288
 5832TIP3    H138911   4.207   5.817   1.290  0.0274 -0.1526 -0.5159
 5832TIP3    H238912   4.068   5.763   1.318  0.5576 -0.1789  2.4151
 5833TIP3   OH238913   4.846   1.500  13.875 -0.0170  0.2007  0.1807
 5833TIP3    H138914   4.836   1.405  13.868  0.8636  0.1429 -0.3340
 5833TIP3    H238915   4.763   1.530  13.914 -0.3039 -0.7685  0.3318
 5834TIP3   OH238916   4.525   6.455   6.040  0.4484  0.0892 -0.2206
 5834TIP3    H138917   4.519   6.452   6.135  0.3778  1.4277 -0.1731
 5834TIP3    H238918   4.552   6.366   6.015  0.5703 -0.2418  1.0406
 5835TIP3   OH238919   6.023   6.343   6.651  0.3174 -0.3739 -0.4710
 5835TIP3    H138920   6.056   6.432   6.634 -1.5203  0.4464 -0.0430
 5835TIP3    H238921   6.100   6.287   6.643  1.4481  1.1981 -1.2180
 5836TIP3   OH238922   4.138   6.252   1.285 -0.2983 -0.3309 -1.1007
 5836TIP3    H138923   4.109   6.194   1.356  0.6666  0.6937  0.1824
 5836TIP3    H238924   4.094   6.218   1.207 -0.6852 -2.0572 -0.1881
 5837TIP3   OH238925   2.571   1.793   4.793 -0.7119 -0.0793 -0.0179
 5837TIP3    H138926   2.666   1.790   4.800 -0.6758 -0.0810 -0.4613
 5837TIP3    H238927   2.554   1.801   4.699 -1.1292  0.6108  0.1078
 5838TIP3   OH238928   4.192   2.211   3.855  0.4486 -0.4222  0.3259
 5838TIP3    H138929   4.159   2.286   3.806 -0.0704  0.1369  1.4692
 5838TIP3    H238930   4.118   2.151   3.859  0.5574 -0.5622  0.2409
 5839TIP3   OH238931   6.302   5.172  12.548 -0.4825 -0.0245  0.6185
 5839TIP3    H138932   6.320   5.265  12.563 -0.2270  0.2028 -0.9313
 5839TIP3    H238933   6.235   5.171  12.479 -1.3027 -0.9929  1.3889
 5840TIP3   OH238934   4.475   1.412  12.972  0.0309 -0.4291 -0.1252
 5840TIP3    H138935   4.428   1.329  12.982 -1.3216  0.4328  1.0738
 5840TIP3    H238936   4.440   1.450  12.892 -0.7947 -0.1269  0.3744
 5841TIP3   OH238937   2.024   5.016  11.654 -0.6831 -0.8396  0.1743
 5841TIP3    H138938   2.036   5.110  11.641 -0.1047 -0.4537  2.9327
 5841TIP3    H238939   1.951   4.994  11.597 -1.4130  1.4722  0.0863
 5842TIP3   OH238940   3.367   5.200  12.745 -0.1525 -0.4599  0.4927
 5842TIP3    H138941   3.453   5.239  12.762  0.0719 -0.6122 -0.2553
 5842TIP3    H238942   3.319   5.212  12.827  1.1708 -1.9373  1.5552
 5843TIP3   OH238943   5.382   6.634  15.465 -0.0150 -0.0279  0.1753
 5843TIP3    H138944   5.437   6.587  15.402 -0.4400 -0.8996  0.4377
 5843TIP3    H238945   5.301   6.652  15.418  0.1859  0.5473  0.0424
 5844TIP3   OH238946   0.753   3.546   2.642  0.2258  0.0386 -0.1508
 5844TIP3    H138947   0.704   3.492   2.580  0.3048  1.7357 -1.7710
 5844TIP3    H238948   0.697   3.549   2.720 -0.2252 -1.5401 -0.3748
 5845TIP3   OH238949   0.750   2.469   5.001 -0.4961 -0.2612 -0.1548
 5845TIP3    H138950   0.683   2.458   5.069  1.0996 -0.4066  1.4829
 5845TIP3    H238951   0.789   2.383   4.992 -0.2021 -0.0703 -0.7372
 5846TIP3   OH238952   1.012   5.369  12.446  0.2440 -0.3818 -0.1096
 5846TIP3    H138953   0.917   5.359  12.450  0.2807 -0.4583  0.9334
 5846TIP3    H238954   1.027   5.423  12.368 -0.8385  1.6028  0.9708
 5847TIP3   OH238955   4.961   3.565  11.458 -0.1422 -0.1226  0.0625
 5847TIP3    H138956   4.923   3.542  11.542  0.1057 -2.0804 -0.3264
 5847TIP3    H238957   4.950   3.487  11.404  1.8567  0.2353 -0.9615
 5848TIP3   OH238958   3.494   3.840   5.735  0.5056 -0.3949  0.5105
 5848TIP3    H138959   3.558   3.910   5.727 -0.8027  0.8740  0.7321
 5848TIP3    H238960   3.545   3.764   5.763  2.0571  0.2694 -0.3971
 5849TIP3   OH238961   0.920   2.124   1.266 -0.3226 -0.2031 -0.1636
 5849TIP3    H138962   0.917   2.158   1.356 -0.3051  0.3180 -0.3565
 5849TIP3    H238963   0.996   2.167   1.227 -0.7752  0.1568 -0.6589
 5850TIP3   OH238964   5.389   3.772  13.416  0.3289  0.7547  0.4129
 5850TIP3    H138965   5.386   3.706  13.486  1.4015 -0.3937 -0.5598
 5850TIP3    H238966   5.406   3.855  13.461  0.9703  0.0478  1.5284
 5851TIP3   OH238967   2.633   6.094  11.929  0.6967  0.1318  0.0601
 5851TIP3    H138968   2.647   6.018  11.872 -0.7450 -1.0384  1.1873
 5851TIP3    H238969   2.721   6.122  11.954  1.3377  0.1080 -1.9550
 5852TIP3   OH238970   5.238   3.773  14.646  0.0335  0.1215  0.3286
 5852TIP3    H138971   5.327   3.806  14.631  0.6163 -0.7188  1.7992
 5852TIP3    H238972   5.181   3.838  14.604  1.3024  1.0234 -0.0529
 5853TIP3   OH238973   1.641   4.458  15.620 -0.6860  0.0361 -0.2621
 5853TIP3    H138974   1.568   4.504  15.662 -0.6399 -0.0889 -0.0436
 5853TIP3    H238975   1.670   4.516  15.550  0.1473  0.8858  0.7626
 5854TIP3   OH238976   0.256   3.226  12.397 -0.7305  0.0051 -0.1040
 5854TIP3    H138977   0.163   3.240  12.383 -0.7087  0.3772  0.1266
 5854TIP3    H238978   0.297   3.307  12.367 -0.7321  1.2026  2.8774
 5855TIP3   OH238979   1.457   3.066   1.549 -0.5241 -0.3137 -0.8532
 5855TIP3    H138980   1.450   3.137   1.485  1.1860  0.6077 -0.0674
 5855TIP3    H238981   1.415   3.101   1.628  2.1893  0.7669  0.2291
 5856TIP3   OH238982   5.924   2.742  12.446 -0.0074  0.5634 -0.6317
 5856TIP3    H138983   6.001   2.764  12.499  1.4321 -1.7241 -1.6611
 5856TIP3    H238984   5.932   2.798  12.369  0.7321  0.2265 -0.8106
 5857TIP3   OH238985   0.306   3.349   5.141  0.2061 -0.6535  0.2839
 5857TIP3    H138986   0.322   3.327   5.233  1.2296  2.1560  0.8797
 5857TIP3    H238987   0.381   3.404   5.117 -1.3474  0.8262 -1.4233
 5858TIP3   OH238988   1.267   2.188   3.164 -0.0032  0.3663  0.3045
 5858TIP3    H138989   1.240   2.254   3.100  0.8261 -0.2991 -0.7738
 5858TIP3    H238990   1.185   2.147   3.192 -0.3584  0.3890 -0.6549
 5859TIP3   OH238991   5.757   6.761   5.385  0.0961  0.7897  0.3143
 5859TIP3    H138992   5.704   6.811   5.447  0.9820 -0.6555  2.3148
 5859TIP3    H238993   5.847   6.779   5.410  0.4464 -1.0411  0.4856
 5860TIP3   OH238994   1.536   0.289  13.888 -0.0218  0.2994  0.3167
 5860TIP3    H138995   1.515   0.382  13.895  0.9608  0.6687 -1.1226
 5860TIP3    H238996   1.591   0.271  13.964 -1.3887  0.5069  1.4001
 5861TIP3   OH238997   0.408   4.624   6.181  0.2070  0.3914  0.0848
 5861TIP3    H138998   0.321   4.629   6.221 -0.5867 -2.8513 -0.9190
 5861TIP3    H238999   0.442   4.539   6.208  2.8405  1.2742 -0.1161
 5862TIP3   OH239000   2.195   5.005  13.704 -0.3924  0.3809 -0.0172
 5862TIP3    H139001   2.177   5.098  13.693  1.4397  0.6656 -1.1125
 5862TIP3    H239002   2.170   4.965  13.621  1.3085  0.3754 -0.5658
 5863TIP3   OH239003   0.303   3.294   1.048 -0.1767 -0.0392 -0.9325
 5863TIP3    H139004   0.388   3.266   1.080 -0.0854 -0.0437 -1.1716
 5863TIP3    H239005   0.244   3.222   1.068 -0.4604  0.5873  0.6283
 5864TIP3   OH239006   0.872   0.886  16.326 -0.4861 -0.4373  0.0774
 5864TIP3    H139007   0.779   0.905  16.343 -0.2550 -0.6883  1.8048
 5864TIP3    H239008   0.873   0.793  16.304 -0.5702 -0.6524  0.9287
 5865TIP3   OH239009   3.185   6.377   6.316 -0.0052  0.5888  0.4605
 5865TIP3    H139010   3.115   6.436   6.289 -1.1901 -0.6823  0.6366
 5865TIP3    H239011   3.262   6.433   6.324 -0.2021  1.5217 -2.8490
 5866TIP3   OH239012   3.347   4.064   1.414  0.3470 -0.2356  0.0877
 5866TIP3    H139013   3.424   4.021   1.376 -0.1101  0.3570 -1.6074
 5866TIP3    H239014   3.273   4.011   1.384 -0.0398  0.3473 -0.0179
 5867TIP3   OH239015   3.596   2.673   1.399  0.2002 -0.0569  0.5470
 5867TIP3    H139016   3.513   2.675   1.350 -0.3922  0.5415  1.5491
 5867TIP3    H239017   3.570   2.671   1.491  1.3066 -0.3289  0.8690
 5868TIP3   OH239018   2.846   2.696   3.037  0.1925  0.1418 -0.3411
 5868TIP3    H139019   2.878   2.753   2.967 -0.8983 -0.5749 -1.4633
 5868TIP3    H239020   2.822   2.756   3.108 -0.5201  1.0646 -1.3293
 5869TIP3   OH239021   4.268   3.916  16.345 -0.8401 -0.4001  0.7506
 5869TIP3    H139022   4.222   3.911  16.262  0.5880  1.0854 -0.1874
 5869TIP3    H239023   4.342   3.855  16.336  0.5767  1.3332  0.0178
 5870TIP3   OH239024   1.302   4.987  17.143 -0.1194 -0.7241  0.0148
 5870TIP3    H139025   1.234   4.930  17.109  0.4473 -1.6065  0.3284
 5870TIP3    H239026   1.301   5.063  17.085 -0.9846 -0.9786 -0.3161
 5871TIP3   OH239027   3.068   5.679  12.315 -0.6239 -0.0466  0.0118
 5871TIP3    H139028   3.075   5.674  12.410 -0.7547 -2.0730 -0.0397
 5871TIP3    H239029   3.153   5.713  12.286 -0.6746  0.8172  0.8515
 5872TIP3   OH239030   2.417   1.765  14.759  0.4903  0.0528  0.2631
 5872TIP3    H139031   2.508   1.743  14.779  1.1627  1.1921 -1.2479
 5872TIP3    H239032   2.401   1.724  14.674  0.4764  1.9047 -0.6895
 5873TIP3   OH239033   4.122   4.612   1.110 -0.0196  0.2202 -0.3722
 5873TIP3    H139034   4.123   4.519   1.131 -2.0267  0.3285  0.5047
 5873TIP3    H239035   4.106   4.655   1.195 -1.2651  1.1756 -1.0510
 5874TIP3   OH239036   1.868   4.108   3.864  0.0783  0.2017  0.6671
 5874TIP3    H139037   1.848   4.072   3.777  0.2630  1.2745  0.1656
 5874TIP3    H239038   1.958   4.079   3.881  0.2593  0.4930  0.2281
 5875TIP3   OH239039   4.512   4.603   0.122 -0.0326 -0.3002 -0.0803
 5875TIP3    H139040   4.512   4.509   0.102 -1.3215 -0.3025 -0.1681
 5875TIP3    H239041   4.423   4.632   0.100  0.5840  1.1238 -0.8561
 5876TIP3   OH239042   5.342   1.412   1.961 -0.0370 -0.1098 -0.1348
 5876TIP3    H139043   5.351   1.409   1.865 -0.6071  2.6182 -0.3338
 5876TIP3    H239044   5.408   1.473   1.990 -0.8579  0.2494  1.0659
 5877TIP3   OH239045   2.321   3.836  13.063 -0.6735 -0.5119 -0.1125
 5877TIP3    H139046   2.300   3.779  13.137  0.1073  0.7260  1.0952
 5877TIP3    H239047   2.404   3.802  13.029 -0.7867 -0.7826 -0.1198
 5878TIP3   OH239048   0.620   1.201   3.924 -0.6012 -0.4965  0.2528
 5878TIP3    H139049   0.690   1.216   3.988  0.3473  1.3507 -1.1017
 5878TIP3    H239050   0.540   1.230   3.968 -0.3301 -1.3862  1.3634
 5879TIP3   OH239051   1.469   0.236   5.946  0.0923 -0.0530  0.2561
 5879TIP3    H139052   1.525   0.237   6.024 -1.9536  2.4060  1.8572
 5879TIP3    H239053   1.429   0.149   5.945 -0.3595  0.0795  2.4012
 5880TIP3   OH239054   4.023   2.927   0.610 -0.3306 -0.2863  0.0911
 5880TIP3    H139055   3.999   2.843   0.571 -2.4577  0.0211  0.6236
 5880TIP3    H239056   4.033   2.908   0.703 -1.4604  0.1327  0.3174
 5881TIP3   OH239057   0.685   4.632  16.747 -0.1582 -0.3605  0.3786
 5881TIP3    H139058   0.685   4.581  16.666  2.3378  0.7625 -0.4066
 5881TIP3    H239059   0.722   4.717  16.722 -0.6220  0.4997  2.4398
 5882TIP3   OH239060   5.413   3.077  16.210 -0.4364 -0.2104 -0.4106
 5882TIP3    H139061   5.379   3.166  16.223 -2.8361 -1.0662 -0.2335
 5882TIP3    H239062   5.334   3.025  16.192  0.7200 -2.5890  1.0334
 5883TIP3   OH239063   6.716   4.252   5.075 -0.1201  0.4412  0.1553
 5883TIP3    H139064   6.804   4.227   5.102  0.0270  0.9504  0.1562
 5883TIP3    H239065   6.687   4.181   5.017  1.0261  1.1912 -1.3989
 5884TIP3   OH239066   3.803   0.912   6.486  0.0394 -0.9409 -0.4615
 5884TIP3    H139067   3.816   0.832   6.538 -2.7428 -1.7210 -0.8026
 5884TIP3    H239068   3.732   0.890   6.426 -0.8771  1.8322 -0.5145
 5885TIP3   OH239069   6.762   5.070  13.973 -0.5683  0.2965 -0.3216
 5885TIP3    H139070   6.815   5.142  13.939 -1.8437  0.6483 -1.6657
 5885TIP3    H239071   6.721   5.106  14.052  0.0149  0.4945 -0.0958
 5886TIP3   OH239072   4.381   4.356  17.124  0.5496 -0.1701  0.3409
 5886TIP3    H139073   4.403   4.449  17.130 -1.7782  0.4144  0.6159
 5886TIP3    H239074   4.419   4.317  17.202  0.6974  0.7415  0.7352
 5887TIP3   OH239075   2.834   3.084  14.115  0.3692 -0.0538  0.4477
 5887TIP3    H139076   2.920   3.083  14.158  1.7105  3.0130 -1.8150
 5887TIP3    H239077   2.777   3.131  14.176  1.0330  0.2655  0.8340
 5888TIP3   OH239078   6.458   3.009   3.195 -0.1156  0.0404  0.1426
 5888TIP3    H139079   6.434   3.069   3.124  1.5172  0.2133 -0.2995
 5888TIP3    H239080   6.439   2.922   3.160 -0.5875  0.1930  0.0115
 5889TIP3   OH239081   6.131   2.422   0.020 -0.5485  0.1331 -0.0441
 5889TIP3    H139082   6.168   2.492   0.073 -1.2818  0.1798  0.4204
 5889TIP3    H239083   6.072   2.375   0.079 -1.8567  0.5632 -0.9488
 5890TIP3   OH239084   3.379   5.292   1.971  0.0204  0.0425  0.4206
 5890TIP3    H139085   3.414   5.380   1.960 -0.5057 -0.0440 -2.8382
 5890TIP3    H239086   3.369   5.258   1.882 -0.3910 -3.1037  1.5215
 5891TIP3   OH239087   3.945   3.443  11.039  0.8879  0.4448  0.4949
 5891TIP3    H139088   3.856   3.477  11.032  0.7418  0.0659  0.4653
 5891TIP3    H239089   3.994   3.488  10.971  0.3477 -0.4989 -0.5539
 5892TIP3   OH239090   4.127   1.024  14.555  0.3810 -0.2124 -0.4359
 5892TIP3    H139091   4.204   1.014  14.499 -0.3865 -1.1901 -1.3794
 5892TIP3    H239092   4.082   0.939  14.549  1.2953 -1.1554  3.3155
 5893TIP3   OH239093   5.099   4.832  13.661 -0.1889  0.6084  0.0399
 5893TIP3    H139094   5.169   4.898  13.666  0.2469  0.1973 -0.5148
 5893TIP3    H239095   5.131   4.759  13.713  0.4947 -0.1933 -1.4358
 5894TIP3   OH239096   1.912   4.180  16.521 -0.1217 -0.3266  0.0947
 5894TIP3    H139097   1.935   4.156  16.610 -0.4087  0.3052  0.3437
 5894TIP3    H239098   1.925   4.100  16.470 -0.9507 -0.9722  0.8714
 5895TIP3   OH239099   1.632   4.608  11.820  0.6999 -0.3626 -0.3347
 5895TIP3    H139100   1.658   4.698  11.838 -1.5927  0.3211 -0.0176
 5895TIP3    H239101   1.620   4.605  11.725  0.9164 -0.3626 -0.3608
 5896TIP3   OH239102   3.082   5.682   5.224 -0.2081 -0.2384 -0.2525
 5896TIP3    H139103   3.013   5.658   5.285 -0.4402  1.2723  0.1163
 5896TIP3    H239104   3.061   5.771   5.197  1.7431  0.3898  0.0938
 5897TIP3   OH239105   0.642   4.716  13.500  0.4832 -0.4497 -0.3992
 5897TIP3    H139106   0.556   4.754  13.481 -0.2950 -1.3610  1.1357
 5897TIP3    H239107   0.683   4.707  13.414  0.4966  3.2040 -0.9344
 5898TIP3   OH239108   5.617   2.400   0.695 -0.4804 -0.2755 -0.3308
 5898TIP3    H139109   5.638   2.478   0.746 -0.6021 -1.5352  1.7511
 5898TIP3    H239110   5.666   2.410   0.614 -0.7944  2.1247 -0.2795
 5899TIP3   OH239111   6.644   3.438   0.541  0.1614  0.0458  0.2798
 5899TIP3    H139112   6.715   3.501   0.534  0.3096 -0.2803 -2.2514
 5899TIP3    H239113   6.687   3.356   0.568  0.5259  0.2052  0.1913
 5900TIP3   OH239114   3.665   6.045   2.391 -0.0558  0.3367  0.3313
 5900TIP3    H139115   3.572   6.024   2.400  0.3968 -1.0500  2.2368
 5900TIP3    H239116   3.674   6.130   2.434 -0.1048 -0.5534  2.2011
 5901TIP3   OH239117   6.380   6.194   4.952  0.1975 -0.1546  0.2735
 5901TIP3    H139118   6.412   6.190   5.042  2.5924  0.5575 -0.4601
 5901TIP3    H239119   6.440   6.254   4.908 -0.6101 -0.8477 -1.9206
 5902TIP3   OH239120   4.406   3.286  13.879 -0.0983  0.5209  0.3498
 5902TIP3    H139121   4.380   3.302  13.969 -1.6155 -1.1577  0.2629
 5902TIP3    H239122   4.346   3.338  13.826 -1.2638 -0.8729  0.2487
 5903TIP3   OH239123   6.456   3.965  12.001  0.2601 -0.1151 -0.5891
 5903TIP3    H139124   6.533   3.936  11.953  2.4373  2.1381  1.2837
 5903TIP3    H239125   6.481   3.957  12.093 -0.9117  2.6150  0.0507
 5904TIP3   OH239126   6.300   6.474  16.578 -0.0614  0.0771  0.4860
 5904TIP3    H139127   6.268   6.459  16.667 -0.4364 -0.0720  0.3296
 5904TIP3    H239128   6.236   6.430  16.522 -1.5414  2.7036 -0.0527
 5905TIP3   OH239129   1.997   3.637   2.877  0.3677  0.0486  0.2626
 5905TIP3    H139130   1.955   3.606   2.957 -0.3217 -0.9569 -0.4522
 5905TIP3    H239131   1.929   3.687   2.832  0.9341  1.1113  0.5726
 5906TIP3   OH239132   4.315   6.320  15.347  0.3213 -0.6454 -0.1485
 5906TIP3    H139133   4.223   6.304  15.326  0.1405 -0.4923  0.4994
 5906TIP3    H239134   4.364   6.256  15.295 -0.0632  0.0873 -1.4508
 5907TIP3   OH239135   0.091   0.355  16.294 -0.4980 -0.0080 -0.2672
 5907TIP3    H139136   0.091   0.429  16.234 -1.8950 -0.1380 -0.4550
 5907TIP3    H239137  -0.001   0.343  16.318 -0.0806 -0.5570  1.1601
 5908TIP3   OH239138   2.597   3.714   0.510  0.0219  0.2639  1.0126
 5908TIP3    H139139   2.629   3.637   0.463 -0.5747 -0.5632  1.9176
 5908TIP3    H239140   2.595   3.688   0.602 -3.6429  0.0239  1.0297
 5909TIP3   OH239141   5.428   1.937  14.122  0.0180  1.3026 -0.0946
 5909TIP3    H139142   5.389   2.022  14.099 -0.0995  1.1262 -0.5546
 5909TIP3    H239143   5.390   1.876  14.059  2.3852  1.4277 -1.7599
 5910TIP3   OH239144   3.548   6.204   5.873  0.1818 -0.3422  0.0336
 5910TIP3    H139145   3.620   6.236   5.819 -0.5855 -0.0906 -0.8813
 5910TIP3    H239146   3.569   6.232   5.962  0.0224  1.8888 -0.5858
 5911TIP3   OH239147   5.455   2.469   5.843 -0.5152  0.1495  0.5613
 5911TIP3    H139148   5.543   2.463   5.807 -0.1436 -0.0231  1.4668
 5911TIP3    H239149   5.412   2.388   5.814 -0.0193 -0.2862  1.0232
 5912TIP3   OH239150   2.184   6.270   0.856  0.0689 -0.1351  0.2821
 5912TIP3    H139151   2.170   6.364   0.845  0.8989 -0.0718 -0.4156
 5912TIP3    H239152   2.237   6.262   0.935  3.6884  0.4016 -1.8638
 5913TIP3   OH239153   4.936   1.198   2.875 -0.0606  0.6939  0.2476
 5913TIP3    H139154   4.926   1.146   2.955  0.8296 -0.3440 -0.2892
 5913TIP3    H239155   4.922   1.288   2.904 -0.3690  0.2851  1.4547
 5914TIP3   OH239156   6.691   0.441   1.086  0.5149 -0.0262  0.1114
 5914TIP3    H139157   6.655   0.483   1.164  1.7545  1.0895  0.1235
 5914TIP3    H239158   6.729   0.512   1.035  0.3611 -0.8306 -1.1761
 5915TIP3   OH239159   4.818   1.460   0.260  0.0959  0.7314  0.0942
 5915TIP3    H139160   4.825   1.366   0.275 -0.3949  0.3683 -1.7101
 5915TIP3    H239161   4.902   1.485   0.222  0.3207  1.0927  0.8073
 5916TIP3   OH239162   6.091   0.331   2.728  0.0871 -0.0251 -0.5055
 5916TIP3    H139163   6.112   0.245   2.691  0.1603 -0.1825 -0.1032
 5916TIP3    H239164   6.066   0.384   2.652 -0.0962 -0.4413 -0.7409
 5917TIP3   OH239165   3.687   0.304  16.210  0.3389  0.2020 -0.3399
 5917TIP3    H139166   3.594   0.320  16.223 -0.1695 -1.1307 -2.0215
 5917TIP3    H239167   3.691   0.223  16.158  2.4519 -0.1299  0.2199
 5918TIP3   OH239168   3.076   4.031  14.358 -0.1560 -0.0185 -0.4601
 5918TIP3    H139169   3.027   4.065  14.433  1.0977 -1.2214  0.9650
 5918TIP3    H239170   3.009   4.012  14.293 -1.2711  1.1764  0.2882
 5919TIP3   OH239171   3.205   3.480   1.187  0.2306 -0.0790  0.2032
 5919TIP3    H139172   3.151   3.538   1.240  0.8067  0.1893  0.5083
 5919TIP3    H239173   3.212   3.400   1.238 -0.6041 -0.4488 -0.2394
 5920TIP3   OH239174   5.365   1.819   1.722  0.3098  0.1517  0.6346
 5920TIP3    H139175   5.456   1.825   1.694  0.3571 -1.0783  0.4688
 5920TIP3    H239176   5.324   1.899   1.688  0.8052 -0.3616 -1.2965
 5921TIP3   OH239177   5.214   1.379  11.692 -0.2714  0.0237 -0.2823
 5921TIP3    H139178   5.273   1.313  11.655 -0.9849  0.2314 -1.8454
 5921TIP3    H239179   5.129   1.360  11.654 -0.3169  2.4082 -1.5610
 5922TIP3   OH239180   0.240   3.597  17.350 -0.0377 -0.0067  0.4004
 5922TIP3    H139181   0.155   3.630  17.321 -0.2224 -0.6227  0.2346
 5922TIP3    H239182   0.252   3.516  17.301  1.7285  1.2430 -1.4069
 5923TIP3   OH239183   6.285   2.143  12.449 -0.1313  0.4028  0.0233
 5923TIP3    H139184   6.289   2.050  12.426 -0.0565  0.4575 -0.1858
 5923TIP3    H239185   6.338   2.149  12.529  0.8748  0.4655 -0.6254
 5924TIP3   OH239186   5.592   5.012  12.144 -0.2015 -0.1780 -0.6025
 5924TIP3    H139187   5.651   5.006  12.069 -1.0177 -1.2832 -1.1896
 5924TIP3    H239188   5.588   5.106  12.164  0.8132  0.0277 -1.2939
 5925TIP3   OH239189   3.342   3.290   0.001 -0.0731 -0.4013  0.6092
 5925TIP3    H139190   3.419   3.344   0.020 -1.1128  1.6524 -0.6242
 5925TIP3    H239191   3.378   3.209  -0.035  1.5290 -0.0169  1.2479
 5926TIP3   OH239192   6.609   2.761   4.207 -0.4081  0.6744 -0.0422
 5926TIP3    H139193   6.689   2.727   4.246  0.1522  2.5194  0.4683
 5926TIP3    H239194   6.631   2.775   4.115 -0.8430 -0.8459 -0.4225
 5927TIP3   OH239195   0.862   6.370  11.474  0.1564 -0.2762 -0.2592
 5927TIP3    H139196   0.872   6.276  11.494 -1.3554 -0.9457 -2.3392
 5927TIP3    H239197   0.773   6.390  11.501  0.3399  0.4894 -0.2169
 5928TIP3   OH239198   1.699   2.649  13.088 -0.3321 -0.1341  0.2388
 5928TIP3    H139199   1.612   2.661  13.050  0.1409  1.7578 -0.3648
 5928TIP3    H239200   1.684   2.595  13.166 -2.1169  0.4899  0.3758
 5929TIP3   OH239201   5.073   1.329   3.180  0.4497  0.1298  0.4727
 5929TIP3    H139202   5.123   1.391   3.127  0.5186  0.1505  0.5605
 5929TIP3    H239203   5.103   1.243   3.152 -0.3431  0.0980 -0.3389
 5930TIP3   OH239204   0.233   5.520  14.870 -0.5435  0.1706  0.5321
 5930TIP3    H139205   0.225   5.604  14.915 -0.9108 -0.2829  1.3388
 5930TIP3    H239206   0.323   5.520  14.836 -0.9585  1.4428 -0.6538
 5931TIP3   OH239207   6.549   4.453  11.247 -0.1289  0.5262  0.5032
 5931TIP3    H139208   6.505   4.372  11.220  0.6338  0.4138 -0.4886
 5931TIP3    H239209   6.636   4.447  11.206  0.1025  1.6341  0.8041
 5932TIP3   OH239210   5.675   5.978   1.970 -0.4936 -0.6595  0.3544
 5932TIP3    H139211   5.587   6.014   1.985 -0.4703 -0.3879 -0.1632
 5932TIP3    H239212   5.668   5.929   1.889  0.5943  2.0249 -1.4912
 5933TIP3   OH239213   1.777   1.194  11.599 -0.5135  0.0467 -0.1188
 5933TIP3    H139214   1.762   1.224  11.510 -0.0279 -2.2029 -1.0183
 5933TIP3    H239215   1.852   1.135  11.593 -1.3320 -1.2758  1.4917
 5934TIP3   OH239216   1.728   6.035  15.051  0.0334 -0.6885  0.2749
 5934TIP3    H139217   1.784   6.108  15.079  2.1186 -2.3704  0.6989
 5934TIP3    H239218   1.781   5.987  14.988 -1.6229 -1.4077 -0.6119
 5935TIP3   OH239219   6.701   1.749   4.042  0.2894 -0.5431  0.3167
 5935TIP3    H139220   6.630   1.780   4.098 -0.8349 -1.7148 -0.3909
 5935TIP3    H239221   6.701   1.808   3.967  1.3361  0.5987  1.1711
 5936TIP3   OH239222   2.898   2.002   4.403 -0.5351  0.4396  0.1267
 5936TIP3    H139223   2.927   2.076   4.349 -0.0692  0.1249 -0.0626
 5936TIP3    H239224   2.970   1.940   4.398 -1.0178 -0.1211  0.1057
 5937TIP3   OH239225   6.587   2.605  15.343 -0.4816 -0.3977 -0.3021
 5937TIP3    H139226   6.492   2.597  15.339 -0.4621 -0.8532  0.0420
 5937TIP3    H239227   6.608   2.678  15.285 -1.1557  0.6693  0.7724
 5938TIP3   OH239228   2.524   3.435   0.516 -0.3968 -0.0830 -0.5267
 5938TIP3    H139229   2.480   3.362   0.561  0.2029  0.7558  1.5155
 5938TIP3    H239230   2.453   3.483   0.474 -1.0141 -0.7489 -0.2748
 5939TIP3   OH239231   2.861   4.403  13.979 -0.5465  0.0075 -0.0151
 5939TIP3    H139232   2.776   4.397  13.935 -0.4738  0.8894 -0.2999
 5939TIP3    H239233   2.916   4.339  13.933 -0.3228  1.2617 -1.5923
 5940TIP3   OH239234   5.465   3.918  15.629 -0.3909  0.3383 -0.0516
 5940TIP3    H139235   5.515   4.000  15.630 -1.8803  1.3010 -0.8704
 5940TIP3    H239236   5.374   3.946  15.634 -1.0048 -1.1887 -1.7966
 5941TIP3   OH239237   3.320   3.680   2.384 -0.4032  0.3333  0.2451
 5941TIP3    H139238   3.371   3.631   2.448 -1.1718 -0.1873  0.4650
 5941TIP3    H239239   3.345   3.642   2.300 -1.7114 -1.1237  0.4838
 5942TIP3   OH239240   6.337   1.273   6.499  0.1181 -0.5002  0.3036
 5942TIP3    H139241   6.358   1.224   6.578 -1.7869 -2.3512 -0.2317
 5942TIP3    H239242   6.277   1.342   6.529  2.3742  1.2680  0.9749
 5943TIP3   OH239243   5.365   0.707  17.151  0.5272 -1.0346  0.2853
 5943TIP3    H139244   5.311   0.630  17.170  0.2274 -0.7281  0.6931
 5943TIP3    H239245   5.433   0.706  17.218  0.0405 -0.4964  0.8106
 5944TIP3   OH239246   1.695   4.701   4.604 -0.3409 -0.2224 -0.1433
 5944TIP3    H139247   1.734   4.747   4.530 -0.5165 -1.1922 -0.8575
 5944TIP3    H239248   1.652   4.770   4.655  0.2519  0.5283 -0.6432
 5945TIP3   OH239249   4.927   4.140   5.816 -0.2431  0.0387 -0.0483
 5945TIP3    H139250   5.011   4.096   5.799  0.1742  1.3673 -1.7083
 5945TIP3    H239251   4.863   4.091   5.765 -0.0651  0.3307 -0.5639
 5946TIP3   OH239252   3.931   6.370  17.279 -0.3139 -0.9113 -0.0685
 5946TIP3    H139253   3.984   6.343  17.204 -1.3067 -2.2552 -0.3372
 5946TIP3    H239254   3.960   6.459  17.298  0.8001 -0.9749 -1.2862
 5947TIP3   OH239255   1.362   0.705   3.994 -0.5206  0.3348  0.0579
 5947TIP3    H139256   1.294   0.719   3.928 -0.9974  0.3469  0.5478
 5947TIP3    H239257   1.356   0.782   4.051  0.8475  1.0517 -0.6966
 5948TIP3   OH239258   5.111   2.938  16.956  0.6440 -0.1673  0.5824
 5948TIP3    H139259   5.076   3.022  16.925  1.1633  0.1310  0.8078
 5948TIP3    H239260   5.125   2.950  17.049  1.1833 -0.3440  0.5276
 5949TIP3   OH239261   3.596   1.302  15.358  0.1687  0.0428  0.6019
 5949TIP3    H139262   3.594   1.285  15.264 -0.7966 -1.5970  0.8804
 5949TIP3    H239263   3.524   1.363  15.373  0.0095 -0.0822  0.3445
 5950TIP3   OH239264   0.500   3.377  11.143 -0.1434  0.0656 -0.3516
 5950TIP3    H139265   0.555   3.455  11.151 -1.8582  1.5844 -2.2597
 5950TIP3    H239266   0.448   3.392  11.064  0.6252 -3.8097 -1.7944
 5951TIP3   OH239267   5.263   1.748  15.592  0.4249 -0.4480  0.1102
 5951TIP3    H139268   5.253   1.653  15.595 -0.3141 -0.3657  0.7378
 5951TIP3    H239269   5.308   1.765  15.509  1.2437 -1.3889  0.3449
 5952TIP3   OH239270   5.727   5.476  13.615 -0.3590 -0.1784 -0.0738
 5952TIP3    H139271   5.788   5.403  13.627  0.8990  0.8401 -0.0196
 5952TIP3    H239272   5.782   5.549  13.589 -1.8440  0.2376 -2.3028
 5953TIP3   OH239273   5.366   1.536  16.734 -0.3536  0.1631  0.2571
 5953TIP3    H139274   5.447   1.536  16.683  0.9984  1.9981  2.2170
 5953TIP3    H239275   5.300   1.571  16.675  0.9379  1.3193 -0.5584
 5954TIP3   OH239276   2.276   0.200   1.155 -0.2560 -0.3401  0.3788
 5954TIP3    H139277   2.279   0.257   1.231  0.4663  0.0843  0.0438
 5954TIP3    H239278   2.212   0.241   1.097  0.4769  0.3211  0.0085
 5955TIP3   OH239279   3.307   1.737   4.699 -0.4931 -0.3089  0.2602
 5955TIP3    H139280   3.354   1.675   4.754  0.0547  0.3875  0.5832
 5955TIP3    H239281   3.287   1.810   4.757 -1.9739 -0.5782  0.1324
 5956TIP3   OH239282   3.026   0.200  12.104  0.3822  0.0236  0.0352
 5956TIP3    H139283   2.934   0.195  12.076  0.5499  2.2078 -1.0626
 5956TIP3    H239284   3.027   0.157  12.189 -1.5899 -0.3612 -0.0821
 5957TIP3   OH239285   1.818   5.130   6.487 -0.2922 -0.2968 -0.4115
 5957TIP3    H139286   1.796   5.216   6.521  1.0360  0.1409 -0.5760
 5957TIP3    H239287   1.860   5.148   6.402 -2.9202 -1.3007 -2.0420
 5958TIP3   OH239288   4.899   3.295  12.841  0.2290 -0.5104  0.0207
 5958TIP3    H139289   4.815   3.333  12.815  1.1325  2.0216  0.5187
 5958TIP3    H239290   4.909   3.320  12.933  2.4852  1.2105 -0.6155
 5959TIP3   OH239291   4.207   3.006   0.118  0.3744  1.1287 -0.5843
 5959TIP3    H139292   4.142   2.944   0.151  1.9356  0.3857  1.2987
 5959TIP3    H239293   4.210   2.990   0.024 -0.2105 -0.7584 -0.3262
 5960TIP3   OH239294   0.482   3.170  14.109 -0.3624  0.2851  0.3354
 5960TIP3    H139295   0.534   3.248  14.089  0.0468 -0.3809 -1.3980
 5960TIP3    H239296   0.428   3.156  14.031  0.9297 -2.1763 -0.2317
 5961TIP3   OH239297   2.453   3.991   0.792  0.0564 -0.2684  0.2625
 5961TIP3    H139298   2.535   4.021   0.830  1.1487 -0.2889 -1.9614
 5961TIP3    H239299   2.421   3.924   0.853  2.3761 -1.2204  0.5314
 5962TIP3   OH239300   3.050   6.108  14.687  0.1204  0.1828 -0.0208
 5962TIP3    H139301   3.079   6.137  14.773  2.1515 -1.5093 -0.0446
 5962TIP3    H239302   2.956   6.098  14.696  0.1512  1.0305  1.6816
 5963TIP3   OH239303   4.765   0.130   1.529  0.1090 -0.0372  0.2345
 5963TIP3    H139304   4.718   0.047   1.531 -0.1738 -0.0251 -2.4648
 5963TIP3    H239305   4.858   0.106   1.530  0.1834 -0.1222  3.7868
 5964TIP3   OH239306   4.006   5.767   3.501 -0.3634 -0.2572  0.5332
 5964TIP3    H139307   4.066   5.808   3.438 -0.7743  0.7063  0.7384
 5964TIP3    H239308   3.923   5.813   3.487 -1.2866 -2.0565 -0.2547
 5965TIP3   OH239309   5.135   2.553  17.177 -0.5653 -0.3857  0.5209
 5965TIP3    H139310   5.231   2.559  17.178 -0.6433  1.6381  0.2290
 5965TIP3    H239311   5.115   2.481  17.237  1.1467 -1.4493 -0.1006
 5966TIP3   OH239312   4.812   3.911   1.013  0.4736 -0.7315  0.1760
 5966TIP3    H139313   4.888   3.880   1.062  0.4323  0.5669  1.1056
 5966TIP3    H239314   4.793   3.997   1.050  0.6258  0.4637 -2.3189
 5967TIP3   OH239315   6.595   5.380  13.637 -0.5287  0.1132 -0.1543
 5967TIP3    H139316   6.522   5.318  13.633 -0.1411 -0.5065  1.5977
 5967TIP3    H239317   6.562   5.459  13.594 -2.1200 -0.2645  0.2978
 5968TIP3   OH239318   2.166   1.914  14.444 -0.3333 -0.2671 -0.2021
 5968TIP3    H139319   2.130   1.999  14.472 -1.8694 -1.0562  0.3275
 5968TIP3    H239320   2.092   1.854  14.451  0.6503 -1.5878 -0.9112
 5969TIP3   OH239321   2.453   1.768  12.724  0.6161  0.6686  0.2036
 5969TIP3    H139322   2.534   1.778  12.774  1.0773  0.9451 -0.5796
 5969TIP3    H239323   2.409   1.853  12.733 -0.1600  0.1451  1.5840
 5970TIP3   OH239324   5.475   1.089  16.773  0.1150 -0.3197  0.1123
 5970TIP3    H139325   5.559   1.131  16.755 -0.7081  1.3261 -0.0785
 5970TIP3    H239326   5.478   1.007  16.723  2.6717 -1.7044  2.2629
 5971TIP3   OH239327   3.723   3.180  13.932  0.0471 -0.1005 -0.5864
 5971TIP3    H139328   3.762   3.256  13.975  2.0182 -1.5973  0.4170
 5971TIP3    H239329   3.641   3.165  13.979  0.9537 -0.1840  1.0245
 5972TIP3   OH239330   1.443   4.438   5.531  0.3056 -0.8528 -0.3465
 5972TIP3    H139331   1.457   4.485   5.613 -1.2610  0.2486 -0.6586
 5972TIP3    H239332   1.447   4.506   5.464  0.2790 -1.5372 -1.0551
 5973TIP3   OH239333   1.304   1.530   0.852  0.3015  0.0350 -0.6873
 5973TIP3    H139334   1.318   1.597   0.918 -0.4781  0.0023 -0.4799
 5973TIP3    H239335   1.337   1.449   0.892 -3.0959 -0.6520  1.0375
 5974TIP3   OH239336   0.397   2.722   0.013  0.4487  0.1370  0.0267
 5974TIP3    H139337   0.491   2.726   0.030  0.1437  0.8905  1.7444
 5974TIP3    H239338   0.359   2.789   0.070 -1.0953  0.2069 -1.0185
 5975TIP3   OH239339   1.399   2.669   3.872  0.2667  0.2989 -0.0373
 5975TIP3    H139340   1.313   2.631   3.888 -0.0723  0.2696 -1.6982
 5975TIP3    H239341   1.384   2.764   3.873  0.0700  0.2852 -0.9564
 5976TIP3   OH239342   5.937   5.766   3.416  0.6264  0.7343  0.3014
 5976TIP3    H139343   5.913   5.705   3.346  0.1651 -2.1137  2.7147
 5976TIP3    H239344   6.026   5.739   3.440  1.1036  2.2359  0.3230
 5977TIP3   OH239345   0.181   2.643   0.996  0.8469 -0.4412  0.2092
 5977TIP3    H139346   0.199   2.726   1.040  1.4201 -1.7483  2.6261
 5977TIP3    H239347   0.088   2.646   0.976  1.0046  1.0502 -0.3985
 5978TIP3   OH239348   3.726   6.123   5.180 -0.6785 -0.2677  0.1397
 5978TIP3    H139349   3.723   6.086   5.268 -1.2850 -0.9896 -0.1695
 5978TIP3    H239350   3.636   6.117   5.148 -0.0757 -2.2967 -1.4280
 5979TIP3   OH239351   1.236   4.713   0.913  0.0470 -0.1680 -0.1980
 5979TIP3    H139352   1.232   4.773   0.988  0.9518 -0.9004  0.4627
 5979TIP3    H239353   1.144   4.691   0.895 -0.2270  0.6292  0.1874
 5980TIP3   OH239354   0.614   6.745  12.903 -0.3806 -0.3649 -0.2019
 5980TIP3    H139355   0.631   6.782  12.990  0.1651  1.1714 -0.9216
 5980TIP3    H239356   0.519   6.751  12.893 -0.3396  0.5102 -0.1427
 5981TIP3   OH239357   0.996   3.172   1.949  0.0519 -0.1254 -0.6313
 5981TIP3    H139358   1.013   3.252   1.999 -0.5581 -0.7856  0.7004
 5981TIP3    H239359   0.902   3.173   1.932 -0.1589 -1.0358  0.3280
 5982TIP3   OH239360   6.214   5.601   4.213  0.0742 -0.3805  0.0183
 5982TIP3    H139361   6.284   5.580   4.274  2.0664  0.5077 -1.8125
 5982TIP3    H239362   6.213   5.527   4.151  1.2196  0.7753 -1.4484
 5983TIP3   OH239363   6.307   5.524  14.100  0.1106  0.3495  0.2535
 5983TIP3    H139364   6.316   5.511  14.194  0.7856  0.4168  0.2041
 5983TIP3    H239365   6.344   5.445  14.061 -0.4964  0.1609  0.0449
 5984TIP3   OH239366   0.005   5.552  11.990 -0.3438  0.3428 -0.6934
 5984TIP3    H139367   0.067   5.486  12.023 -0.0205  0.5183 -0.9357
 5984TIP3    H239368  -0.035   5.589  12.068  0.0797  0.4326 -0.5145
 5985TIP3   OH239369   1.705   4.625   0.595  0.1752 -0.4529 -0.4659
 5985TIP3    H139370   1.718   4.535   0.567  0.4573 -1.7405  3.3367
 5985TIP3    H239371   1.793   4.663   0.598 -0.0225  0.4458 -3.1241
 5986TIP3   OH239372   5.696   2.426  14.735  0.7932 -0.4562  0.1756
 5986TIP3    H139373   5.699   2.520  14.752  3.6085 -0.7019  1.5598
 5986TIP3    H239374   5.612   2.398  14.771  1.0474  1.1644  2.2151
 5987TIP3   OH239375   0.275   1.229  15.033  0.2550 -0.1486  0.3151
 5987TIP3    H139376   0.212   1.162  15.005  1.7126 -1.3169 -0.3260
 5987TIP3    H239377   0.343   1.179  15.078  1.1972  0.9801  0.1640
 5988TIP3   OH239378   5.328   4.671  15.838 -0.4091  0.1662  0.2344
 5988TIP3    H139379   5.267   4.645  15.907 -0.1359 -3.7697 -0.8017
 5988TIP3    H239380   5.406   4.619  15.853  0.8585  1.4866 -1.3220
 5989TIP3   OH239381   0.378   1.159   0.675  0.2044 -0.2156 -0.6411
 5989TIP3    H139382   0.446   1.216   0.639  1.2554 -0.7280  0.4736
 5989TIP3    H239383   0.368   1.187   0.766 -1.5750  0.2731 -0.9338
 5990TIP3   OH239384   0.564   2.340  13.176 -0.3882  0.0526 -0.3122
 5990TIP3    H139385   0.550   2.398  13.101  1.3465 -1.1584 -1.6472
 5990TIP3    H239386   0.554   2.252  13.140 -0.9640 -0.5485  1.2344
 5991TIP3   OH239387   6.675   3.019  16.240 -0.1988 -0.1493  0.4200
 5991TIP3    H139388   6.584   3.004  16.266 -0.2631 -0.9422 -0.1995
 5991TIP3    H239389   6.670   3.086  16.173 -0.3278 -0.1737  0.4045
 5992TIP3   OH239390   3.528   5.530   1.551 -0.0425 -0.1092 -0.1551
 5992TIP3    H139391   3.564   5.453   1.596 -0.7828 -0.9446 -0.9708
 5992TIP3    H239392   3.511   5.500   1.462 -0.6642  0.9077 -0.3920
 5993TIP3   OH239393   0.740   1.535  11.410  0.0767 -0.0301 -0.6077
 5993TIP3    H139394   0.819   1.589  11.403  0.1620 -0.3143 -2.5780
 5993TIP3    H239395   0.671   1.589  11.371 -1.3095  1.1178  3.0211
 5994TIP3   OH239396   6.456   4.923  16.665  0.0931  0.3664  0.4726
 5994TIP3    H139397   6.506   4.957  16.591  1.4912 -0.8390  0.8198
 5994TIP3    H239398   6.458   4.993  16.730  0.7956  0.5846  0.2267
 5995TIP3   OH239399   5.360   3.155   3.420 -0.0221  0.1111 -0.2248
 5995TIP3    H139400   5.361   3.082   3.482 -0.1954 -0.0394 -0.3961
 5995TIP3    H239401   5.293   3.131   3.356  0.6104 -0.0511 -0.8459
 5996TIP3   OH239402   5.036   1.483   0.109 -0.7272  0.2992  0.2262
 5996TIP3    H139403   5.095   1.427   0.160 -0.7507  0.5706  0.5523
 5996TIP3    H239404   5.092   1.554   0.078 -0.5191 -0.3046 -0.8474
 5997TIP3   OH239405   0.927   5.778   1.349  0.1314 -0.1398  0.5703
 5997TIP3    H139406   0.989   5.777   1.422 -0.9249  0.6776  1.5180
 5997TIP3    H239407   0.964   5.841   1.287  1.7951 -1.9094 -0.3511
 5998TIP3   OH239408   6.568   5.684  11.662 -0.1017 -0.3362  0.0081
 5998TIP3    H139409   6.556   5.734  11.581 -1.7041  1.4615  1.2925
 5998TIP3    H239410   6.507   5.611  11.654 -1.0488  0.4394  0.0456
 5999TIP3   OH239411   1.862   2.816   0.493  0.1234 -0.0114  0.1074
 5999TIP3    H139412   1.889   2.726   0.480  0.6620  0.2840 -0.9153
 5999TIP3    H239413   1.818   2.816   0.578  0.5764 -1.1223  0.3557
 6000TIP3   OH239414   2.648   3.019   1.071  0.7745 -0.5297 -0.0428
 6000TIP3    H139415   2.718   3.083   1.084  0.3629 -0.2545  0.8822
 6000TIP3    H239416   2.688   2.935   1.096  0.4410 -0.2090  1.7410
 6001TIP3   OH239417   3.575   0.348  12.209 -0.1280  0.1081  0.0255
 6001TIP3    H139418   3.547   0.407  12.139 -0.6890  1.3523  1.2324
 6001TIP3    H239419   3.635   0.287  12.167  0.9097  1.8707 -1.2000
 6002TIP3   OH239420   2.951   4.247  12.199  0.0872 -0.0448  0.0020
 6002TIP3    H139421   2.956   4.160  12.239  3.0685 -0.5115 -1.1613
 6002TIP3    H239422   2.976   4.307  12.270 -0.9902 -0.2051  0.5358
 6003TIP3   OH239423   0.193   3.802  16.699 -0.6080  0.3298 -0.3339
 6003TIP3    H139424   0.203   3.712  16.730  0.7895 -0.5321 -2.9645
 6003TIP3    H239425   0.099   3.818  16.700 -0.8374 -1.0082  0.5939
 6004TIP3   OH239426   4.681   0.099   3.269 -0.5675  0.0191  0.3923
 6004TIP3    H139427   4.696   0.091   3.175 -0.9986 -1.4904  0.4270
 6004TIP3    H239428   4.764   0.071   3.309 -0.4637  0.4292  0.4663
 6005TIP3   OH239429   1.472   2.488  14.298  0.0081 -0.2399 -0.5631
 6005TIP3    H139430   1.520   2.493  14.215  1.0204 -0.3092  0.0130
 6005TIP3    H239431   1.506   2.561  14.350 -0.9254  0.0656 -0.3536
 6006TIP3   OH239432   6.083   6.612   4.151 -0.1602  0.9977 -0.2582
 6006TIP3    H139433   6.009   6.649   4.104 -0.5217  0.3006 -0.2535
 6006TIP3    H239434   6.057   6.522   4.171  1.9502 -0.4285 -3.1526
 6007TIP3   OH239435   3.421   5.658   6.883  0.5684  0.5898  0.2961
 6007TIP3    H139436   3.506   5.635   6.847  1.3765  0.6841  2.0267
 6007TIP3    H239437   3.363   5.586   6.858  0.9746  0.8391 -1.4384
 6008TIP3   OH239438   2.222   1.844   0.328 -0.0426 -0.4383 -0.4426
 6008TIP3    H139439   2.271   1.824   0.408  0.8047 -0.9463 -1.0774
 6008TIP3    H239440   2.172   1.765   0.310  1.4222 -1.1317 -1.5932
 6009TIP3   OH239441   0.706   2.355  15.145 -0.1902 -0.1904 -0.1294
 6009TIP3    H139442   0.663   2.425  15.095 -0.5931  0.9348  1.7165
 6009TIP3    H239443   0.649   2.279  15.135 -1.8114  0.8462  1.0102
 6010TIP3   OH239444   5.716   5.876   3.969 -0.3039  0.2249 -0.0009
 6010TIP3    H139445   5.627   5.899   3.944 -1.2348 -1.8130  1.1499
 6010TIP3    H239446   5.709   5.787   4.005  1.9810  0.4667  1.2763
 6011TIP3   OH239447   1.121   4.900   4.263 -0.0533 -0.1771  0.2960
 6011TIP3    H139448   1.034   4.912   4.225 -0.0851 -1.8969 -0.3058
 6011TIP3    H239449   1.173   4.864   4.191  1.3030  1.2215  0.5217
 6012TIP3   OH239450   6.670   5.660   0.538 -0.9649 -0.1377  0.3238
 6012TIP3    H139451   6.673   5.659   0.633  1.2312  0.4852  0.3227
 6012TIP3    H239452   6.649   5.750   0.515 -1.8057 -0.3556  0.1892
 6013TIP3   OH239453   0.213   6.312   2.952 -0.2318  0.0196 -0.3880
 6013TIP3    H139454   0.210   6.386   2.892 -2.9362  1.9184  1.8381
 6013TIP3    H239455   0.296   6.323   2.999 -0.0948  1.0115 -0.8357
 6014TIP3   OH239456   5.800   1.594   1.201  0.3077 -0.1416 -0.3119
 6014TIP3    H139457   5.830   1.548   1.122 -0.1366 -0.8460 -0.0819
 6014TIP3    H239458   5.868   1.574   1.266  0.4911  0.1419 -0.4153
 6015TIP3   OH239459   0.895   0.091   0.466  0.0696  0.3611 -0.6944
 6015TIP3    H139460   0.976   0.073   0.418  0.4907  4.0182 -1.6231
 6015TIP3    H239461   0.892   0.023   0.534  3.8158 -0.0350 -0.7230
 6016TIP3   OH239462   4.914   2.588  14.236  0.8263 -0.3731  0.4764
 6016TIP3    H139463   4.855   2.515  14.216  0.2588  0.4095 -0.9131
 6016TIP3    H239464   4.935   2.578  14.328 -0.1122 -1.6682  0.5752
 6017TIP3   OH239465   2.982   2.801  15.334 -0.2863 -0.1666  0.0128
 6017TIP3    H139466   3.043   2.804  15.408 -0.9353  0.0203  0.5562
 6017TIP3    H239467   2.902   2.840  15.368 -0.7640 -0.5634 -0.6328
 6018TIP3   OH239468   2.957   4.583  10.982 -0.0545 -0.2349 -0.1290
 6018TIP3    H139469   2.992   4.533  11.056 -0.2730 -0.7797 -0.3839
 6018TIP3    H239470   2.971   4.526  10.906  0.2060  0.3369 -0.5162
 6019TIP3   OH239471   0.707   5.406   5.026  0.1799 -0.3944  0.2422
 6019TIP3    H139472   0.639   5.375   4.966 -0.4166  0.7302  0.3155
 6019TIP3    H239473   0.788   5.372   4.990 -0.1379  0.4568 -1.3408
 6020TIP3   OH239474   6.506   0.537   3.181 -0.3921  0.0190  0.0781
 6020TIP3    H139475   6.542   0.531   3.269 -0.8544 -0.0124  0.2701
 6020TIP3    H239476   6.551   0.468   3.132 -0.6957 -0.4851  0.4939
 6021TIP3   OH239477   6.253   5.850   4.514 -1.1968  0.5728  0.0827
 6021TIP3    H139478   6.234   5.905   4.591 -0.3957  1.0474 -0.0552
 6021TIP3    H239479   6.307   5.779   4.548  1.1136  2.0061 -0.3948
 6022TIP3   OH239480   5.993   4.748  15.054 -0.5247 -0.2280  0.1210
 6022TIP3    H139481   5.942   4.698  14.990  0.2415  0.4273 -1.0352
 6022TIP3    H239482   6.084   4.730  15.031 -0.2262  1.5586 -0.2319
 6023TIP3   OH239483   3.844   4.564  13.591  0.1364 -0.0012 -0.6939
 6023TIP3    H139484   3.836   4.594  13.500  2.0776 -0.5071 -1.0889
 6023TIP3    H239485   3.934   4.587  13.615  0.0918 -1.1159  0.6390
 6024TIP3   OH239486   0.694   6.002   2.917  0.0590  0.0834  0.2810
 6024TIP3    H139487   0.610   5.973   2.882  0.8063 -3.9214  1.2136
 6024TIP3    H239488   0.731   6.057   2.848 -2.2002 -0.2220 -1.2776
 6025TIP3   OH239489   2.253   1.024  16.150 -0.0745 -0.0272 -0.4860
 6025TIP3    H139490   2.257   0.929  16.137 -0.2489  0.0979 -1.5035
 6025TIP3    H239491   2.317   1.059  16.088  0.2281  0.5028  0.1189
 6026TIP3   OH239492   3.536   3.069   6.389  0.2182 -0.3662  0.3091
 6026TIP3    H139493   3.565   3.050   6.478 -0.5202  0.1639  0.6742
 6026TIP3    H239494   3.617   3.077   6.339  0.6574 -0.2990  1.0148
 6027TIP3   OH239495   4.103   5.130   6.161 -0.2498 -0.4013 -0.3836
 6027TIP3    H139496   4.159   5.097   6.231  0.7787 -0.7401 -1.3380
 6027TIP3    H239497   4.058   5.052   6.127 -0.0032 -0.3945 -0.7356
 6028TIP3   OH239498   4.294   1.753   4.367 -0.8175  0.1928 -0.5405
 6028TIP3    H139499   4.225   1.814   4.394 -0.4496  0.1490  0.5378
 6028TIP3    H239500   4.254   1.667   4.377 -0.9020  0.1976 -0.8119
 6029TIP3   OH239501   4.589   1.168  11.263  0.1052  0.2231  0.0485
 6029TIP3    H139502   4.627   1.082  11.246  3.1026  1.5114 -0.5352
 6029TIP3    H239503   4.543   1.191  11.183  3.4741  1.0448 -1.8679
 6030TIP3   OH239504   1.667   2.923   5.139 -0.3536  0.2577  0.3167
 6030TIP3    H139505   1.625   2.930   5.225  0.1963 -2.0353  0.8420
 6030TIP3    H239506   1.684   2.829   5.128 -0.3030  0.4998 -2.2658
 6031TIP3   OH239507   6.433   0.034   4.441 -0.1169  0.6078 -0.0104
 6031TIP3    H139508   6.363   0.010   4.379 -1.5458 -2.3788  2.4754
 6031TIP3    H239509   6.421   0.127   4.456 -2.7348  0.4673 -0.7154
 6032TIP3   OH239510   6.229   1.737   2.884  0.4664 -0.2911 -0.2626
 6032TIP3    H139511   6.304   1.681   2.902  1.2102  0.2106 -1.6387
 6032TIP3    H239512   6.243   1.815   2.937  2.0428  0.6969 -2.0148
 6033TIP3   OH239513   2.523   3.349   4.025 -0.0050 -0.3892 -0.1169
 6033TIP3    H139514   2.601   3.349   3.969 -1.2176 -1.4708 -1.9060
 6033TIP3    H239515   2.482   3.434   4.008 -1.0254 -1.2032 -1.8984
 6034TIP3   OH239516   1.046   4.099  12.033  0.0668 -0.2755 -0.1270
 6034TIP3    H139517   1.002   4.118  11.950  0.1769 -2.1303 -0.6532
 6034TIP3    H239518   1.139   4.098  12.012  0.1020 -0.6688  0.0340
 6035TIP3   OH239519   3.793   2.964   6.328  0.0059 -0.3874  0.4071
 6035TIP3    H139520   3.867   2.904   6.320  0.6260  0.2511  1.2125
 6035TIP3    H239521   3.825   3.047   6.292 -0.1828  0.0041  1.1276
 6036TIP3   OH239522   0.815   1.964  11.827 -0.2370 -0.2997  0.4088
 6036TIP3    H139523   0.839   1.875  11.853  0.3994 -0.3432 -0.2849
 6036TIP3    H239524   0.723   1.959  11.804  0.1905 -1.1893 -1.2887
 6037TIP3   OH239525   0.490   3.043  14.943  0.4093  0.0312 -0.4085
 6037TIP3    H139526   0.442   3.126  14.943  0.9567  0.4788 -3.3942
 6037TIP3    H239527   0.431   2.982  14.897 -0.2090 -1.4676  2.1908
 6038TIP3   OH239528   2.167   1.835   5.894  0.3206 -0.4599  0.6785
 6038TIP3    H139529   2.220   1.770   5.848  0.4974  0.3456 -0.2963
 6038TIP3    H239530   2.194   1.827   5.985  1.1032 -1.0364  0.4127
 6039TIP3   OH239531   3.717   1.268  12.636 -0.3120  0.1281 -0.1257
 6039TIP3    H139532   3.758   1.228  12.560 -0.0428  0.7729 -0.3230
 6039TIP3    H239533   3.636   1.218  12.649  0.0409 -0.5015 -0.3423
 6040TIP3   OH239534   5.085   2.667   3.920 -0.0693 -0.0849  0.1618
 6040TIP3    H139535   5.091   2.763   3.925  0.9938 -0.1690  0.9446
 6040TIP3    H239536   5.020   2.644   3.986  1.7195 -0.0518  2.0307
 6041TIP3   OH239537   3.688   4.805   4.329  0.3626  0.3387  0.3349
 6041TIP3    H139538   3.652   4.729   4.284  2.0224 -1.5735  1.9836
 6041TIP3    H239539   3.768   4.826   4.280  3.0364 -2.7231  2.8802
 6042TIP3   OH239540   5.434   6.069   1.567  0.0719  0.2920  0.1956
 6042TIP3    H139541   5.504   6.110   1.516  0.3521 -1.4462 -0.8930
 6042TIP3    H239542   5.453   6.092   1.658  0.2787  2.4236 -0.3311
 6043TIP3   OH239543   3.262   5.894  12.234  0.0810 -0.1137 -0.1105
 6043TIP3    H139544   3.347   5.875  12.273 -0.6101 -1.9281  0.6149
 6043TIP3    H239545   3.283   5.944  12.155  1.7628  0.0507  0.3917
 6044TIP3   OH239546   4.893   1.335  17.313 -0.1486 -0.2702  0.1023
 6044TIP3    H139547   4.955   1.355  17.243  0.8978  0.4108  1.1847
 6044TIP3    H239548   4.916   1.396  17.383 -0.0509 -2.0758  1.6903
 6045TIP3   OH239549   1.972   5.256  15.311  0.1509 -0.3604  0.3628
 6045TIP3    H139550   1.963   5.164  15.335 -0.5422  0.2922  2.9927
 6045TIP3    H239551   2.061   5.279  15.340  0.5691 -0.3213 -0.8890
 6046TIP3   OH239552   4.470   2.117   3.805  0.4208 -0.0061 -0.1950
 6046TIP3    H139553   4.499   2.104   3.715 -0.5287 -0.5582 -0.4338
 6046TIP3    H239554   4.394   2.174   3.797 -0.6744 -1.3777  0.0913
 6047TIP3   OH239555   5.459   4.867  15.401  0.1143  0.4174  0.6952
 6047TIP3    H139556   5.388   4.813  15.434 -0.5626  0.2580 -0.9053
 6047TIP3    H239557   5.487   4.823  15.320 -0.1275  2.1489 -0.3944
 6048TIP3   OH239558   3.408   6.312   5.639  0.0469  0.3870  0.4597
 6048TIP3    H139559   3.400   6.235   5.695  0.6391  0.5026  0.7115
 6048TIP3    H239560   3.359   6.290   5.560 -0.0026 -0.1490  0.6384
 6049TIP3   OH239561   4.819   6.177  16.378  0.5340 -0.4169 -0.1030
 6049TIP3    H139562   4.880   6.229  16.327  0.2664  1.3601  1.3195
 6049TIP3    H239563   4.762   6.241  16.421 -1.6600 -1.9652 -0.5226
 6050TIP3   OH239564   5.957   0.096  13.030  0.6130 -0.0032  0.6677
 6050TIP3    H139565   5.898   0.111  13.104 -0.6910 -1.2253 -0.0843
 6050TIP3    H239566   5.900   0.091  12.954  1.9022  0.8116 -0.3828
 6051TIP3   OH239567   2.873   6.701   2.030  0.1894 -0.1399 -0.0635
 6051TIP3    H139568   2.860   6.617   2.073 -2.4688 -0.1700 -0.7412
 6051TIP3    H239569   2.956   6.692   1.984  0.6424 -1.8671  1.0139
 6052TIP3   OH239570   2.066   5.966   3.265  0.6432 -0.7741 -0.3356
 6052TIP3    H139571   2.047   5.909   3.191 -0.2908 -0.5600 -0.2684
 6052TIP3    H239572   1.985   6.014   3.281  1.1371 -0.0770  0.1817
 6053TIP3   OH239573   3.710   2.999   0.852  0.2886 -0.3071  0.5097
 6053TIP3    H139574   3.703   3.094   0.850 -0.0988 -0.3373 -1.3404
 6053TIP3    H239575   3.663   2.973   0.932 -0.4052  0.9815  0.5380
 6054TIP3   OH239576   6.406   4.897   5.444 -0.4091 -0.1896 -0.1002
 6054TIP3    H139577   6.480   4.867   5.392  0.1798 -0.7072  1.0032
 6054TIP3    H239578   6.362   4.817   5.473  0.6722 -0.0446  2.1506
 6055TIP3   OH239579   5.997   5.347  15.498 -0.5443  0.0962 -0.1871
 6055TIP3    H139580   6.009   5.316  15.588 -1.7662 -0.7213 -0.2822
 6055TIP3    H239581   5.939   5.282  15.459 -0.7251  0.9217 -1.3134
 6056TIP3   OH239582   3.923   6.068  16.072  0.0792  0.1099  0.0542
 6056TIP3    H139583   3.920   6.163  16.086  0.1570  0.0802  0.2654
 6056TIP3    H239584   4.010   6.042  16.100 -0.0308 -0.0640  0.2377
 6057TIP3   OH239585   4.078   4.623  12.170  0.2730  0.7652 -0.0660
 6057TIP3    H139586   4.142   4.552  12.175 -0.3801  0.1368 -0.4410
 6057TIP3    H239587   3.996   4.583  12.199 -0.9877  0.2356 -3.8276
 6058TIP3   OH239588   6.337   4.164   3.554  0.2291 -0.8214 -0.1477
 6058TIP3    H139589   6.410   4.178   3.613  0.2097 -1.8551  0.1449
 6058TIP3    H239590   6.279   4.104   3.601  1.0185 -3.0373 -1.8228
 6059TIP3   OH239591   3.385   6.116   5.434  0.4622  0.1192 -0.1352
 6059TIP3    H139592   3.403   6.102   5.341  0.7885  0.2869 -0.0978
 6059TIP3    H239593   3.342   6.036   5.462  1.7320 -0.5568 -0.0718
 6060TIP3   OH239594   3.469   4.338  14.749 -0.1632 -0.2519  0.1408
 6060TIP3    H139595   3.416   4.259  14.759  1.1414 -0.9542  2.0814
 6060TIP3    H239596   3.505   4.332  14.661 -0.1482 -1.7973  0.2256
 6061TIP3   OH239597   2.238   6.667   0.204  0.1878 -0.2338  0.2316
 6061TIP3    H139598   2.255   6.668   0.110 -0.0133  0.9793  0.1953
 6061TIP3    H239599   2.310   6.717   0.242 -0.6512  0.7588  0.5473
 6062TIP3   OH239600   0.575   2.761   4.035 -0.3128 -0.3330  0.2138
 6062TIP3    H139601   0.482   2.775   4.053 -0.2145 -0.5491  0.9330
 6062TIP3    H239602   0.581   2.761   3.940 -1.4136 -2.5064  0.0747
 6063TIP3   OH239603   6.449   2.682   1.059 -0.1058  0.8912  0.4777
 6063TIP3    H139604   6.461   2.663   1.152 -2.4658 -0.2152  0.6219
 6063TIP3    H239605   6.432   2.776   1.056  3.2158  1.5931  0.7285
 6064TIP3   OH239606   4.741   1.513  14.161 -0.0100  0.1654  0.0231
 6064TIP3    H139607   4.735   1.606  14.182 -0.5234  0.0932  0.2072
 6064TIP3    H239608   4.651   1.488  14.138  0.3650  0.0554 -1.4482
 6065TIP3   OH239609   2.881   4.618   3.459 -0.0691 -0.3917 -0.0458
 6065TIP3    H139610   2.844   4.692   3.410 -1.7051 -0.4431  1.0545
 6065TIP3    H239611   2.947   4.658   3.516  1.9113 -0.3370 -2.2157
 6066TIP3   OH239612   5.882   0.913   1.554  0.1322 -0.3212  0.0427
 6066TIP3    H139613   5.910   0.860   1.628  0.8654  1.4190  1.0844
 6066TIP3    H239614   5.789   0.929   1.569  0.5080  0.9038  1.1982
 6067TIP3   OH239615   6.680   5.224  15.565  0.3556  0.3372  0.0092
 6067TIP3    H139616   6.676   5.128  15.568 -0.0790  0.3625  2.0001
 6067TIP3    H239617   6.643   5.247  15.480 -1.9169 -1.1994  0.4717
 6068TIP3   OH239618   6.278   5.632  14.907 -0.1693 -0.0274  0.3331
 6068TIP3    H139619   6.302   5.686  14.832 -1.0801  0.9566  0.7335
 6068TIP3    H239620   6.213   5.571  14.872 -0.2787  0.1506  0.2248
 6069TIP3   OH239621   3.903   6.627   5.449  0.7702 -0.2308  0.4334
 6069TIP3    H139622   3.927   6.686   5.378 -0.4259 -0.7698 -0.4606
 6069TIP3    H239623   3.841   6.566   5.409 -0.9149  0.2129  2.2323
 6070TIP3   OH239624   0.891   2.340  13.964  0.5123  0.1402  0.7947
 6070TIP3    H139625   0.816   2.348  13.905  0.2047 -2.2541  0.7946
 6070TIP3    H239626   0.964   2.319  13.906  0.7104  0.2050  1.0223
 6071TIP3   OH239627   5.009   5.780   1.854  0.1118  0.0577  0.1727
 6071TIP3    H139628   4.966   5.861   1.825 -0.2119  0.4304  1.6174
 6071TIP3    H239629   5.080   5.809   1.911  1.0910 -0.6362 -0.6696
 6072TIP3   OH239630   0.663   5.339  13.276  0.1065  0.1185  0.0489
 6072TIP3    H139631   0.731   5.396  13.241  0.1625  0.2085  0.3023
 6072TIP3    H239632   0.650   5.370  13.366 -0.9547  0.7419 -0.2975
 6073TIP3   OH239633   1.364   2.218  13.817 -0.1535  0.4884  0.6152
 6073TIP3    H139634   1.284   2.270  13.803 -0.1422  0.7796  1.5643
 6073TIP3    H239635   1.360   2.194  13.909  0.3719 -0.3296  0.4278
 6074TIP3   OH239636   3.971   4.548   2.421  0.5182  0.1298  0.3545
 6074TIP3    H139637   4.001   4.477   2.477 -1.3891 -0.0718  1.2101
 6074TIP3    H239638   3.927   4.505   2.348  0.9813  0.4297 -0.1097
 6075TIP3   OH239639   5.877   1.274   0.279 -0.2036 -0.0302 -0.0441
 6075TIP3    H139640   5.868   1.194   0.227 -0.4350  0.2719 -0.4700
 6075TIP3    H239641   5.926   1.334   0.223  0.8725 -0.2123  0.6611
 6076TIP3   OH239642   2.978   4.367  14.362 -0.0112 -0.4957  0.3002
 6076TIP3    H139643   2.982   4.396  14.454  0.4597 -0.6818  0.3398
 6076TIP3    H239644   3.069   4.350  14.339 -0.1953 -1.0451 -0.0151
 6077TIP3   OH239645   3.460   3.428  11.826 -0.3249 -0.0492  0.1950
 6077TIP3    H139646   3.444   3.355  11.766  2.1237 -1.2774  0.9036
 6077TIP3    H239647   3.509   3.492  11.773  0.6484 -0.5304  0.4995
 6078TIP3   OH239648   0.307   5.575   3.559  0.3300  0.0404 -0.2402
 6078TIP3    H139649   0.265   5.511   3.502  0.3156 -1.1440  1.0439
 6078TIP3    H239650   0.242   5.646   3.567 -1.4516 -1.6497  1.5187
 6079TIP3   OH239651   5.882   4.618  12.901  0.0558 -0.0433  0.4390
 6079TIP3    H139652   5.888   4.705  12.941 -0.8630  0.7804 -1.1133
 6079TIP3    H239653   5.964   4.576  12.923 -0.5678  0.1609  3.5558
 6080TIP3   OH239654   5.456   1.682  15.074 -0.0133  0.5153  0.1327
 6080TIP3    H139655   5.526   1.623  15.103  0.6166  1.8592  1.5162
 6080TIP3    H239656   5.381   1.625  15.060  1.2089 -0.9233 -0.9795
 6081TIP3   OH239657   4.058   4.104   6.615 -0.2141 -0.8595 -0.1111
 6081TIP3    H139658   4.085   4.015   6.635 -0.3733 -1.4551 -2.3011
 6081TIP3    H239659   3.964   4.105   6.628 -0.1029 -0.7551  0.7303
 6082TIP3   OH239660   1.349   3.140  15.298 -0.2848 -0.3123  0.0212
 6082TIP3    H139661   1.373   3.065  15.244  1.6445 -0.1369  0.5513
 6082TIP3    H239662   1.326   3.102  15.383  1.5658 -0.3067  0.5709
 6083TIP3   OH239663   3.855   2.335   0.795  0.0524 -0.7037  0.0781
 6083TIP3    H139664   3.934   2.308   0.842  0.7505  1.9238  0.5918
 6083TIP3    H239665   3.787   2.337   0.863 -0.0471 -1.2893  0.0004
 6084TIP3   OH239666   3.510   5.923  17.027  0.0571 -0.1252  0.1741
 6084TIP3    H139667   3.446   5.939  16.958 -0.7542  2.9976  1.5037
 6084TIP3    H239668   3.488   5.836  17.061 -1.1574 -0.6133 -1.6889
 6085TIP3   OH239669   6.166   6.413  16.086  0.5113  0.3041 -0.2140
 6085TIP3    H139670   6.188   6.470  16.160 -1.4741  0.6407  0.1907
 6085TIP3    H239671   6.226   6.439  16.017  0.8440  1.6424  0.5406
 6086TIP3   OH239672   1.154   1.312  17.378  0.0227 -0.2463  0.2335
 6086TIP3    H139673   1.213   1.294  17.305 -0.7075  2.3124 -1.1395
 6086TIP3    H239674   1.210   1.352  17.444  0.0212  1.7302 -0.8720
 6087TIP3   OH239675   6.609   4.301  15.972 -0.0321 -0.2343 -0.2277
 6087TIP3    H139676   6.602   4.255  16.056  1.0236  0.2899  0.1692
 6087TIP3    H239677   6.703   4.314  15.960 -0.2221  0.4342 -1.0911
 6088TIP3   OH239678   0.708   1.185  12.020 -0.1439  0.2160 -0.1421
 6088TIP3    H139679   0.698   1.151  11.931 -1.0738  0.4442 -0.1413
 6088TIP3    H239680   0.802   1.194  12.033 -0.0263  2.0296 -1.8215
 6089TIP3   OH239681   0.549   4.147  16.908 -1.1557 -0.4446  0.2273
 6089TIP3    H139682   0.570   4.053  16.910  0.1586 -0.1604  1.1892
 6089TIP3    H239683   0.476   4.154  16.847 -0.3725 -1.9151 -0.9353
 6090TIP3   OH239684   4.732   1.935   0.587 -0.2988 -0.0130  0.4142
 6090TIP3    H139685   4.821   1.970   0.593 -0.0706 -0.7766  1.8533
 6090TIP3    H239686   4.728   1.868   0.656 -1.6743 -0.6852 -0.2787
 6091TIP3   OH239687   5.756   3.909  11.717  0.0240  0.0549  0.1962
 6091TIP3    H139688   5.845   3.939  11.699  0.4060 -1.4788 -0.6391
 6091TIP3    H239689   5.754   3.895  11.812  1.7449 -2.8768 -0.0605
 6092TIP3   OH239690   4.060   4.659   1.978 -0.0007 -0.1803 -0.0223
 6092TIP3    H139691   4.109   4.675   1.897  1.0255 -2.0454  0.1689
 6092TIP3    H239692   4.045   4.746   2.015 -2.0552  0.9366 -3.0486
 6093TIP3   OH239693   2.640   0.602   1.832  0.0073  0.6046  0.0940
 6093TIP3    H139694   2.566   0.561   1.877  0.9372 -0.9318  0.2693
 6093TIP3    H239695   2.681   0.658   1.898 -0.1948  0.4061  0.3876
 6094TIP3   OH239696   2.023   5.903   1.073  0.4261  0.4613  0.3064
 6094TIP3    H139697   2.046   5.980   1.126  1.3799 -0.0349  0.6283
 6094TIP3    H239698   1.946   5.866   1.117 -0.8525  1.9223 -0.5715
 6095TIP3   OH239699   3.163   1.346   2.424 -0.1816  0.4657 -0.5423
 6095TIP3    H139700   3.142   1.379   2.336  0.5419  1.3580 -0.3903
 6095TIP3    H239701   3.251   1.380   2.442 -0.1713 -0.0214  0.3805
 6096TIP3   OH239702   2.502   1.392   2.313 -0.5395 -0.4013 -0.6117
 6096TIP3    H139703   2.560   1.446   2.367  0.7624 -1.8290 -0.5260
 6096TIP3    H239704   2.560   1.330   2.269 -1.8984 -1.1794 -1.3955
 6097TIP3   OH239705   2.892   3.298  10.441  0.0342 -0.4814  0.4298
 6097TIP3    H139706   2.896   3.322  10.534 -0.8594 -0.5185  0.4816
 6097TIP3    H239707   2.936   3.370  10.396 -1.1873  0.4775  0.7278
 6098TIP3   OH239708   0.809   2.760   4.195  0.2760  0.1675 -0.2522
 6098TIP3    H139709   0.779   2.783   4.283 -0.0511 -0.7119 -0.1193
 6098TIP3    H239710   0.734   2.780   4.138 -0.6705 -2.0732  0.0853
 6099TIP3   OH239711   0.133   3.361  16.447 -0.1232 -0.0555  0.0333
 6099TIP3    H139712   0.092   3.394  16.527  1.3688  1.3497  0.2726
 6099TIP3    H239713   0.063   3.361  16.382 -1.1630 -0.4518  1.1212
 6100TIP3   OH239714   4.343   4.781  13.283 -0.3951 -0.0042 -0.1112
 6100TIP3    H139715   4.323   4.874  13.284  0.7874  0.2898  1.3626
 6100TIP3    H239716   4.390   4.767  13.201  0.1707  0.8901  0.0482
 6101TIP3   OH239717   1.628   1.274   4.142  0.1666  0.3352 -0.0698
 6101TIP3    H139718   1.586   1.328   4.076 -0.2626  1.2036  0.8743
 6101TIP3    H239719   1.697   1.227   4.095  0.4535  1.5954 -0.9563
 6102TIP3   OH239720   5.985   4.744  11.998  0.2393  0.3700 -0.4381
 6102TIP3    H139721   5.894   4.728  11.973  1.0939 -1.1390 -3.0889
 6102TIP3    H239722   5.992   4.713  12.088 -1.6295 -0.3645 -0.5096
 6103TIP3   OH239723   2.450   4.074  17.334 -0.4221 -0.3695  0.4698
 6103TIP3    H139724   2.520   4.024  17.291 -0.7679  0.0070 -0.5829
 6103TIP3    H239725   2.495   4.148  17.374 -0.2677  0.2504 -0.7986
 6104TIP3   OH239726   3.865   6.460   4.607 -0.9742 -0.1730  0.2974
 6104TIP3    H139727   3.816   6.379   4.615 -1.8313  0.3385  0.3660
 6104TIP3    H239728   3.802   6.529   4.628 -0.4603  0.5560 -0.4622
 6105TIP3   OH239729   3.510   4.751  13.345 -0.0807 -0.2051 -0.0942
 6105TIP3    H139730   3.588   4.710  13.382  0.1844 -1.4150 -1.8917
 6105TIP3    H239731   3.474   4.685  13.286 -2.6437  0.1988  0.8822
 6106TIP3   OH239732   6.559   2.426   3.645  0.5362 -0.0507 -0.6887
 6106TIP3    H139733   6.577   2.340   3.608  2.9174 -0.1141  0.4371
 6106TIP3    H239734   6.593   2.488   3.581  1.5971 -0.0645 -0.1568
 6107TIP3   OH239735   1.504   3.885   5.266 -0.1715 -0.3331  0.0303
 6107TIP3    H139736   1.561   3.958   5.291  0.9820 -1.5873  1.2647
 6107TIP3    H239737   1.436   3.883   5.333  0.4025 -1.0160  0.6043
 6108TIP3   OH239738   0.097   6.136   3.587  0.3180  0.3624  0.5210
 6108TIP3    H139739   0.055   6.219   3.566 -0.0671  0.2641  0.8819
 6108TIP3    H239740   0.176   6.160   3.635  1.3492  0.5997 -1.2318
 6109TIP3   OH239741   0.420   3.619   6.157 -0.4508  0.2603  0.0309
 6109TIP3    H139742   0.421   3.528   6.127  0.4452 -0.0021  0.8045
 6109TIP3    H239743   0.458   3.616   6.245 -2.0454  1.1500  0.7864
 6110TIP3   OH239744   6.428   6.719  15.115  0.1961  0.5286  0.0053
 6110TIP3    H139745   6.440   6.625  15.130  0.0967  0.6631  1.0178
 6110TIP3    H239746   6.340   6.726  15.079 -0.8196  0.4236  2.3231
 6111TIP3   OH239747   6.531   3.878   5.274 -0.2469 -0.0068 -0.5679
 6111TIP3    H139748   6.522   3.914   5.362 -1.9712  0.7716 -1.0237
 6111TIP3    H239749   6.470   3.804   5.273  0.1601 -0.3448 -0.9701
 6112TIP3   OH239750   1.366   1.368  13.926 -0.5399 -0.2587  0.0272
 6112TIP3    H139751   1.275   1.339  13.931 -0.9583  1.1749  1.7478
 6112TIP3    H239752   1.365   1.457  13.963  1.4115  0.1328 -0.7478
 6113TIP3   OH239753   6.496   1.921   4.098 -0.3788 -0.5174  0.0663
 6113TIP3    H139754   6.417   1.912   4.044 -1.6427  0.1248  1.7432
 6113TIP3    H239755   6.530   2.008   4.076 -0.8268 -0.3007  0.2273
 6114TIP3   OH239756   3.791   1.588   3.420 -0.2595  0.6890  0.1521
 6114TIP3    H139757   3.718   1.570   3.479 -0.5580  1.5182  0.0460
 6114TIP3    H239758   3.839   1.659   3.462 -0.3713  1.1665 -0.5000
 6115TIP3   OH239759   3.493   0.885  14.736 -0.4731  0.3756 -0.2883
 6115TIP3    H139760   3.413   0.932  14.717 -1.0710 -0.9163 -1.1123
 6115TIP3    H239761   3.521   0.849  14.652  0.8613  0.6162  0.0207
 6116TIP3   OH239762   3.866   2.280  12.206  0.4804 -0.7120  0.6264
 6116TIP3    H139763   3.951   2.295  12.165  0.1566  3.1048  1.0230
 6116TIP3    H239764   3.804   2.331  12.154 -1.2161 -1.6244  1.6307
 6117TIP3   OH239765   1.630   5.856   0.218  0.4799 -0.3945 -0.2260
 6117TIP3    H139766   1.673   5.873   0.134  4.0868 -1.0959  1.3071
 6117TIP3    H239767   1.559   5.796   0.197 -0.5157  1.5923 -3.0920
 6118TIP3   OH239768   0.662   6.277   1.494  0.7121 -0.3236  0.0529
 6118TIP3    H139769   0.643   6.249   1.583 -3.2289  2.7157  0.4261
 6118TIP3    H239770   0.736   6.337   1.503  1.2202 -1.0577  0.9948
 6119TIP3   OH239771   1.131   0.940   2.476 -0.2552  0.1463  0.0378
 6119TIP3    H139772   1.199   0.888   2.432  0.5531  1.3418 -0.1662
 6119TIP3    H239773   1.169   0.963   2.561 -1.8106 -2.1556  1.4676
 6120TIP3   OH239774   3.302   1.650   2.910 -0.3675  0.7169  0.2026
 6120TIP3    H139775   3.232   1.599   2.951 -1.7388  1.4464 -1.1229
 6120TIP3    H239776   3.298   1.735   2.953 -1.1970  1.1801 -0.7375
 6121TIP3   OH239777   2.746   5.833  12.642  0.1976  0.0471  0.3980
 6121TIP3    H139778   2.650   5.836  12.644  0.1781 -0.6271  1.0901
 6121TIP3    H239779   2.766   5.769  12.574  0.2829  3.2253 -2.8247
 6122TIP3   OH239780   4.000   2.270  13.354 -0.1940  0.8753 -0.6796
 6122TIP3    H139781   4.028   2.359  13.330  2.8599  0.3863  0.5509
 6122TIP3    H239782   4.065   2.213  13.312 -0.9308 -0.6387  0.1597
 6123TIP3   OH239783   3.371   0.774   1.377  0.3129 -0.0536 -0.0041
 6123TIP3    H139784   3.402   0.719   1.304 -1.6145  0.9058 -1.6491
 6123TIP3    H239785   3.311   0.718   1.425  2.3928 -1.0465  1.6031
 6124TIP3   OH239786   2.133   6.407   1.281  0.4538  0.0768  0.1135
 6124TIP3    H139787   2.106   6.387   1.191 -0.8481  0.5446  0.3744
 6124TIP3    H239788   2.134   6.502   1.286 -1.9663  0.1397  1.2272
 6125TIP3   OH239789   6.179   6.708  13.066 -0.0928  0.0505 -0.1276
 6125TIP3    H139790   6.110   6.671  13.012  0.3030 -1.7130  0.5042
 6125TIP3    H239791   6.140   6.785  13.108 -1.8660 -1.2179  0.6411
 6126TIP3   OH239792   1.220   0.089   2.407 -0.1880 -0.0610  0.0378
 6126TIP3    H139793   1.215   0.135   2.490 -0.3017  0.9504 -0.5092
 6126TIP3    H239794   1.129   0.083   2.377 -0.1538 -0.4715  0.0075
 6127TIP3   OH239795   5.872   0.322   4.836 -0.0706 -0.0086 -1.0714
 6127TIP3    H139796   5.954   0.331   4.788 -0.0141  0.5371 -0.8779
 6127TIP3    H239797   5.829   0.407   4.826  0.2256  0.3440  0.3540
 6128TIP3   OH239798   6.758   4.741  15.209 -0.1868  0.5402 -0.1415
 6128TIP3    H139799   6.676   4.693  15.220  1.6461 -2.4310  2.2586
 6128TIP3    H239800   6.753   4.812  15.274 -1.0494  0.7616 -0.4357
 6129TIP3   OH239801   0.196   5.798  15.829 -0.2108 -0.3224  0.0599
 6129TIP3    H139802   0.283   5.759  15.838 -0.2764 -0.8466 -1.3565
 6129TIP3    H239803   0.144   5.730  15.786 -2.1560 -1.1594  3.3491
 6130TIP3   OH239804   0.375   2.775  11.336  0.5825  0.4397 -0.1889
 6130TIP3    H139805   0.391   2.744  11.247 -0.4074 -1.5693  0.2746
 6130TIP3    H239806   0.448   2.741  11.387 -0.1550 -0.5909  0.2030
 6131TIP3   OH239807   3.214   3.548  11.935 -0.3420 -0.1130  0.0194
 6131TIP3    H139808   3.276   3.558  12.007  0.1414 -0.8822 -0.2627
 6131TIP3    H239809   3.241   3.466  11.893 -1.9208 -0.7860  0.2420
 6132TIP3   OH239810   2.681   3.965   1.145  0.5192  0.7813  0.2223
 6132TIP3    H139811   2.745   3.927   1.205  0.6872 -2.8527 -1.9241
 6132TIP3    H239812   2.604   3.982   1.199  1.3747 -0.2469  1.8522
 6133TIP3   OH239813   4.739   3.281   4.606 -0.1789 -0.1108  0.3036
 6133TIP3    H139814   4.770   3.299   4.517 -1.5751  0.2408 -0.1385
 6133TIP3    H239815   4.813   3.305   4.662  0.4721  0.3508 -0.7132
 6134TIP3   OH239816   5.138   4.217  14.089  0.2513 -0.1567 -0.0380
 6134TIP3    H139817   5.189   4.209  14.008  1.1203 -0.8133  0.5517
 6134TIP3    H239818   5.201   4.251  14.153  0.3863 -2.2919  1.0592
 6135TIP3   OH239819   2.475   2.317   1.434  0.2394  0.3299  0.2101
 6135TIP3    H139820   2.461   2.326   1.528  1.7116 -1.8756  0.7066
 6135TIP3    H239821   2.569   2.306   1.424 -0.0302 -1.0478 -1.3309
 6136TIP3   OH239822   2.280   4.641  17.185 -0.4200  0.2454 -0.2092
 6136TIP3    H139823   2.199   4.656  17.136 -1.3607  1.1498  1.5294
 6136TIP3    H239824   2.346   4.627  17.118 -1.9355 -0.1480 -1.6962
 6137TIP3   OH239825   0.917   5.374   4.807  0.1747 -0.2971 -0.3438
 6137TIP3    H139826   0.833   5.417   4.791  0.6669  1.3436  1.1612
 6137TIP3    H239827   0.944   5.341   4.721 -2.4709 -1.8569 -0.6752
 6138TIP3   OH239828   2.929   6.210   3.628  0.1379 -0.0378 -0.8920
 6138TIP3    H139829   2.888   6.296   3.622 -0.2992 -0.0067  1.5697
 6138TIP3    H239830   2.883   6.166   3.700  1.2935 -1.8035 -1.1641
 6139TIP3   OH239831   0.359   1.388   3.520  0.1102 -0.6802 -0.6238
 6139TIP3    H139832   0.420   1.458   3.498  2.6681 -2.1579  1.2515
 6139TIP3    H239833   0.363   1.328   3.446 -1.9271  0.8930 -2.1373
 6140TIP3   OH239834   6.419   3.404   3.145  0.0830  0.4129  0.0567
 6140TIP3    H139835   6.494   3.425   3.200 -0.0341  0.4710  0.1950
 6140TIP3    H239836   6.456   3.355   3.071  0.0136 -1.6605  1.2963
 6141TIP3   OH239837   1.177   4.289   4.162  0.2012 -0.9571 -0.4387
 6141TIP3    H139838   1.152   4.315   4.073 -0.4349  2.5067  0.6172
 6141TIP3    H239839   1.099   4.305   4.215  1.5060  0.2128  1.2432
 6142TIP3   OH239840   6.100   5.967   5.524  0.2184  0.2184 -0.2922
 6142TIP3    H139841   6.117   5.893   5.465  1.9747  0.3818 -0.0542
 6142TIP3    H239842   6.106   5.930   5.612 -0.3062  0.3876 -0.1788
 6143TIP3   OH239843   6.508   4.228  13.748 -0.0031  0.7122  0.4439
 6143TIP3    H139844   6.593   4.221  13.791  0.4310  0.2388 -0.4594
 6143TIP3    H239845   6.495   4.143  13.707 -0.5733  1.0171 -0.0273
 6144TIP3   OH239846   5.032   2.168  11.401  0.4921 -0.5600 -0.1899
 6144TIP3    H139847   5.097   2.201  11.463  1.2342 -1.8017 -0.2716
 6144TIP3    H239848   5.004   2.084  11.438 -0.5591 -0.3650 -0.5172
 6145TIP3   OH239849   0.492   6.412   0.914 -0.4701 -0.5028 -0.3498
 6145TIP3    H139850   0.547   6.406   0.836  1.3283 -0.7501  0.8709
 6145TIP3    H239851   0.554   6.420   0.987 -2.0853  0.0460  1.0395
 6146TIP3   OH239852   1.630   3.382   3.027 -0.1305  0.4547  0.0882
 6146TIP3    H139853   1.540   3.364   3.056 -0.2370  1.0301  0.1381
 6146TIP3    H239854   1.671   3.296   3.021 -0.7471  0.1627 -0.1373
 6147TIP3   OH239855   1.045   4.492  10.831 -0.4253 -0.0529 -0.1970
 6147TIP3    H139856   0.960   4.458  10.804 -0.9146 -0.0712  1.2925
 6147TIP3    H239857   1.106   4.462  10.763 -1.4228 -0.9416 -0.7166
 6148TIP3   OH239858   2.956   0.827  16.408  1.0870  0.2111  0.1829
 6148TIP3    H139859   2.886   0.814  16.344  0.6013 -0.7964  0.8827
 6148TIP3    H239860   2.913   0.872  16.481  1.1770 -0.3128  0.5680
 6149TIP3   OH239861   5.243   0.367   2.669 -0.2838 -0.3278 -0.5644
 6149TIP3    H139862   5.298   0.334   2.599  1.3348 -0.5571  0.7556
 6149TIP3    H239863   5.160   0.388   2.626  0.3516 -1.2600 -2.3687
 6150TIP3   OH239864   3.682   1.876  17.209  0.3066 -0.2285 -0.0235
 6150TIP3    H139865   3.696   1.789  17.246 -0.4382 -0.9974 -1.4572
 6150TIP3    H239866   3.624   1.919  17.272  1.4747 -0.3792  1.2065
 6151TIP3   OH239867   1.274   3.661  16.362  0.3278  0.4460  0.0258
 6151TIP3    H139868   1.325   3.617  16.430  0.7229 -0.3112 -0.7371
 6151TIP3    H239869   1.243   3.742  16.403  1.5038  0.5516  0.7309
 6152TIP3   OH239870   5.543   6.014   4.281 -0.2085  0.0401  0.5711
 6152TIP3    H139871   5.523   5.930   4.240  0.1881  0.5012 -0.6275
 6152TIP3    H239872   5.489   6.078   4.234  2.6588  1.0703 -1.6478
 6153TIP3   OH239873   2.097   0.057  12.121  0.6230  0.5687  0.6276
 6153TIP3    H139874   2.115   0.076  12.213  0.6412 -0.5359  0.8712
 6153TIP3    H239875   2.177   0.014  12.090  0.7467  1.2336 -0.0062
 6154TIP3   OH239876   1.602   3.516   1.010  0.2225  0.2227 -0.6077
 6154TIP3    H139877   1.526   3.548   1.059 -0.3651 -0.1356 -1.2644
 6154TIP3    H239878   1.641   3.595   0.972 -0.9537  0.2415 -1.8412
 6155TIP3   OH239879   0.240   5.890  12.987 -0.2624 -0.3641 -0.6636
 6155TIP3    H139880   0.279   5.809  13.021  1.3956  0.7133  0.1170
 6155TIP3    H239881   0.174   5.914  13.053 -0.0880 -0.5611 -0.4134
 6156TIP3   OH239882   2.961   3.352   5.756 -0.3329 -0.4547 -0.1101
 6156TIP3    H139883   3.046   3.358   5.800  0.4431 -1.1998 -1.4184
 6156TIP3    H239884   2.898   3.388   5.818  0.7640 -1.0439  1.3964
 6157TIP3   OH239885   1.561   5.964   4.624 -0.2347 -0.2938  0.5555
 6157TIP3    H139886   1.496   5.968   4.553  0.9454  0.6448 -0.5374
 6157TIP3    H239887   1.635   6.015   4.590  1.2211 -1.6409  1.5992
 6158TIP3   OH239888   5.666   5.718   5.271 -0.0021 -0.0411 -0.3370
 6158TIP3    H139889   5.581   5.749   5.302 -0.9962 -2.2177 -0.6926
 6158TIP3    H239890   5.674   5.754   5.183 -0.3620  0.5001 -0.1546
 6159TIP3   OH239891   3.728   0.265   0.090  0.2381 -0.5053 -0.1124
 6159TIP3    H139892   3.780   0.328   0.139  1.7976 -1.6819 -0.1742
 6159TIP3    H239893   3.756   0.277  -0.001  0.3099 -1.0686 -0.1658
 6160TIP3   OH239894   3.086   2.999  15.574  0.3118 -0.3784  0.2522
 6160TIP3    H139895   3.041   3.030  15.652 -1.7273 -1.4756 -0.4274
 6160TIP3    H239896   3.085   3.074  15.514 -1.7684 -0.7031 -0.1960
 6161TIP3   OH239897   5.960   2.951   3.007  0.1793 -0.4881 -0.1216
 6161TIP3    H139898   5.999   2.910   3.084 -0.2622 -0.2771  0.2212
 6161TIP3    H239899   5.939   3.040   3.035  0.6228 -0.1965 -0.6932
 6162TIP3   OH239900   1.333   6.066  15.365  0.0033  0.4987 -0.8523
 6162TIP3    H139901   1.281   6.034  15.439 -0.8307  0.9911 -1.2065
 6162TIP3    H239902   1.417   6.021  15.373 -0.6753 -0.7728 -0.5847
 6163TIP3   OH239903   1.657   1.583  12.798 -0.1205 -0.5642  0.4002
 6163TIP3    H139904   1.693   1.670  12.780 -0.3049 -0.6964 -0.6341
 6163TIP3    H239905   1.570   1.602  12.834  0.5360 -0.2826  1.9529
 6164TIP3   OH239906   3.461   5.562  11.452 -0.4690 -0.0707  0.5769
 6164TIP3    H139907   3.506   5.632  11.404  0.8723 -2.3321 -1.7538
 6164TIP3    H239908   3.370   5.568  11.424  0.0813 -0.6324 -1.4907
 6165TIP3   OH239909   0.224   1.048  14.012  0.2607 -0.3028  0.7741
 6165TIP3    H139910   0.288   1.041  13.941  0.3112  0.4534  0.7384
 6165TIP3    H239911   0.149   0.996  13.982  1.1492 -1.8819  1.1708
 6166TIP3   OH239912   5.446   4.797   1.387  0.2999 -0.0471  0.3640
 6166TIP3    H139913   5.498   4.852   1.329  1.4758 -0.6216  0.8437
 6166TIP3    H239914   5.505   4.775   1.459 -1.4906  1.8263  2.5814
 6167TIP3   OH239915   1.866   1.411   6.214 -0.5002  0.0808 -0.1678
 6167TIP3    H139916   1.902   1.377   6.296 -0.3363 -0.2257 -0.3681
 6167TIP3    H239917   1.776   1.435   6.236 -0.7403 -0.8512 -0.1224
 6168TIP3   OH239918   4.056   5.517   1.528 -0.2496  0.8019  0.1959
 6168TIP3    H139919   4.048   5.526   1.623 -0.0539  0.2939  0.2588
 6168TIP3    H239920   4.149   5.501   1.512 -0.7700 -3.3503  0.2968
 6169TIP3   OH239921   1.101   3.892  16.396  0.3386  0.2736  0.3497
 6169TIP3    H139922   1.107   3.985  16.418  0.0184  0.6936 -1.2282
 6169TIP3    H239923   1.096   3.890  16.301 -1.0237 -1.2859  0.4061
 6170TIP3   OH239924   0.378   2.237   3.710  0.0862 -0.3071  0.2115
 6170TIP3    H139925   0.426   2.229   3.628 -1.1854 -0.1445 -0.5779
 6170TIP3    H239926   0.407   2.321   3.747 -1.0061  0.7494 -1.2274
 6171TIP3   OH239927   4.576   5.860  11.323 -0.4146 -0.1335  0.1987
 6171TIP3    H139928   4.561   5.783  11.269 -0.5529  0.2432 -0.3005
 6171TIP3    H239929   4.490   5.882  11.358 -1.1110  1.9052 -2.5025
 6172TIP3   OH239930   1.260   4.341  15.123 -0.3119  0.0873  0.6682
 6172TIP3    H139931   1.188   4.391  15.084  0.0126  0.6088  0.7341
 6172TIP3    H239932   1.338   4.392  15.103 -0.2415  1.0356  3.0327
 6173TIP3   OH239933   3.081   1.912   2.513 -0.5153 -0.4440  0.3008
 6173TIP3    H139934   3.049   1.822   2.507 -0.4507 -0.4602  0.1857
 6173TIP3    H239935   3.173   1.903   2.537 -0.3611 -0.4287 -0.2688
 6174TIP3   OH239936   3.558   4.059   2.976 -0.2094  0.7733  0.0933
 6174TIP3    H139937   3.484   4.107   2.941  0.7103  2.0734 -0.1295
 6174TIP3    H239938   3.544   4.059   3.071 -1.2833 -0.3684 -0.0391
 6175TIP3   OH239939   6.034   3.295   5.350  0.1811 -0.1182 -0.5376
 6175TIP3    H139940   6.126   3.278   5.329 -0.0224  0.6794 -2.1888
 6175TIP3    H239941   5.985   3.258   5.276 -0.9844 -1.9706  1.0465
 6176TIP3   OH239942   2.067   4.729  15.298 -0.7686  0.4939  0.0649
 6176TIP3    H139943   2.036   4.642  15.325 -0.2386  0.3098  0.0959
 6176TIP3    H239944   2.014   4.750  15.221 -1.0292  0.2259  0.1656
 6177TIP3   OH239945   3.270   0.566   5.492 -0.0056  0.0052  0.1014
 6177TIP3    H139946   3.210   0.546   5.563  2.2829 -2.5507  1.5162
 6177TIP3    H239947   3.309   0.650   5.516 -0.8852  0.2651  0.6650
 6178TIP3   OH239948   2.379   3.655  17.155 -0.2451  0.2190  0.3468
 6178TIP3    H139949   2.422   3.572  17.134  2.3628  1.3986  0.5407
 6178TIP3    H239950   2.423   3.685  17.235 -2.2915  1.0292  1.2406
 6179TIP3   OH239951   4.653   1.012  14.446  0.2092 -0.2044 -0.2490
 6179TIP3    H139952   4.718   1.076  14.475  0.1543  0.4062 -1.4370
 6179TIP3    H239953   4.663   1.009  14.351 -2.9646  1.5900 -0.7766
 6180TIP3   OH239954   0.555   3.468  12.548  0.1741 -0.2564 -0.4486
 6180TIP3    H139955   0.623   3.530  12.523 -0.3378  0.5862  0.1727
 6180TIP3    H239956   0.579   3.439  12.636  0.3511 -0.8592 -0.6924
 6181TIP3   OH239957   1.925   6.721   4.082 -0.1826 -0.6284 -0.4684
 6181TIP3    H139958   1.947   6.792   4.022  0.0835 -2.6801 -2.9759
 6181TIP3    H239959   2.005   6.705   4.131  0.1026  0.0332 -0.7034
 6182TIP3   OH239960   0.591   4.038  11.409  0.5089  0.3243 -0.2932
 6182TIP3    H139961   0.667   3.981  11.410 -0.0921 -0.6197 -2.3259
 6182TIP3    H239962   0.531   4.000  11.473  1.1584  0.2077  0.2476
 6183TIP3   OH239963   0.999   1.128   1.403  0.0732  0.5538 -0.1143
 6183TIP3    H139964   0.934   1.192   1.433 -1.3425 -0.9303  0.1407
 6183TIP3    H239965   1.032   1.088   1.484 -0.4064 -0.2841 -0.3175
 6184TIP3   OH239966   3.603   3.575  11.655  0.3069 -0.8680  0.9408
 6184TIP3    H139967   3.560   3.625  11.585 -1.1394 -1.1154  1.6112
 6184TIP3    H239968   3.687   3.548  11.617 -0.4401 -1.0062 -0.7239
 6185TIP3   OH239969   2.040   3.892  14.860 -0.5066  1.0919 -0.0516
 6185TIP3    H139970   1.977   3.822  14.872 -1.7104  2.3146  1.0586
 6185TIP3    H239971   2.028   3.950  14.935  2.1895  1.2161  0.3921
 6186TIP3   OH239972   6.544   2.842   0.054  0.3821 -0.4468  0.7585
 6186TIP3    H139973   6.471   2.881   0.005  0.6622  0.3544  0.9492
 6186TIP3    H239974   6.553   2.898   0.131  0.9851 -0.7254  0.8954
 6187TIP3   OH239975   1.341   2.122   1.934  0.0545 -0.3363  0.0505
 6187TIP3    H139976   1.293   2.069   1.871  0.3945  0.2895 -0.7535
 6187TIP3    H239977   1.386   2.058   1.990 -2.3667 -0.9706  1.4046
 6188TIP3   OH239978   1.456   4.207  17.243 -0.0992 -0.3596  0.3180
 6188TIP3    H139979   1.547   4.209  17.211 -0.0360 -1.8369  0.3510
 6188TIP3    H239980   1.404   4.235  17.167  0.2652 -1.1391 -0.2335
 6189TIP3   OH239981   3.778   4.974   1.633  0.1443 -0.0050 -0.2245
 6189TIP3    H139982   3.787   4.971   1.537  0.2959 -0.5264 -0.2002
 6189TIP3    H239983   3.848   5.033   1.662  0.3809 -0.1907 -0.4066
 6190TIP3   OH239984   6.151   2.854  12.899 -0.2554  0.1929 -0.3278
 6190TIP3    H139985   6.100   2.899  12.831 -2.5792 -0.4737  0.8669
 6190TIP3    H239986   6.148   2.762  12.874 -0.7137 -0.0002  0.4108
 6191TIP3   OH239987   5.146   2.571  12.276  0.3051 -0.2660 -0.3925
 6191TIP3    H139988   5.219   2.515  12.302 -0.4759 -1.3605 -0.5146
 6191TIP3    H239989   5.174   2.659  12.301  1.2683 -0.7823  0.4235
 6192TIP3   OH239990   2.641   2.265   1.200  0.6985  0.5160  0.3718
 6192TIP3    H139991   2.565   2.323   1.203  0.0068 -0.3684  0.4341
 6192TIP3    H239992   2.604   2.178   1.182  1.7272  0.1286  0.0572
 6193TIP3   OH239993   2.653   5.687   1.224 -0.0668  0.2900  0.3246
 6193TIP3    H139994   2.699   5.756   1.272  0.5496 -0.8661  1.4753
 6193TIP3    H239995   2.572   5.674   1.273 -0.5337  0.6958 -0.3258
 6194TIP3   OH239996   1.142   5.171   4.299  0.2766  0.3588  0.1869
 6194TIP3    H139997   1.227   5.212   4.309 -0.0064  0.5689  1.8902
 6194TIP3    H239998   1.161   5.078   4.288  0.6927  0.2832  1.4719
 6195TIP3   OH239999   6.482   3.503   4.777  0.5103 -0.1225  0.2114
 6195TIP3    H140000   6.519   3.560   4.845  1.2981  0.6613 -0.8394
 6195TIP3    H240001   6.558   3.460   4.738  0.1080 -0.2103 -0.4892
 6196TIP3   OH240002   2.045   2.135  12.478  0.1931 -0.3367  0.0307
 6196TIP3    H140003   2.047   2.167  12.387 -1.0253 -0.1361  0.0498
 6196TIP3    H240004   2.136   2.115  12.499  0.5829  0.2646 -1.0109
 6197TIP3   OH240005   0.939   0.946   5.136  0.1011  0.3065  0.4637
 6197TIP3    H140006   1.001   0.893   5.085 -0.8981 -1.5492  1.0947
 6197TIP3    H240007   0.877   0.980   5.072  2.1792  2.9609 -0.3221
 6198TIP3   OH240008   2.735   5.968  11.335  0.1240 -0.0027 -0.2283
 6198TIP3    H140009   2.807   5.967  11.273 -0.8327  1.0933 -1.4014
 6198TIP3    H240010   2.656   5.968  11.281 -0.7347  1.3100  0.9682
 6199TIP3   OH240011   2.432   2.611   1.557 -0.2128 -0.2852  0.7732
 6199TIP3    H140012   2.423   2.531   1.609 -3.3966  0.5693  1.7363
 6199TIP3    H240013   2.380   2.594   1.478  0.0592  0.4416  0.4301
 6200TIP3   OH240014   4.124   6.322  12.286 -0.2462  0.1755 -0.3318
 6200TIP3    H140015   4.110   6.348  12.195 -2.1440  0.7030  0.0696
 6200TIP3    H240016   4.209   6.360  12.309  0.7965 -0.8830 -2.1741
 6201TIP3   OH240017   3.692   0.717   1.694  0.5655 -0.2736 -0.0089
 6201TIP3    H140018   3.715   0.793   1.747  1.6130  1.2715 -2.5331
 6201TIP3    H240019   3.627   0.749   1.632 -0.8259 -2.0994  0.4004
 6202TIP3   OH240020   3.842   3.218  14.301 -0.1270  0.5520  0.0501
 6202TIP3    H140021   3.860   3.260  14.217 -0.6492  1.0880  0.1952
 6202TIP3    H240022   3.791   3.283  14.349 -0.6525 -0.1178  0.4154
 6203TIP3   OH240023   1.463   5.780  11.481  0.4113 -0.6680  0.0992
 6203TIP3    H140024   1.539   5.762  11.537 -0.3461 -0.2207  1.2778
 6203TIP3    H240025   1.413   5.698  11.482  0.6361 -0.8217 -0.3472
 6204TIP3   OH240026   6.593   6.393  15.888 -0.3482  0.2845  0.6195
 6204TIP3    H140027   6.673   6.382  15.939 -0.4575  0.3435  0.8051
 6204TIP3    H240028   6.579   6.309  15.845 -0.8205 -0.1060  1.5011
 6205TIP3   OH240029   3.798   4.905   0.207 -0.5877  0.1345 -0.2457
 6205TIP3    H140030   3.784   4.965   0.281  1.3270  0.2748  0.0567
 6205TIP3    H240031   3.712   4.895   0.168 -1.7034 -0.0535  2.0875
 6206TIP3   OH240032   1.705   0.297  11.421  0.1908  0.5083  0.5842
 6206TIP3    H140033   1.710   0.310  11.515 -0.2745  1.4177  0.4968
 6206TIP3    H240034   1.612   0.291  11.402  0.1266  2.6949 -0.0849
 6207TIP3   OH240035   0.834   5.040  13.306 -0.0806  0.4706 -0.4980
 6207TIP3    H140036   0.887   4.973  13.349  0.4606 -0.8337 -3.0044
 6207TIP3    H240037   0.837   5.115  13.365  2.5991 -0.3598  0.5510
 6208TIP3   OH240038   4.254   5.774   5.965  0.3739 -0.3613  0.3985
 6208TIP3    H140039   4.242   5.689   6.008  1.5093 -0.1295  1.2373
 6208TIP3    H240040   4.249   5.755   5.872 -0.8202 -1.1054  0.5918
 6209TIP3   OH240041   2.495   6.140   4.761  0.1360  0.1491 -0.2753
 6209TIP3    H140042   2.590   6.152   4.762  0.4801 -1.0446 -4.0213
 6209TIP3    H240043   2.465   6.193   4.687 -1.9988 -0.2817  0.2165
 6210TIP3   OH240044   1.852   1.890  11.595  0.2645  0.7211  0.0585
 6210TIP3    H140045   1.933   1.913  11.549  1.1695  0.6494  1.5390
 6210TIP3    H240046   1.843   1.957  11.662 -1.5677  1.3945 -0.8024
 6211TIP3   OH240047   5.348   3.566   4.864 -0.3282  0.3442 -0.1061
 6211TIP3    H140048   5.443   3.563   4.875 -0.2701  0.2085 -0.5852
 6211TIP3    H240049   5.319   3.639   4.919  0.1206  0.7291 -0.3653
 6212TIP3   OH240050   1.863   0.904   5.437  0.6203 -0.1508  0.0565
 6212TIP3    H140051   1.901   0.991   5.447  0.5581 -0.0816 -0.2922
 6212TIP3    H240052   1.839   0.899   5.345  1.5719 -0.9288 -0.1711
 6213TIP3   OH240053   5.795   1.858  17.277  0.2411  0.2058 -0.2096
 6213TIP3    H140054   5.792   1.888  17.187 -3.4467 -0.5370 -0.4831
 6213TIP3    H240055   5.740   1.920  17.325 -0.4144 -1.1336  0.8668
 6214TIP3   OH240056   0.932   5.494  13.314  0.2651  0.0105  0.4683
 6214TIP3    H140057   0.932   5.583  13.351  0.4173  0.2906 -0.1918
 6214TIP3    H240058   1.000   5.496  13.247  0.6615 -0.7771  0.8401
 6215TIP3   OH240059   5.333   0.229  14.528  0.2732 -0.0068  0.1956
 6215TIP3    H140060   5.267   0.287  14.489  1.0694 -0.9626 -2.8229
 6215TIP3    H240061   5.391   0.288  14.576 -0.4860  1.3561 -0.4891
 6216TIP3   OH240062   1.633   4.850  17.166 -0.3369  0.1865  0.1025
 6216TIP3    H140063   1.641   4.767  17.119 -1.1378  0.6259 -0.8249
 6216TIP3    H240064   1.539   4.860  17.182 -0.2353  0.8761  0.2940
 6217TIP3   OH240065   0.382   2.321   2.316 -0.4654 -0.0945 -0.1392
 6217TIP3    H140066   0.382   2.225   2.321 -2.7421 -0.0875  2.5700
 6217TIP3    H240067   0.398   2.340   2.223  0.0633 -3.0621 -0.7655
 6218TIP3   OH240068   4.579   4.147   1.376  0.1974 -0.5216  0.2539
 6218TIP3    H140069   4.665   4.187   1.362 -0.1442 -0.1611 -0.9504
 6218TIP3    H240070   4.523   4.189   1.311 -0.7996 -1.0592  0.7463
 6219TIP3   OH240071   3.894   3.287   2.979  0.3576  0.1885 -0.1412
 6219TIP3    H140072   3.843   3.296   2.899 -1.0852  2.1904  0.9112
 6219TIP3    H240073   3.941   3.370   2.987  1.3197 -0.4000  0.5525
 6220TIP3   OH240074   0.172   4.818  12.794  0.0615 -0.0370  0.7633
 6220TIP3    H140075   0.204   4.863  12.872  1.5094  0.3158  0.0051
 6220TIP3    H240076   0.165   4.886  12.727 -1.1854 -0.3286  0.5693
 6221TIP3   OH240077   2.795   3.143  15.300  0.4829 -0.2467 -0.2361
 6221TIP3    H140078   2.777   3.111  15.212 -0.0998  0.8975 -0.5443
 6221TIP3    H240079   2.766   3.072  15.358 -1.9296  0.1643 -0.8440
 6222TIP3   OH240080   5.751   4.690  14.447 -0.1005  0.1602 -0.0725
 6222TIP3    H140081   5.837   4.687  14.406 -0.1888 -0.0707 -0.2384
 6222TIP3    H240082   5.689   4.690  14.374 -0.2468  0.1427  0.0512
 6223TIP3   OH240083   1.200   4.951  16.793  0.1294 -0.1983  0.1313
 6223TIP3    H140084   1.121   5.003  16.777 -0.2159 -0.8103 -0.2192
 6223TIP3    H240085   1.206   4.894  16.716 -0.2489 -1.5867  1.1005
 6224TIP3   OH240086   0.388   5.284   2.862 -0.3712  0.0518 -0.1876
 6224TIP3    H140087   0.391   5.362   2.918  1.0180  0.0734 -0.2621
 6224TIP3    H240088   0.427   5.313   2.780  1.1390 -0.9637  0.1230
 6225TIP3   OH240089   1.931   3.424   4.317 -0.6499 -0.1418 -0.1428
 6225TIP3    H140090   1.876   3.390   4.247 -0.3564 -0.3484 -0.2770
 6225TIP3    H240091   1.920   3.519   4.313 -1.4242 -0.2075  0.1882
 6226TIP3   OH240092   1.393   2.533   1.941 -0.5615 -0.5777  0.2901
 6226TIP3    H140093   1.341   2.475   1.997 -1.7495 -0.6553 -0.8411
 6226TIP3    H240094   1.405   2.612   1.993  0.7097 -1.6343  1.6853
 6227TIP3   OH240095   3.813   3.857   5.342 -0.3419  0.1132 -0.1367
 6227TIP3    H140096   3.744   3.806   5.385 -1.7513  1.1914 -1.0521
 6227TIP3    H240097   3.774   3.886   5.260  0.3553  2.6909  0.3502
 6228TIP3   OH240098   1.795   1.187   4.350 -0.0558  0.0449 -0.5005
 6228TIP3    H140099   1.739   1.245   4.299  0.5961  1.4803  0.3297
 6228TIP3    H240100   1.848   1.141   4.286  0.1193  1.1450 -1.1726
 6229TIP3   OH240101   1.710   4.616  17.047  0.3660 -0.0518 -0.3638
 6229TIP3    H140102   1.799   4.589  17.070  0.3809  1.0689  0.9999
 6229TIP3    H240103   1.667   4.535  17.019  0.7686 -1.3474  2.4261
 6230TIP3   OH240104   1.071   5.625   0.684  0.2347 -0.0629 -0.9264
 6230TIP3    H140105   1.145   5.582   0.640 -0.8083 -2.6983 -0.3022
 6230TIP3    H240106   1.016   5.658   0.613  1.3004  0.7342 -1.4151
 6231TIP3   OH240107   3.711   0.360   6.375  0.3652 -0.0108  0.1281
 6231TIP3    H140108   3.689   0.272   6.345  0.2444  0.9758 -2.9946
 6231TIP3    H240109   3.682   0.362   6.467  1.5731 -3.5713  0.7169
 6232TIP3   OH240110   2.822   4.861  15.154 -0.2804  0.4391  0.3263
 6232TIP3    H140111   2.867   4.936  15.116  1.4489 -0.5028  0.4144
 6232TIP3    H240112   2.836   4.870  15.249 -0.0723  0.0251  0.3370
 6233TIP3   OH240113   2.967   4.022  15.778 -0.2583 -0.3088 -0.7414
 6233TIP3    H140114   2.938   3.993  15.865 -0.0924 -0.1284 -0.6246
 6233TIP3    H240115   2.915   3.970  15.717 -2.5556  1.6033 -0.5718
 6234TIP3   OH240116   6.396   3.433  16.919  0.2407  0.0622  0.2204
 6234TIP3    H140117   6.360   3.445  17.007 -0.3038  0.8495 -0.1033
 6234TIP3    H240118   6.319   3.426  16.863  0.5890 -0.0932 -0.2445
 6235TIP3   OH240119   5.058   0.718  12.954 -0.0887 -0.1599  0.4250
 6235TIP3    H140120   5.038   0.658  12.881 -2.0270 -0.3257  1.0390
 6235TIP3    H240121   5.120   0.781  12.917  0.4763 -1.3965 -0.7979
 6236TIP3   OH240122   6.220   3.779   0.590  0.1197 -0.0507  0.3384
 6236TIP3    H140123   6.202   3.777   0.684 -3.3942  0.8985 -0.1798
 6236TIP3    H240124   6.223   3.873   0.569  0.4879 -0.2584 -0.5655
 6237TIP3   OH240125   5.292   3.810   0.577  0.2112  0.1567  0.0837
 6237TIP3    H140126   5.243   3.805   0.659  0.3075  1.5155  0.2417
 6237TIP3    H240127   5.371   3.860   0.599  0.0063  0.9690 -0.9383
 6238TIP3   OH240128   3.931   4.036  13.219  0.6562 -0.0627 -0.2056
 6238TIP3    H140129   3.992   4.091  13.269 -0.0040 -0.1611  0.7409
 6238TIP3    H240130   3.847   4.047  13.264 -0.4321  1.3240 -2.4197
 6239TIP3   OH240131   3.060   1.550  14.657 -0.4580 -0.0009 -0.5153
 6239TIP3    H140132   2.968   1.538  14.682 -0.9333 -0.6154 -2.3342
 6239TIP3    H240133   3.055   1.581  14.566  1.1298 -0.2676 -0.7118
 6240TIP3   OH240134   5.298   3.297  15.202  0.3593 -0.4328 -0.3563
 6240TIP3    H140135   5.336   3.285  15.115 -1.2655  0.3147 -1.2259
 6240TIP3    H240136   5.268   3.388  15.202 -0.1062 -0.5697  0.8063
 6241TIP3   OH240137   0.839   4.599   1.543 -0.0062  0.0020 -0.4537
 6241TIP3    H140138   0.840   4.647   1.460  0.8558  0.9492  0.0755
 6241TIP3    H240139   0.748   4.601   1.571 -0.2354  0.0138 -1.1907
 6242TIP3   OH240140   6.714   5.334  12.532 -0.3159 -0.7124  0.6556
 6242TIP3    H140141   6.678   5.405  12.584 -0.4129 -0.7896  0.6954
 6242TIP3    H240142   6.687   5.353  12.443 -1.2654 -1.2689  0.8111
 6243TIP3   OH240143   3.285   5.908  12.765 -0.4150 -0.4820  0.5235
 6243TIP3    H140144   3.272   5.865  12.849 -1.1158 -0.1547  0.5904
 6243TIP3    H240145   3.204   5.957  12.750 -1.2465 -2.2918 -1.3931
 6244TIP3   OH240146   5.091   6.451   5.285  0.5854  0.1562  0.0212
 6244TIP3    H140147   5.169   6.415   5.242  0.6660 -2.0788  1.8872
 6244TIP3    H240148   5.127   6.511   5.351  0.8816 -1.5698  1.5208
 6245TIP3   OH240149   2.517   3.844   3.751 -0.0835 -0.2883  0.6056
 6245TIP3    H140150   2.499   3.789   3.675  0.1783 -1.0959  1.1131
 6245TIP3    H240151   2.438   3.897   3.762  0.0208  0.1171 -0.4457
 6246TIP3   OH240152   4.700   6.714   4.030 -0.3391 -0.5828  0.2711
 6246TIP3    H140153   4.699   6.796   3.980  2.0070 -0.9266 -0.4609
 6246TIP3    H240154   4.793   6.698   4.048 -0.8545 -2.3931  1.5722
 6247TIP3   OH240155   1.409   5.707   0.128  0.7503 -0.4302 -0.5287
 6247TIP3    H140156   1.380   5.630   0.079 -0.8665 -0.4236  0.3795
 6247TIP3    H240157   1.348   5.776   0.103  1.3203  0.1928 -0.2357
 6248TIP3   OH240158   3.097   4.399  11.153  0.4236 -0.0458  0.3390
 6248TIP3    H140159   3.105   4.357  11.067  1.6689  0.1108  0.3592
 6248TIP3    H240160   3.181   4.382  11.195  0.1459  0.6304  1.1889
 6249TIP3   OH240161   2.888   3.211  13.616 -0.3462 -0.2130 -0.0784
 6249TIP3    H140162   2.819   3.150  13.642 -1.0925  0.9707  0.8288
 6249TIP3    H240163   2.903   3.265  13.693  0.5772  0.4978 -0.7257
 6250TIP3   OH240164   5.838   5.913   3.739 -0.5464  0.3262  0.8075
 6250TIP3    H140165   5.916   5.871   3.776 -0.6396  0.3920  1.0826
 6250TIP3    H240166   5.780   5.925   3.814 -1.1247 -0.3933  0.4889
 6251TIP3   OH240167   0.688   0.101  13.143  0.0610 -0.5720  0.1985
 6251TIP3    H140168   0.705   0.190  13.111 -0.6403 -0.3215  0.5150
 6251TIP3    H240169   0.768   0.077  13.190  1.0514 -0.8656 -1.5306
 6252TIP3   OH240170   6.057   2.734  13.875  0.8166 -0.2609 -0.0897
 6252TIP3    H140171   6.135   2.748  13.822 -0.2732 -0.7898 -1.8901
 6252TIP3    H240172   6.051   2.639  13.885 -0.4814 -0.3422 -1.3871
 6253TIP3   OH240173   4.565   1.610  13.833 -0.2215  1.2373  0.5848
 6253TIP3    H140174   4.546   1.693  13.789 -0.3063  0.6215 -0.5561
 6253TIP3    H240175   4.493   1.599  13.896 -2.8574 -0.1633 -2.3922
 6254TIP3   OH240176   4.653   1.063  12.671  0.2812  0.0234 -0.3538
 6254TIP3    H140177   4.565   1.100  12.675  0.7755  1.1906  0.0346
 6254TIP3    H240178   4.677   1.067  12.578 -0.4065 -1.1376 -0.6017
 6255TIP3   OH240179   1.883   3.858  11.655 -0.2913  0.4904  0.1609
 6255TIP3    H140180   1.935   3.858  11.575 -0.3319  1.6644  0.1151
 6255TIP3    H240181   1.930   3.916  11.714 -0.6682  0.2301  0.7269
 6256TIP3   OH240182   1.966   0.128   3.113  0.3468 -0.4217  0.0708
 6256TIP3    H140183   1.917   0.107   3.193 -0.6326  1.0554 -0.1006
 6256TIP3    H240184   1.961   0.049   3.060 -0.7416 -0.7457  0.6274
 6257TIP3   OH240185   3.761   0.754  14.103  0.8323 -0.0900  0.4633
 6257TIP3    H140186   3.835   0.797  14.059 -0.3507  0.0109 -1.5530
 6257TIP3    H240187   3.792   0.665  14.120  0.3752 -1.2321 -3.6360
 6258TIP3   OH240188   1.300   1.631   3.351 -0.0152 -0.3427 -0.7096
 6258TIP3    H140189   1.284   1.542   3.383 -0.1213 -0.0781 -0.0023
 6258TIP3    H240190   1.312   1.621   3.257  0.1448 -1.1288 -0.6119
 6259TIP3   OH240191   5.168   6.491  10.995 -0.0918  0.2040 -0.5208
 6259TIP3    H140192   5.119   6.527  10.921  0.5354  2.1483 -0.0366
 6259TIP3    H240193   5.246   6.546  11.002  0.1674 -0.3082  1.2149
 6260TIP3   OH240194   2.909   4.570   5.870 -0.2276 -0.0679  0.3440
 6260TIP3    H140195   2.874   4.583   5.782  1.8148  0.2461 -0.4600
 6260TIP3    H240196   2.919   4.658   5.906 -0.7978 -0.1828  0.7952
 6261TIP3   OH240197   6.581   2.934   2.098 -0.4610  0.6065  0.6554
 6261TIP3    H140198   6.664   2.905   2.137  0.0055  1.5402  0.3725
 6261TIP3    H240199   6.576   3.027   2.118 -0.9496  0.7741 -0.2108
 6262TIP3   OH240200   2.001   4.418   2.058 -0.5302 -0.1491  0.0739
 6262TIP3    H140201   2.029   4.327   2.068 -0.4903 -0.5912 -3.0805
 6262TIP3    H240202   2.058   4.468   2.116  1.1398 -1.8885  0.0025
 6263TIP3   OH240203   1.982   0.786   4.172 -0.8357  0.2277 -0.5579
 6263TIP3    H140204   1.962   0.725   4.101 -0.8324  0.7817 -1.0437
 6263TIP3    H240205   1.918   0.767   4.240 -1.1666  0.0410 -0.9233
 6264TIP3   OH240206   2.344   0.585  15.013  0.3580  0.4123  0.0123
 6264TIP3    H140207   2.331   0.603  15.106  1.3641  0.8155  0.0813
 6264TIP3    H240208   2.265   0.537  14.987 -0.3861  1.1335  0.8435
 6265TIP3   OH240209   1.563   1.058  14.665 -0.3511 -0.4278  0.5613
 6265TIP3    H140210   1.488   1.004  14.637  0.3844 -0.9282 -0.4910
 6265TIP3    H240211   1.525   1.144  14.681 -1.1637 -0.6665  0.0156
 6266TIP3   OH240212   5.659   5.103   1.849 -0.1289  0.4922  0.1024
 6266TIP3    H140213   5.610   5.072   1.925  1.2641  1.4320  1.4506
 6266TIP3    H240214   5.603   5.170   1.810 -1.2148 -0.5794 -0.2052
 6267TIP3   OH240215   2.735   0.463   1.609  0.1647  0.3281 -0.5921
 6267TIP3    H140216   2.687   0.488   1.687  0.3908  2.5069 -1.0754
 6267TIP3    H240217   2.670   0.465   1.539  0.0412 -1.2356 -0.5498
 6268TIP3   OH240218   3.112   6.737   6.120  0.5073 -0.5859  0.1401
 6268TIP3    H140219   3.065   6.663   6.157  2.3030 -0.6982  2.4186
 6268TIP3    H240220   3.113   6.802   6.190  2.8207 -0.2057 -0.1698
 6269TIP3   OH240221   4.122   4.873   1.540 -0.5288 -0.2257 -0.0761
 6269TIP3    H140222   4.029   4.895   1.539 -0.3953  1.0778 -3.9860
 6269TIP3    H240223   4.164   4.947   1.496  1.8526 -2.3163 -1.5838
 6270TIP3   OH240224   2.811   1.408  17.208 -0.1307  0.0708 -0.8172
 6270TIP3    H140225   2.783   1.377  17.294  0.6884  1.6701  0.0554
 6270TIP3    H240226   2.775   1.496  17.201  1.0695  0.5269 -1.4790
 6271TIP3   OH240227   4.659   6.236   5.940 -0.4079  0.7689  0.2908
 6271TIP3    H140228   4.714   6.176   5.990 -1.8546 -0.5189  0.4244
 6271TIP3    H240229   4.647   6.193   5.855 -0.3102  1.5565 -0.1313
 6272TIP3   OH240230   2.557   2.534  12.023 -0.0207  0.0667  0.0907
 6272TIP3    H140231   2.462   2.531  12.013 -0.3197  1.5850  1.9586
 6272TIP3    H240232   2.579   2.627  12.018  1.1254 -0.0975  1.3926
 6273TIP3   OH240233   1.988   4.057  15.826 -0.2955  0.1102 -0.2389
 6273TIP3    H140234   1.906   4.085  15.865  0.2981  0.8715  0.4988
 6273TIP3    H240235   1.967   4.042  15.734 -0.9689  1.6435 -0.3707
 6274TIP3   OH240236   2.015   1.477   3.056 -0.0336 -0.4063  0.0602
 6274TIP3    H140237   1.965   1.426   3.120  2.2012 -0.7715  1.6263
 6274TIP3    H240238   2.034   1.559   3.100 -0.3035  0.2395 -0.9924
 6275TIP3   OH240239   4.112   1.584  16.400  0.5627  0.6212 -0.1968
 6275TIP3    H140240   4.059   1.529  16.457  0.4162  0.6720 -0.2825
 6275TIP3    H240241   4.152   1.648  16.459 -0.7740  1.6089 -0.3285
 6276TIP3   OH240242   4.821   5.950   5.736  0.0294 -0.1520  0.0406
 6276TIP3    H140243   4.878   6.006   5.788 -0.8445 -0.3311  1.2286
 6276TIP3    H240244   4.833   5.981   5.646 -0.4716  2.0352  0.6580
 6277TIP3   OH240245   2.172   6.502  11.432 -0.1372  0.2848 -0.3870
 6277TIP3    H140246   2.156   6.471  11.343 -0.9992 -0.1807 -0.0752
 6277TIP3    H240247   2.253   6.552  11.425 -0.0487  0.0270 -1.3812
 6278TIP3   OH240248   4.470   4.327  15.672  0.7705  0.3839  0.5006
 6278TIP3    H140249   4.539   4.311  15.608  0.3206 -3.0246  0.6396
 6278TIP3    H240250   4.421   4.401  15.637  1.1939 -0.6331 -2.5718
 6279TIP3   OH240251   5.568   3.402   5.630  0.1459  0.1863  0.2157
 6279TIP3    H140252   5.503   3.357   5.577  1.0355 -0.4445 -0.3799
 6279TIP3    H240253   5.563   3.494   5.603 -1.6501  0.4695  1.4019
 6280TIP3   OH240254   4.281   4.487   1.639 -0.2784 -0.4423 -0.1528
 6280TIP3    H140255   4.272   4.476   1.733 -0.2751 -0.8962 -0.2057
 6280TIP3    H240256   4.223   4.421   1.601  0.3157 -0.7848 -0.4732
 6281TIP3   OH240257   4.114   3.894   4.963  0.5441 -0.4549 -0.1938
 6281TIP3    H140258   4.096   3.838   5.038  2.6099  0.4244  1.0387
 6281TIP3    H240259   4.081   3.845   4.888 -1.6511 -1.3271  1.2593
 6282TIP3   OH240260   0.088   1.552   3.076  0.1536  0.3261  0.1398
 6282TIP3    H140261   0.034   1.522   3.149 -0.1676  0.6892  0.0562
 6282TIP3    H240262   0.132   1.473   3.044  0.8185  0.2726  1.1508
 6283TIP3   OH240263   1.583   5.983  13.996 -0.3591 -0.4631  0.1401
 6283TIP3    H140264   1.676   5.970  14.017  0.0328  0.4722 -0.9436
 6283TIP3    H240265   1.578   6.072  13.963 -1.4947 -0.7948 -0.6495
 6284TIP3   OH240266   6.384   5.758  17.252  0.1394 -0.2656 -0.6177
 6284TIP3    H140267   6.339   5.676  17.271  0.8971 -0.9784 -1.8129
 6284TIP3    H240268   6.455   5.762  17.316 -1.7413  1.0910  1.5986
 6285TIP3   OH240269   5.627   5.218  15.877  0.4610  0.2319 -0.4488
 6285TIP3    H140270   5.716   5.184  15.876  0.3959 -0.0817  1.4209
 6285TIP3    H240271   5.604   5.225  15.970 -1.6808 -0.2979 -0.8705
 6286TIP3   OH240272   2.591   1.814   2.070 -0.1899  0.0183  0.5147
 6286TIP3    H140273   2.659   1.749   2.053  0.4243  0.8535 -0.3737
 6286TIP3    H240274   2.640   1.895   2.088 -0.8607  1.2425 -2.5182
 6287TIP3   OH240275   1.814   2.289  11.855  0.2500 -0.1746 -0.3716
 6287TIP3    H140276   1.731   2.305  11.899  0.7054  1.8027 -0.0996
 6287TIP3    H240277   1.844   2.377  11.829  3.1544 -0.5678  1.2422
 6288TIP3   OH240278   0.709   5.754   3.082 -0.3734 -0.3529 -0.0177
 6288TIP3    H140279   0.711   5.816   3.009  0.5176  1.2372  1.2705
 6288TIP3    H240280   0.661   5.801   3.151 -0.2382 -1.3599  0.7780
 6289TIP3   OH240281   3.566   6.051   1.308 -0.3883 -0.4212 -0.0370
 6289TIP3    H140282   3.484   6.014   1.275 -1.8518  1.9246  0.7397
 6289TIP3    H240283   3.597   5.987   1.372 -0.2677 -2.4863 -2.0081
 6290TIP3   OH240284   1.590   2.356  16.617  0.3614 -0.4395  0.1494
 6290TIP3    H140285   1.520   2.420  16.610  0.1840 -0.5416  0.8735
 6290TIP3    H240286   1.671   2.405  16.601  0.0515 -0.7013 -2.8602
 6291TIP3   OH240287   6.590   5.233  11.811 -0.5464 -0.2429 -0.0786
 6291TIP3    H140288   6.631   5.147  11.826  0.0982  0.3709  2.0666
 6291TIP3    H240289   6.497   5.217  11.822 -0.4302 -0.6747  0.3192
 6292TIP3   OH240290   3.477   0.877  13.733 -0.2968  0.3077 -0.1571
 6292TIP3    H140291   3.514   0.910  13.814  0.4399 -0.9242  0.0265
 6292TIP3    H240292   3.382   0.886  13.745 -0.1527  1.5708  0.1888
 6293TIP3   OH240293   0.737   3.435  15.699 -0.0542  0.1360 -0.2106
 6293TIP3    H140294   0.797   3.495  15.743  0.8763 -1.5770  0.9691
 6293TIP3    H240295   0.652   3.478  15.704  1.0013  2.6463 -1.9487
 6294TIP3   OH240296   0.230   6.563  16.644 -0.5604 -0.3488 -0.0465
 6294TIP3    H140297   0.218   6.519  16.728 -0.3206  1.2825  0.8821
 6294TIP3    H240298   0.142   6.569  16.607 -0.6209 -1.4095 -0.1220
 6295TIP3   OH240299   1.803   4.872  16.475 -0.0724  0.0597  0.0560
 6295TIP3    H140300   1.818   4.801  16.537 -1.2322  0.8087  1.2490
 6295TIP3    H240301   1.720   4.850  16.433 -0.1238  0.3870 -0.0166
 6296TIP3   OH240302   3.436   0.622   2.252 -0.6228  0.3104  0.3008
 6296TIP3    H140303   3.374   0.691   2.228 -1.2737  0.2116  1.5965
 6296TIP3    H240304   3.383   0.542   2.256 -0.3147  0.1321  0.9363
 6297TIP3   OH240305   4.914   2.796  13.277  0.1247  0.0449 -0.1911
 6297TIP3    H140306   4.907   2.846  13.358 -1.1059 -0.2083 -0.1191
 6297TIP3    H240307   4.875   2.852  13.210  1.9613  0.6404 -0.8233
 6298TIP3   OH240308   5.919   2.700   3.721 -0.8488 -0.5608  0.5798
 6298TIP3    H140309   5.824   2.685   3.721 -0.9907  0.1915 -0.5403
 6298TIP3    H240310   5.955   2.622   3.679 -1.0961 -0.3086 -0.1233
 6299TIP3   OH240311   1.458   5.164  14.970 -0.4518 -0.1318  0.0224
 6299TIP3    H140312   1.403   5.222  14.918  0.8293  1.9403  0.8481
 6299TIP3    H240313   1.526   5.134  14.909 -1.2037 -0.9308 -0.4433
 6300TIP3   OH240314   2.064   2.291   0.208  0.3876 -0.2369  0.9067
 6300TIP3    H140315   2.003   2.219   0.190 -0.0620  0.8747 -2.7835
 6300TIP3    H240316   2.150   2.254   0.190  0.1017  0.1976 -1.8632
 6301TIP3   OH240317   1.676   2.625  11.718 -0.4443 -0.5392  0.3859
 6301TIP3    H140318   1.646   2.698  11.772  1.4528  0.7716 -0.2378
 6301TIP3    H240319   1.766   2.611  11.746  0.9078  0.7285 -2.9067
 6302TIP3   OH240320   6.262   6.048   1.685  0.5505  0.5141 -0.6440
 6302TIP3    H140321   6.240   6.027   1.595  0.5677 -1.6555 -0.1984
 6302TIP3    H240322   6.268   5.963   1.729  0.3808  1.5143  1.4408
 6303TIP3   OH240323   5.144   0.969  16.504 -0.4494 -0.1279  0.3787
 6303TIP3    H140324   5.139   0.896  16.565  1.4672 -1.0606 -0.4864
 6303TIP3    H240325   5.099   1.041  16.548 -2.5026 -1.8329  1.1951
 6304TIP3   OH240326   4.547   1.713   4.474 -0.1012  0.3759 -0.5326
 6304TIP3    H140327   4.510   1.677   4.554 -1.7330 -0.4075 -1.5760
 6304TIP3    H240328   4.472   1.721   4.414  1.3109 -0.9499 -2.6353
 6305TIP3   OH240329   3.724   5.464  13.161 -0.0183 -0.0192  0.0008
 6305TIP3    H140330   3.713   5.369  13.152  0.1958  0.0701 -1.5303
 6305TIP3    H240331   3.664   5.500  13.096 -2.0262  1.0224  2.2793
 6306TIP3   OH240332   5.186   2.058  17.391  0.1384 -0.4698  0.6841
 6306TIP3    H140333   5.232   1.981  17.358  0.7943 -0.1698  0.8747
 6306TIP3    H240334   5.110   2.067  17.333  0.8885 -0.3601 -0.3098
 6307TIP3   OH240335   5.076   1.362   1.995 -0.1893  0.0915  0.0515
 6307TIP3    H140336   5.171   1.378   1.994  0.0099 -0.8535  1.3001
 6307TIP3    H240337   5.067   1.268   1.979 -0.5921 -0.7319  4.0590
 6308TIP3   OH240338   4.987   4.532   1.582  0.1042  0.0555  0.8778
 6308TIP3    H140339   4.931   4.551   1.507  2.2442  1.3000 -0.4974
 6308TIP3    H240340   5.074   4.565   1.557  0.9447  0.4088  3.8489
 6309TIP3   OH240341   4.756   6.565  12.776 -0.9852  0.3361  0.3577
 6309TIP3    H140342   4.718   6.644  12.738 -0.3728 -0.0478 -1.1145
 6309TIP3    H240343   4.828   6.596  12.831 -1.6044  0.8697  0.8808
 6310TIP3   OH240344   1.696   0.244  12.103 -0.3474 -0.0435 -0.1681
 6310TIP3    H140345   1.609   0.242  12.063 -0.1216 -0.2764 -0.6514
 6310TIP3    H240346   1.679   0.258  12.197 -0.8502  1.0385 -0.4125
 6311TIP3   OH240347   6.371   5.324  11.139  0.1886 -0.5022 -0.2318
 6311TIP3    H140348   6.357   5.388  11.069  1.2076 -1.1370 -1.0500
 6311TIP3    H240349   6.465   5.329  11.157  0.1639 -1.2996  0.1688
 6312TIP3   OH240350   5.333   4.830   4.640 -0.2005  0.1175 -0.4455
 6312TIP3    H140351   5.306   4.884   4.715 -0.9217  2.0985 -2.0469
 6312TIP3    H240352   5.303   4.742   4.663 -1.4157  0.8726  1.1108
 6313TIP3   OH240353   1.554   4.699  16.833  0.0775  0.3309  0.4102
 6313TIP3    H140354   1.545   4.794  16.841  1.0655  0.4134  0.7175
 6313TIP3    H240355   1.612   4.674  16.906 -0.7955 -0.6181  0.8022
 6314TIP3   OH240356   6.576   6.252   2.302  1.0073  0.2393  0.5016
 6314TIP3    H140357   6.660   6.292   2.276  0.9588  0.7541  1.1246
 6314TIP3    H240358   6.593   6.158   2.297  1.1546  0.3140 -0.8877
 6315TIP3   OH240359   0.054   2.518  17.344  0.2511  0.1090 -0.1085
 6315TIP3    H140360   0.103   2.524  17.426 -0.1715 -0.4987  0.1875
 6315TIP3    H240361   0.054   2.608  17.310  2.5219 -0.0354 -0.6854
 6316TIP3   OH240362   3.989   2.469  12.735 -0.1171  0.3447  0.3045
 6316TIP3    H140363   4.015   2.406  12.668 -0.1212  0.3070  0.3378
 6316TIP3    H240364   3.894   2.462  12.739 -0.0267 -0.6511  1.2730
 6317TIP3   OH240365   0.895   4.483  16.215 -0.0408 -0.3533  0.1104
 6317TIP3    H140366   0.832   4.502  16.145  1.3037  1.8453 -0.5909
 6317TIP3    H240367   0.964   4.432  16.172 -0.3534 -1.0520  0.4205
 6318TIP3   OH240368   1.269   1.625  10.944 -0.3869 -0.5621  1.0102
 6318TIP3    H140369   1.185   1.633  10.898  0.0547 -0.1139  0.2691
 6318TIP3    H240370   1.300   1.715  10.952 -0.2006 -0.6834  1.7290
 6319TIP3   OH240371   6.513   6.147   4.398 -0.4172 -0.1635  0.1216
 6319TIP3    H140372   6.569   6.225   4.392  0.9644 -1.1034  0.3061
 6319TIP3    H240373   6.476   6.138   4.311  0.6217 -0.1391 -0.3448
 6320TIP3   OH240374   0.712   4.253   2.308 -0.1606 -0.2536  0.2811
 6320TIP3    H140375   0.803   4.276   2.291 -0.7265  1.9138 -0.0577
 6320TIP3    H240376   0.717   4.171   2.358  2.0098  0.3876  1.2444
 6321TIP3   OH240377   5.902   1.304   1.353 -0.3167 -0.3124 -0.4216
 6321TIP3    H140378   5.963   1.326   1.424  0.4195 -1.3181 -0.7184
 6321TIP3    H240379   5.942   1.344   1.275 -0.3964 -0.3911 -0.5022
 6322TIP3   OH240380   2.171   4.055  13.772  0.7470  0.3931 -1.0730
 6322TIP3    H140381   2.164   3.985  13.837 -4.2051 -2.4146 -3.9892
 6322TIP3    H240382   2.118   4.127  13.808 -0.0110 -0.2107 -0.9531
 6323TIP3   OH240383   5.849   1.243   5.790 -0.4131 -0.0081  0.5159
 6323TIP3    H140384   5.795   1.184   5.738  0.8169 -0.2572 -0.5120
 6323TIP3    H240385   5.925   1.191   5.816 -0.3593  0.5075  1.4255
 6324TIP3   OH240386   4.512   3.432  14.401 -0.4380 -0.1312  0.3545
 6324TIP3    H140387   4.584   3.479  14.358  0.9363 -0.8140  1.8045
 6324TIP3    H240388   4.477   3.494  14.465 -0.6242 -0.0767  0.2027
 6325TIP3   OH240389   5.656   3.701  15.595 -0.2278  0.2536 -0.0113
 6325TIP3    H140390   5.709   3.715  15.673 -1.1915 -0.5156  0.8132
 6325TIP3    H240391   5.574   3.747  15.614 -0.7960 -0.6743 -0.1868
 6326TIP3   OH240392   1.412   1.977  17.320 -0.6637 -0.4055  0.2331
 6326TIP3    H140393   1.405   1.886  17.348  1.3816 -0.4802  0.5862
 6326TIP3    H240394   1.373   2.027  17.392  0.6184 -0.8623  1.2749
 6327TIP3   OH240395   6.456   3.511   3.557  0.2107 -0.5176  0.0886
 6327TIP3    H140396   6.374   3.519   3.606  1.3234 -0.1244  1.9824
 6327TIP3    H240397   6.493   3.427   3.585  1.8207  0.6086  1.5271
 6328TIP3   OH240398   2.736   0.751  13.107  0.0037 -0.3197  0.2023
 6328TIP3    H140399   2.655   0.721  13.067  0.7943 -1.9658 -0.2537
 6328TIP3    H240400   2.708   0.800  13.184 -1.6276  3.8463 -2.7276
 6329TIP3   OH240401   4.772   4.426  12.392 -0.1592  1.0893 -0.2066
 6329TIP3    H140402   4.729   4.354  12.438 -0.2717  0.7641 -0.8045
 6329TIP3    H240403   4.765   4.500  12.452  2.0251  0.0645  1.4456
 6330TIP3   OH240404   1.164   0.462   1.645 -0.2745 -0.1866 -0.4171
 6330TIP3    H140405   1.225   0.421   1.706  0.6366  0.1804 -1.0577
 6330TIP3    H240406   1.211   0.539   1.612 -1.1223  0.1611 -0.8525
 6331TIP3   OH240407   2.098   3.424  15.678 -0.3670  0.1565  0.4479
 6331TIP3    H140408   2.191   3.409  15.698  0.1266  1.4806 -0.6897
 6331TIP3    H240409   2.055   3.342  15.702  0.9278 -0.1341  1.9699
 6332TIP3   OH240410   1.448   1.078   6.500  0.4911 -0.9351 -0.0047
 6332TIP3    H140411   1.492   1.033   6.572  1.2182  1.9792  1.5655
 6332TIP3    H240412   1.362   1.103   6.536  0.9235  0.6842 -0.0024
 6333TIP3   OH240413   0.765   0.988  17.112  0.2264  0.0832 -0.1252
 6333TIP3    H140414   0.788   0.998  17.019 -0.3019  0.2302 -0.2432
 6333TIP3    H240415   0.672   0.967  17.111  0.3991 -0.7628  0.3322
 6334TIP3   OH240416   6.604   4.688  17.281  0.0933  0.4845 -0.0821
 6334TIP3    H140417   6.593   4.654  17.370  0.3261  0.2236 -0.1486
 6334TIP3    H240418   6.574   4.778  17.285 -0.5443  0.2665  0.1041
 6335TIP3   OH240419   3.008   1.575  12.625  0.1129  0.3173  0.0822
 6335TIP3    H140420   3.038   1.577  12.534 -1.0487  0.0846 -0.3295
 6335TIP3    H240421   3.009   1.482  12.648  0.8621  0.4182  0.4736
 6336TIP3   OH240422   2.535   4.890  16.823 -0.3057  0.2932 -0.0894
 6336TIP3    H140423   2.630   4.901  16.821 -0.2341  0.1385  1.2724
 6336TIP3    H240424   2.507   4.904  16.732  1.2217 -1.5461 -0.9273
 6337TIP3   OH240425   1.469   1.236  15.700 -0.0584  0.4956  0.8137
 6337TIP3    H140426   1.374   1.231  15.710 -0.2385  1.9807  0.1530
 6337TIP3    H240427   1.501   1.272  15.782  0.1376 -1.4315  1.6352
 6338TIP3   OH240428   4.342   1.124  17.001  0.4182  0.1501 -0.3196
 6338TIP3    H140429   4.282   1.092  16.933 -1.4872  0.8967  0.9277
 6338TIP3    H240430   4.322   1.217  17.009 -0.0002 -0.0738  1.8051
 6339TIP3   OH240431   1.628   3.582   0.430  0.4088 -0.0435 -0.0541
 6339TIP3    H140432   1.639   3.489   0.409  1.7835 -0.0226  0.4959
 6339TIP3    H240433   1.677   3.595   0.510  2.1768  1.6369 -1.3160
 6340TIP3   OH240434   6.611   3.037   1.801  0.3297  0.1031  0.6922
 6340TIP3    H140435   6.525   3.020   1.840 -0.6775  1.1504 -0.9744
 6340TIP3    H240436   6.640   2.951   1.770 -0.7251 -0.0645  0.1246
 6341TIP3   OH240437   1.309   4.278  17.023  0.4925 -0.1010  0.5010
 6341TIP3    H140438   1.288   4.208  16.961 -0.6301  1.3447 -0.8029
 6341TIP3    H240439   1.229   4.290  17.074  1.1121 -0.6296  1.6631
 6342TIP3   OH240440   0.002   6.751  16.737  0.4540  0.2143 -0.3074
 6342TIP3    H140441   0.006   6.663  16.774  1.0206  0.9633  1.5584
 6342TIP3    H240442  -0.071   6.793  16.783 -0.3954  0.4629 -1.8249
 6343TIP3   OH240443   6.130   6.211   3.188 -0.1326 -0.2677 -0.2575
 6343TIP3    H140444   6.113   6.135   3.245 -1.5714 -0.9744 -1.5335
 6343TIP3    H240445   6.218   6.239   3.211 -0.1708 -1.3265  1.3898
 6344TIP3   OH240446   5.382   2.240  17.358  0.2603  0.4240 -0.2141
 6344TIP3    H140447   5.399   2.254  17.451  0.1047 -0.2463 -0.0821
 6344TIP3    H240448   5.299   2.193  17.356  0.2941  0.3812 -0.6901
 6345TIP3   OH240449   0.954   2.803   5.460  0.8238 -0.0858 -0.2942
 6345TIP3    H140450   1.045   2.820   5.435  0.5153  1.6022 -0.3927
 6345TIP3    H240451   0.906   2.881   5.430 -0.6987 -1.0546 -0.4712
 6346TIP3   OH240452   3.619   4.937  16.785 -0.0974 -0.4897 -0.1177
 6346TIP3    H140453   3.702   4.936  16.738  0.1728 -0.7377  0.3602
 6346TIP3    H240454   3.613   5.026  16.821  0.5205 -0.8259  0.8259
 6347TIP3   OH240455   1.189   2.489  11.493 -0.4929 -0.3514 -0.0806
 6347TIP3    H140456   1.232   2.445  11.420  0.4654  2.5483 -1.4230
 6347TIP3    H240457   1.099   2.505  11.462 -0.0129  1.1086 -0.8031
 6348TIP3   OH240458   6.572   1.112   1.341 -0.0159  0.3298  0.0866
 6348TIP3    H140459   6.522   1.138   1.419 -0.0560 -0.9027  0.4957
 6348TIP3    H240460   6.519   1.143   1.268  0.5652  2.4937  0.5207
 6349TIP3   OH240461   1.727   3.365   0.587 -0.0491  0.0844 -0.3920
 6349TIP3    H140462   1.652   3.346   0.643  0.0331 -0.6778 -0.5276
 6349TIP3    H240463   1.803   3.348   0.643  0.0272  0.1091 -0.4886
 6350TIP3   OH240464   3.788   1.859  12.598  0.1707  0.6636  0.1598
 6350TIP3    H140465   3.797   1.934  12.657 -1.6565 -1.5060  3.4859
 6350TIP3    H240466   3.867   1.807  12.612 -1.3589 -1.1448  2.9185
 6351TIP3   OH240467   3.392   6.749  11.422  0.1256 -0.4489  0.1645
 6351TIP3    H140468   3.303   6.764  11.454  0.0069  0.4372 -0.5314
 6351TIP3    H240469   3.385   6.756  11.327  0.5964 -2.3080 -0.0422
 6352TIP3   OH240470   1.079   4.746   1.929  0.1865 -0.3098  0.3152
 6352TIP3    H140471   1.110   4.656   1.920  1.4335  0.2994 -2.2645
 6352TIP3    H240472   1.156   4.796   1.956  0.6866  0.5897 -2.4342
 6353TIP3   OH240473   0.176   6.407   0.967  0.2615 -0.0210  0.4142
 6353TIP3    H140474   0.270   6.389   0.967  0.2711  0.0078  1.0065
 6353TIP3    H240475   0.170   6.502   0.954  0.3295  0.0191  0.6558
 6354TIP3   OH240476   6.633   2.851  16.922 -0.1817  0.3798  0.0560
 6354TIP3    H140477   6.705   2.910  16.902  0.4120  0.3116  1.8454
 6354TIP3    H240478   6.676   2.772  16.956 -1.0837  0.1640  0.7094
 6355TIP3   OH240479   5.466   4.395   0.977  0.0661 -0.0614  0.2491
 6355TIP3    H140480   5.439   4.422   0.889 -0.4794  0.8795  0.6763
 6355TIP3    H240481   5.394   4.426   1.033  0.8017  0.1025  1.1110
 6356TIP3   OH240482   6.069   2.912  12.068  0.3713  0.9892  0.1056
 6356TIP3    H140483   6.092   3.000  12.097 -0.9693  0.8594  1.6672
 6356TIP3    H240484   5.974   2.907  12.078  0.5360 -1.0007  1.1789
 6357TIP3   OH240485   2.469   0.289  11.458 -0.5258  0.5710  0.2915
 6357TIP3    H140486   2.479   0.246  11.373 -0.5875  1.2774 -0.0820
 6357TIP3    H240487   2.555   0.281  11.499 -0.2952  0.8512 -0.1354
 6358TIP3   OH240488   6.479   2.193  15.670  0.2418  0.6652 -0.1904
 6358TIP3    H140489   6.490   2.285  15.644  0.4194  0.3457 -1.3031
 6358TIP3    H240490   6.391   2.170  15.641 -0.4587  0.9427  1.5986
 6359TIP3   OH240491   3.571   3.032  12.393  0.5471 -0.0387 -0.2412
 6359TIP3    H140492   3.516   3.006  12.319  1.0234  0.0115 -0.6203
 6359TIP3    H240493   3.597   2.950  12.434  1.3777 -0.1446 -0.9452
 6360TIP3   OH240494   3.852   6.050  13.076  0.1270  0.1633 -0.4667
 6360TIP3    H140495   3.857   6.145  13.085  2.1471  0.1974 -1.3972
 6360TIP3    H240496   3.897   6.016  13.154 -0.4445 -0.0367 -0.2180
 6361TIP3   OH240497   0.173   5.164  11.548 -0.1624 -0.6944  0.4491
 6361TIP3    H140498   0.262   5.194  11.530 -0.5244  0.6629  0.7567
 6361TIP3    H240499   0.124   5.185  11.468 -1.0025  2.1299  1.5672
 6362TIP3   OH240500   5.173   2.881  13.485 -0.7424  0.3955 -0.1910
 6362TIP3    H140501   5.131   2.961  13.517 -0.6900 -0.3243  1.8794
 6362TIP3    H240502   5.267   2.895  13.501 -0.7194  0.0076  0.0480
 6363TIP3   OH240503   4.905   5.662   5.570 -0.0254 -0.5512  0.0860
 6363TIP3    H140504   4.896   5.691   5.480 -1.7592 -1.5985 -0.1213
 6363TIP3    H240505   4.840   5.593   5.580  0.9924 -1.3417  1.7823
 6364TIP3   OH240506   5.736   2.589  14.129  0.3419 -0.1413  0.0400
 6364TIP3    H140507   5.787   2.556  14.056  1.2557 -0.6443  0.8916
 6364TIP3    H240508   5.760   2.681  14.136  2.2364 -0.6916  1.3085
 6365TIP3   OH240509   6.272   1.681  13.796 -0.2112  0.2546  0.3142
 6365TIP3    H140510   6.204   1.614  13.805  0.6373 -0.6924 -0.1098
 6365TIP3    H240511   6.317   1.682  13.880  0.9930 -1.1027 -0.2697
 6366TIP3   OH240512   6.277   1.581   5.437  0.9607  0.2277 -0.4370
 6366TIP3    H140513   6.343   1.547   5.497  1.1569  0.5306 -0.4839
 6366TIP3    H240514   6.197   1.533   5.460  0.9731  0.5326  0.2383
 6367TIP3   OH240515   3.952   3.055  14.504 -0.0499  0.4111  0.2960
 6367TIP3    H140516   3.947   3.094  14.591 -0.4007  0.4693  0.2487
 6367TIP3    H240517   3.935   3.128  14.444  2.0611  0.8021  0.0973
 6368TIP3   OH240518   0.634   6.210  14.146 -0.1772 -0.1975 -0.1018
 6368TIP3    H140519   0.700   6.142  14.157 -0.2639 -0.6112 -1.9343
 6368TIP3    H240520   0.675   6.275  14.089 -1.1397 -0.1719 -0.7827
 6369TIP3   OH240521   6.250   2.152   6.617  0.2359  0.3879  0.5898
 6369TIP3    H140522   6.165   2.146   6.659 -0.2415  0.3211 -0.3591
 6369TIP3    H240523   6.285   2.063   6.621  0.5253  0.5305  1.4869
 6370TIP3   OH240524   0.907   3.124  17.279 -0.0240  0.1667  0.6947
 6370TIP3    H140525   0.991   3.161  17.309 -1.5340  2.7582  2.1256
 6370TIP3    H240526   0.901   3.150  17.187 -0.4887  2.6916  1.3498
 6371TIP3   OH240527   4.714   4.917  14.705  0.3723  0.1704  0.5079
 6371TIP3    H140528   4.646   4.954  14.649 -0.0941  1.5442  1.8999
 6371TIP3    H240529   4.771   4.991  14.725  1.4383 -0.6421  0.5683
 6372TIP3   OH240530   2.918   1.166  11.784 -0.1040  0.0623  0.8310
 6372TIP3    H140531   2.842   1.223  11.770 -0.6561 -0.9750 -0.5897
 6372TIP3    H240532   2.993   1.219  11.758 -0.4051  0.7952  1.4116
 6373TIP3   OH240533   6.109   5.260   0.151 -0.0251 -0.2544 -0.1378
 6373TIP3    H140534   6.152   5.344   0.165  0.5968 -0.4826 -0.6231
 6373TIP3    H240535   6.094   5.257   0.056 -1.6107  0.0542  0.0647
 6374TIP3   OH240536   4.037   6.279   1.849 -0.4064  1.1872  0.6084
 6374TIP3    H140537   4.073   6.266   1.761 -2.0328  1.6022 -0.1421
 6374TIP3    H240538   4.114   6.289   1.905  0.7062 -0.5234 -0.5132
 6375TIP3   OH240539   0.735   0.413  14.397 -0.3380  0.0577 -0.9772
 6375TIP3    H140540   0.677   0.401  14.472  1.4211 -2.1946  0.1327
 6375TIP3    H240541   0.816   0.370  14.422  0.7701  0.3733 -3.6951
 6376TIP3   OH240542   3.358   3.919   6.261 -0.3938  0.4375  0.3239
 6376TIP3    H140543   3.433   3.866   6.289  0.2093  0.7555 -0.6820
 6376TIP3    H240544   3.319   3.949   6.344 -0.0635 -0.6127  0.8840
 6377TIP3   OH240545   3.748   6.238  13.970 -0.3730  0.1191 -0.4112
 6377TIP3    H140546   3.786   6.170  13.915  0.0972 -0.1760  0.2605
 6377TIP3    H240547   3.820   6.297  13.989 -0.2715 -0.3241  0.6921
 6378TIP3   OH240548   0.477   0.269  11.291  0.6121 -0.2677  0.8619
 6378TIP3    H140549   0.409   0.327  11.324  1.8360  0.9069  1.4316
 6378TIP3    H240550   0.523   0.240  11.370  0.8166 -0.9755  0.4846
 6379TIP3   OH240551   1.853   5.923  14.303  0.1972  0.2846 -0.5253
 6379TIP3    H140552   1.919   5.872  14.256  0.4536 -1.2747  1.3891
 6379TIP3    H240553   1.887   6.012  14.305  2.0551 -0.4031  0.0574
 6380TIP3   OH240554   0.793   0.585  15.449 -0.1844  0.3191 -0.2850
 6380TIP3    H140555   0.886   0.583  15.425 -0.4620 -0.9820 -1.3286
 6380TIP3    H240556   0.786   0.660  15.508  1.6147  0.1540  0.2020
 6381TIP3   OH240557   4.990   3.218   5.309 -0.5292  0.5261  0.0569
 6381TIP3    H140558   4.965   3.290   5.251  0.1713  2.6942  2.3051
 6381TIP3    H240559   4.917   3.210   5.370 -1.6294 -2.2734 -1.4096
 6382TIP3   OH240560   4.137   4.083  12.213  0.2472 -0.0503  0.0473
 6382TIP3    H140561   4.192   4.108  12.138 -0.0537  2.8885  0.6890
 6382TIP3    H240562   4.064   4.145  12.212  0.3406  0.2523  2.8645
 6383TIP3   OH240563   4.241   4.420  12.145  0.6699  0.2919 -0.4655
 6383TIP3    H140564   4.332   4.415  12.174  0.4883 -1.5762 -0.0818
 6383TIP3    H240565   4.238   4.367  12.065  0.1898  1.5300 -1.3059
 6384TIP3   OH240566   6.611   2.624   3.011 -0.0114  0.9621  0.2177
 6384TIP3    H140567   6.598   2.718   3.019 -0.0072  0.9838 -0.0377
 6384TIP3    H240568   6.627   2.609   2.918 -0.6883  0.6260  0.1493
 6385TIP3   OH240569   6.635   3.812  12.917  0.4790 -0.1513  0.4278
 6385TIP3    H140570   6.693   3.888  12.923  0.8104 -0.3733  0.0724
 6385TIP3    H240571   6.664   3.766  12.839 -0.0655 -0.3627  0.3442
 6386TIP3   OH240572   4.846   0.810  14.501  0.1858 -0.0563  0.3213
 6386TIP3    H140573   4.914   0.877  14.510 -0.6403  0.9657 -0.7143
 6386TIP3    H240574   4.853   0.780  14.410 -1.8609  1.3689 -0.3821
 6387TIP3   OH240575   2.822   5.202  16.850 -0.1380  0.0597 -0.2966
 6387TIP3    H140576   2.828   5.276  16.911 -0.1547  0.8182 -1.1968
 6387TIP3    H240577   2.807   5.126  16.906 -2.6684  1.0591  0.5447
 6388TIP3   OH240578   5.436   0.130   0.025  0.0053 -0.6022  1.2787
 6388TIP3    H140579   5.478   0.135   0.111  2.4387 -0.4586  0.1663
 6388TIP3    H240580   5.450   0.040  -0.003 -0.2319 -0.4894  0.7821
 6389TIP3   OH240581   3.134   2.261  15.087 -0.2014 -0.0326  0.3792
 6389TIP3    H140582   3.080   2.244  15.010  0.5362 -1.5248  0.1600
 6389TIP3    H240583   3.092   2.211  15.157 -0.4663  0.7539  0.7952
 6390TIP3   OH240584   6.717   2.920   3.730 -0.2546 -0.0400 -0.3523
 6390TIP3    H140585   6.733   2.882   3.816 -2.7975  1.0630  0.7090
 6390TIP3    H240586   6.702   3.013   3.747 -3.8188 -0.2759 -1.4494
 6391TIP3   OH240587   5.384   1.856  12.617  0.2432 -0.3448 -0.4076
 6391TIP3    H140588   5.351   1.771  12.589 -0.5174  0.0715 -0.8053
 6391TIP3    H240589   5.459   1.835  12.673  0.3330 -1.2579 -0.8460
 6392TIP3   OH240590   0.201   4.252   1.343 -0.4340 -0.0296  0.2878
 6392TIP3    H140591   0.223   4.259   1.251  1.6418 -1.0275  0.6508
 6392TIP3    H240592   0.150   4.331   1.362 -0.4743  0.4260 -1.5657
 6393TIP3   OH240593   4.668   1.930  16.837  0.0684  0.2480  0.7566
 6393TIP3    H140594   4.678   1.843  16.875 -1.8819  0.1644  1.1445
 6393TIP3    H240595   4.732   1.984  16.884 -0.4690 -0.4161  2.3054
 6394TIP3   OH240596   1.593   6.238   2.734  0.0545  0.2096 -0.7884
 6394TIP3    H140597   1.508   6.282   2.729  0.9073  2.0366 -0.2251
 6394TIP3    H240598   1.578   6.161   2.788 -0.9759  1.2658  0.4970
 6395TIP3   OH240599   6.360   0.769  10.926 -0.3560 -0.0225 -0.2457
 6395TIP3    H140600   6.332   0.677  10.918  1.0559 -0.4873 -0.1200
 6395TIP3    H240601   6.375   0.797  10.836  1.3635 -0.6461 -0.1936
 6396TIP3   OH240602   4.156   4.801   5.186 -0.0481 -0.1370  0.8169
 6396TIP3    H140603   4.077   4.779   5.234 -1.2717 -1.6957 -1.6740
 6396TIP3    H240604   4.132   4.878   5.133  0.3977 -0.0415  0.7495
 6397TIP3   OH240605   2.698   5.244   2.070 -0.1543 -0.1077  0.0302
 6397TIP3    H140606   2.637   5.315   2.090  0.1994  0.2269 -0.0655
 6397TIP3    H240607   2.755   5.280   2.001  0.2116 -0.3758  0.1884
 6398TIP3   OH240608   4.612   4.592   3.857  0.3583 -0.1208  0.0219
 6398TIP3    H140609   4.604   4.636   3.941  1.0400 -0.6960  0.3962
 6398TIP3    H240610   4.534   4.619   3.808 -0.1495  0.0456  0.9116
 6399TIP3   OH240611   0.227   4.569   3.222  0.0538  0.1023  0.2086
 6399TIP3    H140612   0.242   4.570   3.316 -0.2981 -0.9465  0.2998
 6399TIP3    H240613   0.141   4.610   3.210 -0.8078 -1.5008  0.5730
 6400TIP3   OH240614   0.123   1.058   5.202 -0.2086 -0.5719 -0.1692
 6400TIP3    H140615   0.205   1.043   5.247 -0.3134 -1.3015 -0.1965
 6400TIP3    H240616   0.147   1.066   5.109  0.0100  0.9704  0.0099
 6401TIP3   OH240617   1.665   1.035  13.827  0.8502  0.6239  0.9189
 6401TIP3    H140618   1.590   1.092  13.808  1.8752  1.3435 -1.2767
 6401TIP3    H240619   1.736   1.097  13.847  1.3607  0.0254  0.9646
 6402TIP3   OH240620   5.041   2.595   6.681 -0.4227  0.4382 -0.0115
 6402TIP3    H140621   5.052   2.684   6.712 -0.1674  0.3322  0.2043
 6402TIP3    H240622   5.093   2.590   6.601  0.1913  0.2608  0.3971
 6403TIP3   OH240623   2.747   3.027  16.085  0.1565 -0.2947 -0.0106
 6403TIP3    H140624   2.701   3.067  16.159  0.5921  0.6548 -0.2385
 6403TIP3    H240625   2.688   2.957  16.055  0.6501 -1.7549  2.2005
 6404TIP3   OH240626   2.865   6.546  11.080 -0.0170  0.0763  0.2583
 6404TIP3    H140627   2.793   6.520  11.022 -2.4451  2.5487  1.9405
 6404TIP3    H240628   2.852   6.639  11.094  1.3669 -0.0997  3.5278
 6405TIP3   OH240629   5.437   4.811  14.997  0.6028  0.8007  0.0896
 6405TIP3    H140630   5.502   4.782  15.061 -0.0577  1.6609  1.1806
 6405TIP3    H240631   5.482   4.805  14.913  1.1164 -1.4555  0.4787
 6406TIP3   OH240632   3.885   6.255  14.749 -0.2501 -0.0758  0.1611
 6406TIP3    H140633   3.790   6.265  14.753 -0.4484 -1.6791 -0.1376
 6406TIP3    H240634   3.900   6.161  14.743  1.2548  0.2434 -2.6167
 6407TIP3   OH240635   0.165   1.741  12.682  0.1972  0.5156  0.8732
 6407TIP3    H140636   0.165   1.831  12.650 -4.3321  0.6312  0.5319
 6407TIP3    H240637   0.200   1.690  12.610 -1.8216  1.6241 -1.0227
 6408TIP3   OH240638   6.596   1.398  15.143 -0.0716  0.3983 -0.1823
 6408TIP3    H140639   6.634   1.373  15.059 -0.3361  0.1059 -0.2187
 6408TIP3    H240640   6.620   1.490  15.154  3.5907 -0.5830  1.4082
 6409TIP3   OH240641   4.304   0.022   0.636  0.7601  0.5061 -0.4337
 6409TIP3    H140642   4.279   0.112   0.616 -0.7753  0.0713 -0.6161
 6409TIP3    H240643   4.221  -0.027   0.633  1.5586 -0.9026 -0.3095
 6410TIP3   OH240644   1.516   1.687  13.175 -0.0816 -0.0074  0.4260
 6410TIP3    H140645   1.447   1.675  13.241  1.7850 -1.1163  2.3006
 6410TIP3    H240646   1.509   1.611  13.118 -3.2870  2.1295 -2.3702
 6411TIP3   OH240647   2.861   2.717   3.547  0.1017 -0.1686  0.0837
 6411TIP3    H140648   2.954   2.704   3.563  0.2722  0.0015 -0.7405
 6411TIP3    H240649   2.857   2.761   3.462 -0.6746  0.9005  0.6530
 6412TIP3   OH240650   3.200   3.309  16.941 -0.0061  0.7378  0.2349
 6412TIP3    H140651   3.157   3.227  16.916  2.2067 -0.1053 -1.0973
 6412TIP3    H240652   3.142   3.377  16.907 -0.6611 -0.3193 -0.8503
 6413TIP3   OH240653   3.056   3.799  15.130 -0.2197  0.4025  0.5947
 6413TIP3    H140654   2.971   3.803  15.085 -1.1194  0.5982  2.2206
 6413TIP3    H240655   3.113   3.854  15.076 -1.5631  1.6131  0.3160
 6414TIP3   OH240656   5.079   3.864  12.581  0.3530  0.1067  0.4551
 6414TIP3    H140657   5.138   3.798  12.546  0.8051  0.7069  0.0665
 6414TIP3    H240658   5.129   3.907  12.650  0.3819  0.6289  0.1128
 6415TIP3   OH240659   4.480   5.311   0.895 -0.2393  0.4236  0.1652
 6415TIP3    H140660   4.504   5.367   0.970 -0.1554  0.9348 -0.2364
 6415TIP3    H240661   4.454   5.373   0.827 -0.1286 -0.0328 -0.2953
 6416TIP3   OH240662   2.620   2.194  16.130 -0.3301  0.0270  0.3890
 6416TIP3    H140663   2.659   2.213  16.215  0.8951  0.8917 -0.3477
 6416TIP3    H240664   2.564   2.118  16.146 -1.1086  0.9153  2.2303
 6417TIP3   OH240665   2.580   6.455   1.426  0.4241 -0.7356  0.0284
 6417TIP3    H140666   2.625   6.440   1.509  0.2502 -0.5632  0.1546
 6417TIP3    H240667   2.525   6.377   1.415  1.3984 -1.3558 -0.5565
 6418TIP3   OH240668   6.657   2.956   2.734  0.1656  0.1910  0.5700
 6418TIP3    H140669   6.615   2.922   2.655 -0.8376  0.9952  0.7390
 6418TIP3    H240670   6.697   3.038   2.706 -1.1236  1.0388  1.1043
 6419TIP3   OH240671   1.810   2.144   5.756 -0.0320 -0.2818  0.2707
 6419TIP3    H140672   1.892   2.101   5.732 -0.3016 -0.9409  0.5037
 6419TIP3    H240673   1.803   2.132   5.851 -1.4851 -2.2283 -0.0124
 6420TIP3   OH240674   1.215   4.565  17.079  0.3919 -0.4261 -0.5678
 6420TIP3    H140675   1.236   4.547  16.987 -0.2888 -1.6944 -0.4898
 6420TIP3    H240676   1.301   4.568  17.122  0.6391 -2.2575 -0.8389
 6421TIP3   OH240677   2.726   3.909  16.627 -0.3211  0.3640 -0.0607
 6421TIP3    H140678   2.743   3.818  16.606  0.4942  0.4723  0.1050
 6421TIP3    H240679   2.638   3.909  16.666  0.3321 -0.6152  1.5315
 6422TIP3   OH240680   3.586   4.175   4.788  0.1997 -0.3243 -0.0644
 6422TIP3    H140681   3.671   4.211   4.762  0.2984 -0.5730 -0.0861
 6422TIP3    H240682   3.549   4.241   4.846  0.5644 -0.3715  0.2262
 6423TIP3   OH240683   3.735   0.268  14.204 -0.0876  0.4959 -0.0455
 6423TIP3    H140684   3.792   0.285  14.129 -1.0072  0.1777 -0.8327
 6423TIP3    H240685   3.726   0.172  14.206  0.9379  0.3908  1.2572
 6424TIP3   OH240686   2.426   4.614   5.719 -0.2117  0.8504  0.1144
 6424TIP3    H140687   2.346   4.568   5.746 -0.3564  0.4710 -0.9420
 6424TIP3    H240688   2.488   4.545   5.698 -0.4764  1.1039 -1.6230
 6425TIP3   OH240689   3.576   5.471   0.141  0.0021  0.2375 -0.2740
 6425TIP3    H140690   3.594   5.519   0.060 -1.3830 -1.2262 -1.5088
 6425TIP3    H240691   3.507   5.521   0.184 -0.4946  0.0700 -0.8759
 6426TIP3   OH240692   1.912   0.918  11.919  0.1772 -0.4638 -0.1230
 6426TIP3    H140693   1.983   0.966  11.876  0.5567 -1.4453 -0.6124
 6426TIP3    H240694   1.832   0.965  11.894  0.6002  0.3696  0.0537
 6427TIP3   OH240695   1.869   2.305  14.217 -0.4731 -0.3056 -0.5544
 6427TIP3    H140696   1.860   2.362  14.294 -2.2029 -1.2579  0.0046
 6427TIP3    H240697   1.961   2.313  14.192  0.0531  0.3361  1.3838
 6428TIP3   OH240698   0.174   6.315  11.931 -0.3585 -0.1204 -0.0404
 6428TIP3    H140699   0.258   6.349  11.901  0.0716  0.4209  1.6923
 6428TIP3    H240700   0.120   6.311  11.851  0.9539  0.5296 -0.9942
 6429TIP3   OH240701   2.620   0.878  13.315 -0.2009  0.4322  0.1934
 6429TIP3    H140702   2.526   0.880  13.334 -0.4354  0.2812 -0.9228
 6429TIP3    H240703   2.646   0.970  13.315 -0.2655  0.4602  0.8366
 6430TIP3   OH240704   5.995   5.110  11.494  0.0810  0.0500 -0.1394
 6430TIP3    H140705   6.032   5.157  11.419 -0.6987 -0.9463 -1.1747
 6430TIP3    H240706   5.903   5.097  11.471  0.5038 -2.9878 -0.4295
 6431TIP3   OH240707   5.449   0.857   5.202  0.1758 -0.3080  0.0604
 6431TIP3    H140708   5.453   0.902   5.118 -0.2981 -0.1147  0.1430
 6431TIP3    H240709   5.424   0.924   5.265  1.2346 -0.2852  0.4848
 6432TIP3   OH240710   0.763   2.791   4.461  0.2369 -0.1654 -0.2268
 6432TIP3    H140711   0.800   2.724   4.519 -0.1277  0.3131  0.5663
 6432TIP3    H240712   0.702   2.840   4.516  0.0689  0.4572 -0.9517
 6433TIP3   OH240713   5.770   6.580  11.833 -0.1051  0.1303  0.2853
 6433TIP3    H140714   5.723   6.648  11.882 -1.6683 -1.1426  0.6475
 6433TIP3    H240715   5.780   6.617  11.746  0.1409  1.2957  0.7876
 6434TIP3   OH240716   2.577   2.963   6.064  0.4596 -0.1183 -0.1012
 6434TIP3    H140717   2.517   2.899   6.024 -0.6379  1.8565 -1.8217
 6434TIP3    H240718   2.596   2.927   6.151 -1.1469 -2.1021 -0.4892
 6435TIP3   OH240719   4.649   2.571  12.278 -0.4256  0.5903 -0.0076
 6435TIP3    H140720   4.721   2.530  12.229 -1.3796 -1.4673  0.2170
 6435TIP3    H240721   4.688   2.651  12.314  1.7643 -0.4237  0.0704
 6436TIP3   OH240722   3.417   3.833  14.852 -0.6454  0.0683  0.0264
 6436TIP3    H140723   3.355   3.843  14.781  0.0910 -0.8862 -0.7870
 6436TIP3    H240724   3.473   3.760  14.825 -0.4446 -0.4216  1.6511
 6437TIP3   OH240725   0.385   6.595  12.435 -0.2218 -0.5684  0.6044
 6437TIP3    H140726   0.434   6.607  12.354  0.3078 -3.1576  0.4738
 6437TIP3    H240727   0.416   6.666  12.492  1.7645 -0.5854 -0.3596
 6438TIP3   OH240728   0.736   5.817   0.925  0.1974  0.2899 -0.0814
 6438TIP3    H140729   0.659   5.763   0.936  0.1987  0.6427  1.9773
 6438TIP3    H240730   0.809   5.761   0.952  0.4294  0.6327  0.0123
 6439TIP3   OH240731   3.488   1.647  15.478  0.7209 -0.1246 -0.1440
 6439TIP3    H140732   3.482   1.725  15.534  2.0580  1.3574 -1.9481
 6439TIP3    H240733   3.565   1.662  15.424 -0.3933 -1.5585 -2.2725
 6440TIP3   OH240734   5.663   6.723  13.629 -0.5859 -0.8310 -0.7413
 6440TIP3    H140735   5.588   6.760  13.583 -1.1713 -1.1439 -0.0594
 6440TIP3    H240736   5.645   6.738  13.722 -1.0485 -3.1354 -0.3907
 6441TIP3   OH240737   0.225   6.323   4.436 -0.0845 -0.1595  0.3558
 6441TIP3    H140738   0.255   6.362   4.518 -0.1003  1.5366 -0.4039
 6441TIP3    H240739   0.172   6.391   4.394  0.4379 -0.7407 -1.3511
 6442TIP3   OH240740   6.059   5.697   1.061 -0.2289  0.3760  0.3293
 6442TIP3    H140741   5.974   5.671   1.096  0.2976 -1.9214  0.0016
 6442TIP3    H240742   6.049   5.695   0.966  0.3296 -0.4164  0.2804
 6443TIP3   OH240743   1.222   1.861   3.477 -0.0959 -0.0066  0.0692
 6443TIP3    H140744   1.266   1.784   3.441  1.2029 -0.8179  3.0445
 6443TIP3    H240745   1.150   1.824   3.529  0.2151  0.7924  1.0900
 6444TIP3   OH240746   5.060   1.423  14.369 -0.7975  0.1014  0.3956
 6444TIP3    H140747   5.006   1.501  14.373 -1.4595 -0.1987 -1.7059
 6444TIP3    H240748   5.006   1.358  14.324  0.3813 -1.0291  0.5298
 6445TIP3   OH240749   5.813   1.825   5.690 -0.4537 -0.5496  0.2907
 6445TIP3    H140750   5.759   1.765   5.638 -0.4011  0.7940 -1.4037
 6445TIP3    H240751   5.898   1.782   5.696 -0.7488 -1.1664  0.1033
 6446TIP3   OH240752   6.005   2.667  14.553  0.6167  0.0406  0.0941
 6446TIP3    H140753   6.094   2.694  14.532  1.0686 -0.9446  0.6851
 6446TIP3    H240754   5.987   2.707  14.638  0.4684  0.3022 -0.0608
 6447TIP3   OH240755   2.620   6.388  11.578 -0.7960 -0.6154 -0.4347
 6447TIP3    H140756   2.556   6.451  11.544  0.3599  0.3103 -0.9487
 6447TIP3    H240757   2.647   6.336  11.502  0.6209  0.4136 -0.6703
 6448TIP3   OH240758   2.987   6.110   1.792 -0.1462 -0.3730  0.1945
 6448TIP3    H140759   3.008   6.021   1.763 -0.5682 -1.2965  2.5206
 6448TIP3    H240760   3.069   6.158   1.783  0.8864 -1.7969  1.6232
 6449TIP3   OH240761   1.930   5.674  15.136  0.2853  0.9488  0.3804
 6449TIP3    H140762   1.934   5.660  15.042 -0.7590 -0.7379  0.5508
 6449TIP3    H240763   1.836   5.683  15.155  0.5534  2.6731  1.1086
 6450TIP3   OH240764   0.166   0.848   5.554  0.8162  0.2480  0.6663
 6450TIP3    H140765   0.114   0.855   5.634 -0.6416 -0.0378 -0.2074
 6450TIP3    H240766   0.219   0.770   5.567 -2.0659 -2.0119 -0.0178
 6451TIP3   OH240767   1.123   6.560  12.833 -0.3015  0.6313  0.1000
 6451TIP3    H140768   1.040   6.592  12.797  0.3212  2.4027  0.1126
 6451TIP3    H240769   1.097   6.495  12.898 -1.7430  1.6520  0.6207
 6452TIP3   OH240770   3.550   5.245  11.625  0.4935  0.4070  0.1882
 6452TIP3    H140771   3.495   5.300  11.681 -0.2182 -0.1643  0.0692
 6452TIP3    H240772   3.559   5.163  11.673 -0.1774 -0.1129 -0.5383
 6453TIP3   OH240773   0.581   1.800  14.705  0.1467  0.0899 -0.2176
 6453TIP3    H140774   0.554   1.751  14.782 -0.1117 -1.0101 -0.9843
 6453TIP3    H240775   0.584   1.891  14.734 -0.0439 -0.2905  1.0516
 6454TIP3   OH240776   3.144   6.546   0.132 -0.4620  0.0861 -0.3752
 6454TIP3    H140777   3.132   6.626   0.081  0.8733  0.5554  0.0105
 6454TIP3    H240778   3.081   6.484   0.094 -1.3047  1.2061 -0.8764
 6455TIP3   OH240779   0.826   1.301   1.510  0.3113  0.0706  0.3226
 6455TIP3    H140780   0.789   1.253   1.584 -0.5077  1.9938  1.2628
 6455TIP3    H240781   0.751   1.320   1.454  1.1311 -2.6704 -1.9090
 6456TIP3   OH240782   5.729   5.325   2.067 -0.2451  0.4961  0.3479
 6456TIP3    H140783   5.818   5.324   2.101 -0.4901  0.3194  1.0017
 6456TIP3    H240784   5.716   5.239   2.029  0.1103  0.7733 -0.4089
 6457TIP3   OH240785   6.565   1.447  16.275 -0.8472  0.3179  0.1864
 6457TIP3    H140786   6.568   1.534  16.235  1.8225  1.0762  1.8327
 6457TIP3    H240787   6.523   1.461  16.360 -0.1323  0.0712  0.5848
 6458TIP3   OH240788   1.933   1.952   2.146  0.7310  0.0759 -0.5053
 6458TIP3    H140789   1.891   2.037   2.159  0.3321  0.0606 -1.6285
 6458TIP3    H240790   1.906   1.900   2.221 -0.6041  0.3302 -0.7957
 6459TIP3   OH240791   2.913   0.032   4.321  0.4893  0.0743 -0.1085
 6459TIP3    H140792   2.842   0.042   4.384  0.5176  0.7507 -0.1794
 6459TIP3    H240793   2.909  -0.060   4.295 -0.0162 -0.0217  0.2914
 6460TIP3   OH240794   5.968   5.902   0.614  0.1705  0.4678 -0.0484
 6460TIP3    H140795   6.001   5.844   0.683 -0.6901 -0.4220 -0.3594
 6460TIP3    H240796   5.951   5.844   0.540 -0.0575  1.2316 -0.6042
 6461TIP3   OH240797   3.301   0.989   6.126 -0.1396 -0.4339 -0.2363
 6461TIP3    H140798   3.327   1.044   6.200  2.6739  0.7859 -1.9907
 6461TIP3    H240799   3.351   0.908   6.138 -2.2801 -1.6903  0.9110
 6462TIP3   OH240800   0.869   4.032   6.820 -0.1926  0.0437 -0.6931
 6462TIP3    H140801   0.881   4.106   6.761 -1.6185 -0.8565 -2.2085
 6462TIP3    H240802   0.794   4.058   6.875  0.6077  0.5379  0.1922
 6463TIP3   OH240803   0.254   2.332  13.826  0.0504 -0.1701 -0.3522
 6463TIP3    H140804   0.300   2.411  13.800  1.2930 -0.4305  0.9482
 6463TIP3    H240805   0.221   2.352  13.914  0.2732 -1.0603 -0.0641
 6464TIP3   OH240806   0.869   4.830   4.850 -0.8004 -0.1334 -0.3412
 6464TIP3    H140807   0.816   4.789   4.918  0.7099 -1.3688  0.1556
 6464TIP3    H240808   0.836   4.794   4.768 -3.9188  2.7929 -0.5607
 6465TIP3   OH240809   0.010   6.289  11.701 -0.2152  0.7830  0.3410
 6465TIP3    H140810  -0.001   6.302  11.607  0.2540 -1.3467 -0.0681
 6465TIP3    H240811  -0.068   6.240  11.728  0.7109 -0.6180  0.5702
 6466TIP3   OH240812   2.629   5.374  14.749  0.2565 -0.0969  0.3850
 6466TIP3    H140813   2.593   5.348  14.834  0.8323 -2.2509  0.0469
 6466TIP3    H240814   2.559   5.423  14.707 -0.7684 -0.7055  1.3366
 6467TIP3   OH240815   0.549   6.148   0.066 -0.0961 -0.5241 -0.1389
 6467TIP3    H140816   0.477   6.149   0.002  0.6450 -0.3836 -0.9872
 6467TIP3    H240817   0.628   6.136   0.013  0.5064 -0.7127  0.7861
 6468TIP3   OH240818   3.946   1.823  13.898 -0.2559  0.0218  0.4043
 6468TIP3    H140819   4.030   1.868  13.899 -1.7185  3.2301 -1.7685
 6468TIP3    H240820   3.897   1.860  13.971 -0.5888 -0.0164  0.2053
 6469TIP3   OH240821   5.679   4.454   1.708  0.0444  0.4189  0.5488
 6469TIP3    H140822   5.605   4.514   1.696  0.1210  0.3799 -0.1540
 6469TIP3    H240823   5.694   4.454   1.803  0.3031  1.8143  0.5297
 6470TIP3   OH240824   2.806   3.983  11.949  0.1557 -0.2308  0.3298
 6470TIP3    H140825   2.846   3.933  12.020  0.6909 -1.5894 -0.8816
 6470TIP3    H240826   2.722   3.939  11.934  1.0602 -1.4826 -1.4132
 6471TIP3   OH240827   1.523   3.521   3.614  0.0603 -0.1789 -0.0592
 6471TIP3    H140828   1.549   3.562   3.532  0.2390 -0.4836 -0.1559
 6471TIP3    H240829   1.466   3.449   3.588 -1.9578  1.2110  0.1885
 6472TIP3   OH240830   4.440   6.225   3.949  0.0652  0.0609 -0.1050
 6472TIP3    H140831   4.526   6.240   3.988  1.0130  1.1849 -2.4292
 6472TIP3    H240832   4.433   6.291   3.881 -2.5484 -0.2025 -0.1885
 6473TIP3   OH240833   4.498   2.137  16.136  0.0861  0.2653  0.2547
 6473TIP3    H140834   4.542   2.079  16.074  2.5906  1.8822  0.3581
 6473TIP3    H240835   4.553   2.134  16.214 -0.6551  1.4902  0.8519
 6474TIP3   OH240836   3.784   6.375   5.324  0.0936 -0.1389 -0.2644
 6474TIP3    H140837   3.851   6.337   5.380 -0.5796 -0.9731  0.0023
 6474TIP3    H240838   3.772   6.311   5.254 -0.7561 -0.2458 -0.0418
 6475TIP3   OH240839   4.594   4.489   0.631  0.2728  0.0753 -0.2436
 6475TIP3    H140840   4.520   4.488   0.570 -1.0961 -2.9792  1.2566
 6475TIP3    H240841   4.559   4.533   0.709 -0.3250 -2.0489  0.7520
 6476TIP3   OH240842   4.932   1.283  13.483  0.0562  0.2959  0.0679
 6476TIP3    H140843   4.888   1.230  13.549 -0.6693  2.3251  1.2982
 6476TIP3    H240844   4.895   1.370  13.493 -0.3578  0.6364 -3.3082
 6477TIP3   OH240845   1.357   1.251   4.741  0.6660 -0.2725 -0.1904
 6477TIP3    H140846   1.405   1.319   4.789  0.2275  0.3663 -0.6515
 6477TIP3    H240847   1.422   1.183   4.725  0.9569 -0.2464  0.8191
 6478TIP3   OH240848   5.424   5.159  17.063 -0.3552 -0.4210  0.0358
 6478TIP3    H140849   5.336   5.124  17.047 -2.0933  3.7059 -0.8437
 6478TIP3    H240850   5.435   5.155  17.158 -1.3570 -1.2197  0.1357
 6479TIP3   OH240851   2.809   4.665   0.044 -0.6265 -0.4375  0.7478
 6479TIP3    H140852   2.741   4.610   0.004  0.0869  0.3842 -1.7587
 6479TIP3    H240853   2.890   4.615   0.031 -0.3713 -0.1472  1.2064
 6480TIP3   OH240854   2.665   3.181  15.822 -0.5259 -0.1257 -0.3350
 6480TIP3    H140855   2.577   3.193  15.859 -0.0571  1.7457  0.3082
 6480TIP3    H240856   2.721   3.165  15.898 -0.1888 -0.4694 -0.6536
 6481TIP3   OH240857   6.562   2.501   2.771  0.5566 -1.0099 -0.2316
 6481TIP3    H140858   6.470   2.520   2.757  0.6506  1.9243  2.0087
 6481TIP3    H240859   6.607   2.546   2.700  0.3224 -2.2411 -1.1880
 6482TIP3   OH240860   0.161   2.556   5.569  0.4909  0.7014 -0.0322
 6482TIP3    H140861   0.244   2.574   5.614  0.0562  4.5180 -0.4569
 6482TIP3    H240862   0.110   2.507   5.633  2.1633  0.4158  1.1624
 6483TIP3   OH240863   3.718   5.292  16.102 -0.3466  0.0696 -0.0843
 6483TIP3    H140864   3.796   5.344  16.122 -0.4561 -0.1970  1.0880
 6483TIP3    H240865   3.708   5.233  16.176 -3.9288  2.7785  1.9541
 6484TIP3   OH240866   2.365   1.589   4.481  0.0401  0.0878  0.2131
 6484TIP3    H140867   2.275   1.564   4.503  0.3014  0.1698  1.4464
 6484TIP3    H240868   2.366   1.592   4.386 -1.1779 -0.2431  0.1691
 6485TIP3   OH240869   3.624   5.187   3.640 -0.0530 -0.2404 -0.1720
 6485TIP3    H140870   3.624   5.190   3.544 -0.5322  0.0124 -0.1657
 6485TIP3    H240871   3.532   5.180   3.664 -0.2286  2.8056  0.3690
 6486TIP3   OH240872   2.401   3.213  14.220  0.2538 -0.1943 -0.3115
 6486TIP3    H140873   2.344   3.283  14.189  0.1107 -0.6498 -1.1337
 6486TIP3    H240874   2.356   3.132  14.193  0.4852 -0.6005  0.4840
 6487TIP3   OH240875   3.398   2.845  12.209  0.2656  0.2826  0.2320
 6487TIP3    H140876   3.332   2.794  12.256  0.1406  1.4995  1.4458
 6487TIP3    H240877   3.460   2.780  12.177 -1.0267 -0.8093 -0.1532
 6488TIP3   OH240878   2.966   2.271  13.736  0.3243 -0.0716  0.3258
 6488TIP3    H140879   3.005   2.277  13.823 -0.4212  1.3899  0.5952
 6488TIP3    H240880   2.951   2.362  13.710 -1.1405 -0.5313 -0.5585
 6489TIP3   OH240881   5.218   2.118   6.541 -0.1990 -0.0459 -0.2019
 6489TIP3    H140882   5.310   2.131   6.564 -0.4916  1.3667  0.2849
 6489TIP3    H240883   5.170   2.142   6.619 -1.0490  1.0825 -1.0365
 6490TIP3   OH240884   5.158   6.643   0.721  0.0583 -0.4190 -0.1284
 6490TIP3    H140885   5.249   6.657   0.744  0.1091  0.6916 -0.8872
 6490TIP3    H240886   5.140   6.710   0.654 -0.8721 -1.5988 -1.1190
 6491TIP3   OH240887   0.649   3.046   3.714  0.4467  0.7411 -0.5140
 6491TIP3    H140888   0.650   2.951   3.719  0.5219  0.6698 -1.6428
 6491TIP3    H240889   0.650   3.075   3.805  1.9373 -0.3195 -0.1616
 6492TIP3   OH240890   2.744   4.884  14.387  0.2786  0.4514  0.8629
 6492TIP3    H140891   2.810   4.841  14.442  0.9932  1.7632  1.0588
 6492TIP3    H240892   2.662   4.841  14.411  1.1120 -1.7136  0.1194
 6493TIP3   OH240893   5.256   3.372  15.556 -0.9078 -0.7120 -0.0202
 6493TIP3    H140894   5.333   3.411  15.596  1.0314 -3.6431 -0.6056
 6493TIP3    H240895   5.224   3.438  15.495  1.9778  0.1113 -0.7660
 6494TIP3   OH240896   5.635   5.624   0.053  0.5068  0.6788 -0.2443
 6494TIP3    H140897   5.665   5.714   0.058  1.9265  0.2697 -0.9649
 6494TIP3    H240898   5.620   5.608  -0.040  0.6529  0.0452 -0.1639
 6495TIP3   OH240899   0.266   2.313  12.454  0.2641 -0.1745  0.0853
 6495TIP3    H140900   0.356   2.311  12.486 -0.2051  1.2621  1.6786
 6495TIP3    H240901   0.262   2.391  12.399  0.3879 -1.1914 -1.4289
 6496TIP3   OH240902   3.605   6.184  15.819 -0.1914  0.0571 -0.3388
 6496TIP3    H140903   3.681   6.146  15.775 -1.2246  1.0168 -3.1676
 6496TIP3    H240904   3.541   6.113  15.821  0.6666 -0.7493  2.0392
 6497TIP3   OH240905   2.027   5.766  15.563  0.0263  0.2889  0.2796
 6497TIP3    H140906   2.036   5.740  15.655  0.4900 -1.9624 -0.3345
 6497TIP3    H240907   1.936   5.744  15.541 -0.7546  2.8076  0.7096
 6498TIP3   OH240908   2.158   4.289  15.889  0.0702  0.2804  0.2276
 6498TIP3    H140909   2.090   4.222  15.879  0.0935  0.4166 -0.9192
 6498TIP3    H240910   2.240   4.239  15.894  0.0532  0.2046 -0.2368
 6499TIP3   OH240911   4.589   1.447   2.881  0.2364 -0.2757 -0.3974
 6499TIP3    H140912   4.514   1.505   2.895 -0.3953 -0.9508 -0.9111
 6499TIP3    H240913   4.573   1.408   2.795 -0.5482 -2.9373  0.8516
 6500TIP3   OH240914   4.492   6.695   5.239 -0.2514 -0.4140 -0.1485
 6500TIP3    H140915   4.507   6.777   5.193 -0.9221 -1.0152 -1.4808
 6500TIP3    H240916   4.427   6.717   5.307  0.2207  0.3242  0.0740
 6501TIP3   OH240917   3.314   2.380  15.275  0.2447 -0.0135  0.2413
 6501TIP3    H140918   3.349   2.469  15.275  4.0249 -1.3172 -0.1324
 6501TIP3    H240919   3.242   2.383  15.212  0.3562  2.7224  0.1181
 6502TIP3   OH240920   2.290   3.662   0.198 -0.1647  0.2585  0.4338
 6502TIP3    H140921   2.222   3.594   0.198  0.4955 -0.4226  0.6948
 6502TIP3    H240922   2.327   3.659   0.286 -0.8373  1.7022  0.7745
 6503TIP3   OH240923   1.665   5.568  15.191  0.3162  0.1961  0.6510
 6503TIP3    H140924   1.647   5.522  15.272  0.6909 -1.0004  0.0674
 6503TIP3    H240925   1.696   5.501  15.131 -0.8503  0.8892 -0.7844
 6504TIP3   OH240926   1.935   6.488  11.581  0.0975  0.0209  0.4776
 6504TIP3    H140927   2.024   6.519  11.562  0.7185 -0.4976  2.4085
 6504TIP3    H240928   1.891   6.491  11.496  1.6079  1.3907 -0.3102
 6505TIP3   OH240929   4.034   5.537   3.686 -0.5782  0.1920 -0.4474
 6505TIP3    H140930   4.022   5.606   3.620  2.6238  0.0115 -1.4032
 6505TIP3    H240931   4.066   5.583   3.764  3.0505 -0.1040 -1.5499
 6506TIP3   OH240932   0.319   4.438   5.180  0.4192  0.1176 -0.7518
 6506TIP3    H140933   0.298   4.421   5.272 -1.2394 -0.7087 -1.2455
 6506TIP3    H240934   0.400   4.389   5.164  1.0265  0.7202  0.3942
 6507TIP3   OH240935   6.243   1.205   5.838 -0.4620 -0.0918 -0.1946
 6507TIP3    H140936   6.191   1.126   5.821 -2.6964  1.2795 -0.1889
 6507TIP3    H240937   6.204   1.242   5.917  2.3032 -0.3138  1.3941
 6508TIP3   OH240938   1.369   4.137  12.547  0.0382 -0.2906  0.3851
 6508TIP3    H140939   1.315   4.063  12.518  0.7050 -0.8253  0.4837
 6508TIP3    H240940   1.459   4.105  12.541  0.3524  0.5807  0.2440
 6509TIP3   OH240941   3.708   5.973   1.557  0.4880  0.3674 -0.5705
 6509TIP3    H140942   3.705   5.878   1.572  2.6264  0.0887 -1.5480
 6509TIP3    H240943   3.751   6.008   1.635  0.9007  0.3581 -0.7904
 6510TIP3   OH240944   0.028   5.867  13.172 -0.4895  0.0812  0.4049
 6510TIP3    H140945   0.019   5.845  13.265  1.6495 -2.8914  0.0621
 6510TIP3    H240946  -0.029   5.804  13.127  0.3665 -0.1722 -0.3648
 6511TIP3   OH240947   5.989   2.559   6.259  0.0087  0.2689 -0.3092
 6511TIP3    H140948   5.958   2.524   6.342 -0.7284  0.2070 -0.6008
 6511TIP3    H240949   6.078   2.523   6.249  0.4096  0.9179  0.8135
 6512TIP3   OH240950   2.408   0.364  14.439 -0.4812  0.0701  0.1442
 6512TIP3    H140951   2.437   0.296  14.500  0.3916  0.3394  0.0449
 6512TIP3    H240952   2.489   0.399  14.401 -0.8638  1.5740  0.6256
 6513TIP3   OH240953   5.812   1.185   5.397  0.6181 -0.4157 -0.0804
 6513TIP3    H140954   5.863   1.137   5.332  2.1435  0.9475  0.0325
 6513TIP3    H240955   5.821   1.134   5.478  0.8477 -0.7871 -0.3375
 6514TIP3   OH240956   1.584   0.076   3.466 -0.0419 -0.0001  0.2667
 6514TIP3    H140957   1.574  -0.018   3.476 -3.3906 -0.0008 -1.5369
 6514TIP3    H240958   1.578   0.110   3.555 -2.4182 -1.3495  0.7094
 6515TIP3   OH240959   4.854   1.533  14.894  0.7795  0.3378 -0.4497
 6515TIP3    H140960   4.934   1.487  14.873 -0.1979 -2.2830  1.0776
 6515TIP3    H240961   4.840   1.517  14.988 -2.2222 -0.5511 -0.9337
 6516TIP3   OH240962   4.537   5.859   5.137  0.2689 -0.7941 -0.3689
 6516TIP3    H140963   4.502   5.816   5.215  0.7789 -2.3794 -0.9770
 6516TIP3    H240964   4.464   5.859   5.075  0.5177 -1.6205 -0.6766
 6517TIP3   OH240965   2.375   2.913   0.725  0.1003 -0.8137 -0.1314
 6517TIP3    H140966   2.280   2.904   0.727  0.0065  0.2912  1.5944
 6517TIP3    H240967   2.398   2.890   0.635 -1.9670  0.6034 -1.1051
 6518TIP3   OH240968   1.639   6.442   1.290 -0.0849  0.5493 -0.2614
 6518TIP3    H140969   1.698   6.488   1.350 -1.2086  0.1377  1.2053
 6518TIP3    H240970   1.561   6.496   1.286 -1.3401 -1.0210  1.3097
 6519TIP3   OH240971   2.106   4.844  12.227 -0.1583 -0.3873  0.0313
 6519TIP3    H140972   2.122   4.855  12.134  0.0444 -0.2808  0.0769
 6519TIP3    H240973   2.041   4.774  12.233 -0.5719 -0.0202 -0.2144
 6520TIP3   OH240974   1.585   5.919  14.439  0.0553 -0.8129  0.2959
 6520TIP3    H140975   1.583   5.995  14.496 -1.7630 -2.1170  2.1332
 6520TIP3    H240976   1.668   5.926  14.391 -0.2640  2.5151  0.0089
 6521TIP3   OH240977   5.889   4.041  13.232  0.0259 -0.2770  0.6490
 6521TIP3    H140978   5.888   4.109  13.299 -0.3156 -0.2936  0.6648
 6521TIP3    H240979   5.857   3.963  13.277 -3.9475  0.5371 -0.3746
 6522TIP3   OH240980   3.875   3.430  11.943 -0.2586 -0.4305  0.0991
 6522TIP3    H140981   3.899   3.344  11.907 -0.1540 -0.7430  0.9034
 6522TIP3    H240982   3.931   3.492  11.896  0.1455 -0.8726 -0.0131
 6523TIP3   OH240983   1.822   4.778  16.107  0.2785  0.3407  0.1902
 6523TIP3    H140984   1.903   4.763  16.057  0.7728  2.0382  0.4046
 6523TIP3    H240985   1.835   4.730  16.189  0.8286  0.1425 -0.0056
 6524TIP3   OH240986   4.750   6.540   6.440  0.3125  0.3253 -0.8206
 6524TIP3    H140987   4.819   6.529   6.505 -0.0569 -1.3034 -0.6771
 6524TIP3    H240988   4.671   6.505   6.483 -0.6918  2.3609 -0.8779
 6525TIP3   OH240989   0.517   1.093   5.590 -0.2890  0.5561  0.3955
 6525TIP3    H140990   0.426   1.090   5.620 -0.3274  0.2447  0.2611
 6525TIP3    H240991   0.561   1.025   5.641 -0.0946  0.8276  0.5845
 6526TIP3   OH240992   6.145   2.248  15.796 -0.1807  0.1114  0.3997
 6526TIP3    H140993   6.053   2.239  15.822 -0.5003  1.6708 -0.1023
 6526TIP3    H240994   6.163   2.342  15.802  1.1299 -0.0689 -0.3306
 6527TIP3   OH240995   0.357   6.099  15.802 -0.0943  0.0118  0.4599
 6527TIP3    H140996   0.355   6.018  15.752 -0.4939  0.7143 -0.6825
 6527TIP3    H240997   0.369   6.168  15.737 -0.4142  0.9278  1.3439
 6528TIP3   OH240998   0.341   6.454  13.092 -0.1588  0.2031 -0.2705
 6528TIP3    H140999   0.327   6.525  13.154  0.6041  0.4768 -0.3939
 6528TIP3    H241000   0.407   6.398  13.133 -0.4640 -0.2165 -0.3470
 6529TIP3   OH241001   5.493   4.702  16.103 -0.3909 -0.2432  0.3178
 6529TIP3    H141002   5.575   4.659  16.078  0.6612  1.0628  1.2799
 6529TIP3    H241003   5.495   4.785  16.056 -2.2833 -1.0953 -1.3677
 6530TIP3   OH241004   2.898   3.928   0.836 -0.1012  0.6959  0.0363
 6530TIP3    H141005   2.812   3.970   0.834 -0.2337  0.4260 -0.1319
 6530TIP3    H241006   2.913   3.902   0.745  0.3217  1.0638 -0.0028
 6531TIP3   OH241007   0.167   6.586   4.353 -0.0477 -0.0413  0.3889
 6531TIP3    H141008   0.080   6.569   4.317  0.0479  0.5803 -0.1675
 6531TIP3    H241009   0.158   6.669   4.399  0.0692 -0.3583  0.9842
 6532TIP3   OH241010   6.595   4.919   0.447 -0.0254  0.1266  0.5228
 6532TIP3    H141011   6.584   4.913   0.352  1.0150 -0.6803  0.4267
 6532TIP3    H241012   6.520   4.873   0.483 -0.6933  0.8784  0.1047
 6533TIP3   OH241013   4.738   3.498  16.373  0.2547  0.1226  0.5592
 6533TIP3    H141014   4.748   3.585  16.335  0.9198  0.3517  1.2491
 6533TIP3    H241015   4.685   3.450  16.309  2.3080  0.1336 -1.2677
 6534TIP3   OH241016   5.709   0.732  16.967  0.4849 -0.3026  0.5476
 6534TIP3    H141017   5.716   0.823  16.997  1.7578 -0.2471  0.1424
 6534TIP3    H241018   5.684   0.683  17.046 -1.8941  0.5796  0.4330
 6535TIP3   OH241019   2.941   5.692  14.389 -0.0671 -0.2142 -0.2861
 6535TIP3    H141020   2.901   5.652  14.312 -0.8647  0.7218 -0.3750
 6535TIP3    H241021   2.954   5.619  14.449  1.9571 -1.2245 -1.8444
 6536TIP3   OH241022   1.382   1.701  17.119  0.2676 -0.2896  0.0663
 6536TIP3    H141023   1.326   1.685  17.043  0.1897 -0.8740  0.2405
 6536TIP3    H241024   1.444   1.767  17.090 -0.4013  0.2357 -0.1882
 6537TIP3   OH241025   5.323   4.210   0.498  0.4506 -0.1090  0.2935
 6537TIP3    H141026   5.292   4.164   0.576 -1.3584 -0.7999 -0.7675
 6537TIP3    H241027   5.303   4.302   0.514  0.2629 -0.2199  0.7046
 6538TIP3   OH241028   3.366   5.042  17.278  0.1910  0.6045 -0.1564
 6538TIP3    H141029   3.426   5.089  17.336 -0.3363  0.1763  0.7524
 6538TIP3    H241030   3.298   5.105  17.256 -0.6880  0.1995  1.3195
 6539TIP3   OH241031   3.809   2.972  14.853  0.1859 -0.9668  0.4511
 6539TIP3    H141032   3.743   3.027  14.810  0.3256 -1.4325 -0.3672
 6539TIP3    H241033   3.801   2.994  14.946 -1.5308 -1.4392  0.4511
 6540TIP3   OH241034   1.872   6.026  16.156  0.6039 -0.3347  0.5506
 6540TIP3    H141035   1.809   6.089  16.192  1.7433  1.1121  0.0950
 6540TIP3    H241036   1.849   6.020  16.063  0.8240 -0.2018  0.4892
 6541TIP3   OH241037   3.091   3.451  14.342 -0.1404 -0.1329 -0.3397
 6541TIP3    H141038   3.004   3.415  14.358  0.2764 -1.0961 -0.1866
 6541TIP3    H241039   3.126   3.468  14.430  0.7395 -2.0190 -0.2649
 6542TIP3   OH241040   6.519   2.476  12.337 -0.0657 -0.4806  0.0858
 6542TIP3    H141041   6.534   2.557  12.289 -1.3308 -0.5745 -0.4917
 6542TIP3    H241042   6.582   2.414  12.300  1.7085  0.4988  1.3049
 6543TIP3   OH241043   6.380   6.708   4.741 -0.1688  0.4293 -0.3660
 6543TIP3    H141044   6.419   6.729   4.656 -0.7286 -0.7334 -0.9271
 6543TIP3    H241045   6.286   6.723   4.729 -0.3683 -0.6796 -0.2550
 6544TIP3   OH241046   3.638   4.556   3.797 -0.1885  0.0904  0.4414
 6544TIP3    H141047   3.722   4.513   3.816  0.4083  1.3629  0.7797
 6544TIP3    H241048   3.661   4.648   3.783 -1.5765  0.5180  0.8641
 6545TIP3   OH241049   5.809   3.760   5.132  0.4191 -0.3122 -0.0175
 6545TIP3    H141050   5.836   3.850   5.149  2.4665 -0.8887  0.0300
 6545TIP3    H241051   5.877   3.706   5.173 -0.6109 -1.8812 -0.2817
 6546TIP3   OH241052   0.410   2.567   3.186  0.1841 -0.5363 -0.3592
 6546TIP3    H141053   0.400   2.599   3.097 -1.0934 -1.4294 -0.5520
 6546TIP3    H241054   0.332   2.599   3.232  2.4822  3.1446  1.5061
 6547TIP3   OH241055   3.005   4.114   4.130  0.0696  0.1766  0.1839
 6547TIP3    H141056   3.024   4.071   4.047 -0.7840  0.5245 -0.2038
 6547TIP3    H241057   3.072   4.081   4.190  0.0835 -0.8611 -0.3746
 6548TIP3   OH241058   5.109   2.859   2.456  0.4764  0.2465 -0.2591
 6548TIP3    H141059   5.187   2.861   2.401  0.9479 -2.4007  0.2048
 6548TIP3    H241060   5.073   2.771   2.444 -0.6666  0.3570  1.9380
 6549TIP3   OH241061   6.630   5.207  10.747 -0.0454  0.0720 -0.5402
 6549TIP3    H141062   6.725   5.212  10.756 -0.0568 -1.2061  0.5092
 6549TIP3    H241063   6.616   5.143  10.677 -0.1314 -0.1308 -0.3404
 6550TIP3   OH241064   1.424   2.678   4.500  0.1047  0.9302  0.7494
 6550TIP3    H141065   1.506   2.714   4.534  0.7024  0.3207  0.0053
 6550TIP3    H241066   1.409   2.725   4.418  0.1044  0.5355  0.5185
 6551TIP3   OH241067   1.893   1.399   0.445 -0.0878  0.0448  0.2069
 6551TIP3    H141068   1.859   1.378   0.532  0.6164 -1.1398  0.2263
 6551TIP3    H241069   1.815   1.420   0.393 -0.6830 -0.8900  0.6938
 6552TIP3   OH241070   0.215   6.618  15.587 -0.0326 -0.2596  0.4439
 6552TIP3    H141071   0.231   6.559  15.661  0.6618 -0.3374  0.2418
 6552TIP3    H241072   0.228   6.706  15.623 -1.5947 -0.1751  0.8784
 6553TIP3   OH241073   3.035   0.955   2.578  1.0378 -0.3928 -0.1050
 6553TIP3    H141074   3.021   0.981   2.669 -2.2452  0.6101 -0.7402
 6553TIP3    H241075   2.978   0.879   2.566 -0.5478  0.9737 -1.8510
 6554TIP3   OH241076   4.761   3.432  11.622 -0.4375 -0.2620  0.2842
 6554TIP3    H141077   4.781   3.484  11.699  0.8271 -0.6394  0.2278
 6554TIP3    H241078   4.730   3.348  11.657  0.1554 -0.4409  0.3928
 6555TIP3   OH241079   2.913   4.118  13.449  0.1963 -0.1961  0.2057
 6555TIP3    H141080   3.000   4.152  13.427  0.5963 -1.0948  0.3380
 6555TIP3    H241081   2.854   4.158  13.385  0.4417  1.6651  1.0963
 6556TIP3   OH241082   6.171   5.287  15.752 -0.2971 -0.3900 -0.1485
 6556TIP3    H141083   6.258   5.248  15.744 -0.4997 -0.8441 -0.1685
 6556TIP3    H241084   6.187   5.372  15.792  0.2803  0.0641 -1.2922
 6557TIP3   OH241085   2.661   6.697  16.399  0.3232  0.5664 -0.3715
 6557TIP3    H141086   2.642   6.623  16.457  0.2836 -0.0909 -1.2016
 6557TIP3    H241087   2.740   6.736  16.436  0.8966 -0.4778 -0.4613
 6558TIP3   OH241088   5.685   2.512   5.693 -0.2553  0.0479  0.0250
 6558TIP3    H141089   5.748   2.443   5.672 -1.0844 -0.6324 -0.2627
 6558TIP3    H241090   5.713   2.586   5.640 -0.8650 -0.8801 -1.6855
 6559TIP3   OH241091   5.735   3.336   3.591 -0.3104 -0.0708  0.3848
 6559TIP3    H141092   5.721   3.258   3.645 -2.0956 -0.0388  0.0504
 6559TIP3    H241093   5.825   3.362   3.609 -0.1196 -1.3972  1.5644
 6560TIP3   OH241094   4.824   6.195  14.147 -0.3364  0.0522 -0.4648
 6560TIP3    H141095   4.755   6.242  14.193 -1.6124 -1.4237 -0.7940
 6560TIP3    H241096   4.813   6.220  14.056 -0.0594  0.2492 -0.4464
 6561TIP3   OH241097   6.014   3.975  12.496  0.2027  0.0889  0.4732
 6561TIP3    H141098   5.941   3.930  12.540  0.2406 -0.9605 -0.5060
 6561TIP3    H241099   6.092   3.930  12.529  0.5411  1.8894  2.3290
 6562TIP3   OH241100   2.271   5.811   6.403  0.5093 -0.0428  0.0382
 6562TIP3    H141101   2.240   5.858   6.481 -1.1415  1.3016 -1.3351
 6562TIP3    H241102   2.313   5.878   6.350  1.1709 -0.8353 -0.4558
 6563TIP3   OH241103   5.382   2.749  12.361 -0.1498 -0.2088  0.4462
 6563TIP3    H141104   5.411   2.690  12.292 -0.0015 -1.9084  1.8955
 6563TIP3    H241105   5.462   2.782  12.401 -0.1890  2.0888 -1.1547
 6564TIP3   OH241106   3.064   0.650  12.192  0.0987 -0.2994 -0.0587
 6564TIP3    H141107   3.076   0.582  12.258 -1.6256 -1.2984 -0.7047
 6564TIP3    H241108   3.081   0.606  12.109  1.6795  0.7996 -0.3560
 6565TIP3   OH241109   1.392   6.139   6.190 -0.1257 -0.7882  0.0338
 6565TIP3    H141110   1.347   6.218   6.219  0.6846 -0.1192 -0.4878
 6565TIP3    H241111   1.333   6.100   6.124 -2.1592 -2.5193  2.6646
 6566TIP3   OH241112   1.569   1.419  11.826  0.0245 -0.0036  0.2246
 6566TIP3    H141113   1.509   1.354  11.789  0.4501 -0.2997  0.0442
 6566TIP3    H241114   1.512   1.481  11.872 -0.4953  0.2956 -0.7964
 6567TIP3   OH241115   4.213   0.286   4.063 -0.3991  0.3318 -0.0149
 6567TIP3    H141116   4.304   0.293   4.091 -0.8769  1.6570  1.3217
 6567TIP3    H241117   4.197   0.363   4.010 -0.3453 -0.6696 -1.5327
 6568TIP3   OH241118   2.075   4.679  17.014 -0.7949  0.1275 -0.6177
 6568TIP3    H141119   2.037   4.766  17.027 -0.4254  0.2174 -0.1155
 6568TIP3    H241120   2.069   4.665  16.919  0.7209  1.4379 -0.9495
 6569TIP3   OH241121   2.898   5.668   1.614 -0.1436 -0.2206 -0.4459
 6569TIP3    H141122   2.936   5.592   1.659  0.7391  1.0780  1.0898
 6569TIP3    H241123   2.973   5.717   1.582 -0.6896  0.1910 -1.1161
 6570TIP3   OH241124   2.234   5.845  15.878  0.2227 -0.1523  0.1636
 6570TIP3    H141125   2.272   5.781  15.938 -0.1641 -1.1447 -0.6329
 6570TIP3    H241126   2.197   5.912  15.936  1.0940 -0.3604  0.9947
 6571TIP3   OH241127   0.038   6.678   0.250 -0.1348 -0.3789  0.0774
 6571TIP3    H141128  -0.038   6.735   0.265 -0.1989  0.4092 -2.6549
 6571TIP3    H241129   0.100   6.702   0.318 -1.4480  0.6072  0.9868
 6572TIP3   OH241130   1.286   4.634  16.834  0.0100  0.6283 -0.5363
 6572TIP3    H141131   1.245   4.654  16.749 -1.0423 -2.8886 -0.9973
 6572TIP3    H241132   1.371   4.678  16.830 -0.4995  1.5908 -2.8793
 6573TIP3   OH241133   6.015   2.226   4.766  0.7045  0.7708 -0.1392
 6573TIP3    H141134   6.027   2.224   4.861 -1.3841  2.2048  0.2351
 6573TIP3    H241135   6.065   2.303   4.737  1.6093  0.1435 -0.2633
 6574TIP3   OH241136   0.930   6.314  12.267 -0.0348  0.0038 -0.3426
 6574TIP3    H141137   0.893   6.234  12.304 -3.2719  1.0307 -1.0342
 6574TIP3    H241138   0.927   6.301  12.172 -0.3183  0.8189 -0.4562
 6575TIP3   OH241139   4.359   3.443  10.982  0.5610  0.0109  0.1157
 6575TIP3    H141140   4.293   3.510  10.965  0.5953 -0.6571 -3.4084
 6575TIP3    H241141   4.309   3.365  11.006  0.3919  0.6014  1.8065
 6576TIP3   OH241142   3.082   3.657   6.071 -0.2832  0.5497  0.1528
 6576TIP3    H141143   3.104   3.746   6.043 -0.6399  0.2297 -1.2409
 6576TIP3    H241144   2.987   3.652   6.060 -0.2630 -0.0023  0.2030
 6577TIP3   OH241145   4.227   4.991  12.138  0.1476  0.7821  0.3391
 6577TIP3    H141146   4.291   5.008  12.208 -0.1525  2.5837  0.2297
 6577TIP3    H241147   4.159   4.939  12.180  0.7137  0.5337  0.9772
 6578TIP3   OH241148   0.803   5.291   3.009 -0.3233 -0.5571  0.3249
 6578TIP3    H141149   0.711   5.317   3.014 -0.6561 -1.4657 -0.6419
 6578TIP3    H241150   0.819   5.243   3.090 -0.4188  0.4285  0.9405
 6579TIP3   OH241151   5.150   3.601   5.661 -0.1296  0.2785 -0.2962
 6579TIP3    H141152   5.157   3.656   5.738  0.5323  2.3657 -1.7577
 6579TIP3    H241153   5.059   3.571   5.661 -0.3124  0.7925  0.9179
 6580TIP3   OH241154   0.494   1.937   3.564  0.7338  0.4150 -0.0052
 6580TIP3    H141155   0.507   1.963   3.655 -1.1157  0.8035  0.1857
 6580TIP3    H241156   0.510   2.017   3.514 -1.1092  0.9736  0.2503
 6581TIP3   OH241157   0.607   1.428   4.685 -0.7279  0.7375  0.3348
 6581TIP3    H141158   0.609   1.353   4.626 -1.5247  3.4564 -3.5223
 6581TIP3    H241159   0.516   1.433   4.715 -0.7286  0.3334  0.4022
 6582TIP3   OH241160   4.124   3.994  14.246  0.2515  0.3955  0.2008
 6582TIP3    H141161   4.145   4.067  14.187 -0.3040 -0.7962 -1.5659
 6582TIP3    H241162   4.071   4.034  14.315  0.8978  1.8534 -0.1101
 6583TIP3   OH241163   1.320   6.461  12.675  0.0902  0.5980  0.8219
 6583TIP3    H141164   1.256   6.496  12.737 -2.5614  0.3078 -1.5509
 6583TIP3    H241165   1.321   6.367  12.692 -0.5219  0.5366  0.5132
 6584TIP3   OH241166   3.685   1.660  17.358  0.8363 -0.0463 -0.3847
 6584TIP3    H141167   3.701   1.571  17.326 -0.1491 -0.1973 -0.4931
 6584TIP3    H241168   3.603   1.654  17.406 -0.0687  1.1073 -1.7079
 6585TIP3   OH241169   2.064   3.719  14.170 -0.4518  0.1657  0.3185
 6585TIP3    H141170   2.110   3.638  14.189 -0.6301 -0.2486 -0.9403
 6585TIP3    H241171   2.027   3.746  14.254 -0.4443 -1.0869  0.7412
 6586TIP3   OH241172   5.251   5.448   1.202 -0.0662  0.0125  0.0508
 6586TIP3    H141173   5.335   5.416   1.168  0.0187 -0.8482  1.0205
 6586TIP3    H241174   5.267   5.538   1.228 -0.0578  0.6276 -1.8739
 6587TIP3   OH241175   2.547   4.181  11.803  0.3963  0.1191  0.2593
 6587TIP3    H141176   2.527   4.134  11.883 -0.9302 -0.3317 -0.3195
 6587TIP3    H241177   2.467   4.176  11.750  1.4208 -0.1140 -1.3472
 6588TIP3   OH241178   6.437   0.236  12.697 -0.2655  0.7359 -0.5428
 6588TIP3    H141179   6.452   0.147  12.729 -1.3432  0.8821  0.4433
 6588TIP3    H241180   6.498   0.246  12.624  2.4598  0.4139  1.5030
 6589TIP3   OH241181   2.187   6.469   0.396  0.0642 -0.1067  0.2520
 6589TIP3    H141182   2.211   6.493   0.307 -0.1046 -1.4566 -0.1679
 6589TIP3    H241183   2.193   6.552   0.445 -2.2948  1.2152 -1.4999
 6590TIP3   OH241184   6.481   0.426  12.023  0.1560  0.4935 -0.4122
 6590TIP3    H141185   6.524   0.506  11.993 -0.4316  0.8916 -0.1997
 6590TIP3    H241186   6.487   0.366  11.948  0.2885  0.8564 -0.6937
 6591TIP3   OH241187   6.723   5.590   1.405 -0.1400 -0.0614  0.3766
 6591TIP3    H141188   6.741   5.568   1.314  0.3259 -1.7376  0.8334
 6591TIP3    H241189   6.794   5.647   1.431 -0.8071  1.2427 -0.5668
 6592TIP3   OH241190   6.438   4.521   5.514  0.3684 -0.1826  0.0621
 6592TIP3    H141191   6.502   4.588   5.489  0.9510 -0.8644 -0.3292
 6592TIP3    H241192   6.424   4.470   5.434  1.5613 -1.8323  0.8321
 6593TIP3   OH241193   0.788   3.332   3.545 -0.2774 -0.3581  0.2427
 6593TIP3    H141194   0.726   3.269   3.509 -0.9650  0.7066 -0.4752
 6593TIP3    H241195   0.866   3.323   3.490 -0.9846  0.5921 -0.9665
 6594TIP3   OH241196   0.352   1.450   0.366 -0.0813 -0.0555 -0.1857
 6594TIP3    H141197   0.312   1.522   0.416  0.4682 -0.2582  0.5750
 6594TIP3    H241198   0.287   1.380   0.369 -0.4476  0.2691 -0.5716
 6595TIP3   OH241199   1.993   2.967  11.745 -0.0377  0.0276  0.2021
 6595TIP3    H141200   1.908   2.992  11.709 -1.4056 -2.9461  1.0493
 6595TIP3    H241201   1.978   2.961  11.840  0.7307 -1.6454  0.2625
 6596TIP3   OH241202   5.155   3.112   1.051  0.0334  0.0722  0.0247
 6596TIP3    H141203   5.238   3.157   1.068 -0.3267  1.7308 -2.1937
 6596TIP3    H241204   5.181   3.023   1.028  0.9351 -0.2780  2.0985
 6597TIP3   OH241205   5.304   2.113  16.000  0.4119 -0.0685 -0.0616
 6597TIP3    H141206   5.364   2.057  15.950 -0.2375  1.7470 -3.1170
 6597TIP3    H241207   5.221   2.108  15.952 -0.5995  0.9528  1.5024
 6598TIP3   OH241208   1.818   1.421   4.591  0.2450  0.6602  1.0220
 6598TIP3    H141209   1.913   1.431   4.582  0.2848  0.0810  0.7894
 6598TIP3    H241210   1.799   1.334   4.556 -0.2939  0.5237  1.6366
 6599TIP3   OH241211   0.334   4.543  11.652  0.2432 -0.8205  0.1353
 6599TIP3    H141212   0.257   4.492  11.677  0.3549 -1.4001 -0.6833
 6599TIP3    H241213   0.301   4.606  11.587 -0.0047  0.5406  1.5253
 6600TIP3   OH241214   4.052   6.453  14.702 -0.3193  0.1704 -0.0836
 6600TIP3    H141215   3.981   6.389  14.715 -0.7759  0.0780 -2.5268
 6600TIP3    H241216   4.126   6.416  14.750 -0.9671 -1.5115 -0.2949
 6601TIP3   OH241217   5.073   0.698  15.288  0.4109 -0.2475 -0.0036
 6601TIP3    H141218   5.066   0.739  15.202 -0.9228  0.3464  0.3632
 6601TIP3    H241219   5.003   0.632  15.289  0.1430  0.0381  0.7699
 6602TIP3   OH241220   2.858   4.190   4.503 -0.4165  0.1209  0.0151
 6602TIP3    H141221   2.767   4.188   4.535  0.1768 -2.3287  1.9152
 6602TIP3    H241222   2.911   4.198   4.583  1.1060  3.3481 -1.1647
 6603TIP3   OH241223   2.052   1.621  12.528 -0.4694  0.0190  0.2191
 6603TIP3    H141224   2.021   1.659  12.445 -1.0482 -1.1433 -0.1174
 6603TIP3    H241225   2.027   1.529  12.523  2.8179 -0.9866  0.0426
 6604TIP3   OH241226   0.605   0.059  12.274  0.5026  0.3991 -0.2931
 6604TIP3    H141227   0.603  -0.027  12.232  1.2925  0.1662  0.1314
 6604TIP3    H241228   0.672   0.051  12.342  0.8091  1.4473 -0.4591
 6605TIP3   OH241229   2.721   5.119  16.078 -0.1441 -0.2531 -0.2098
 6605TIP3    H141230   2.762   5.058  16.139 -1.4497  0.2712  1.2438
 6605TIP3    H241231   2.789   5.135  16.012  1.8858  0.3012  1.8842
 6606TIP3   OH241232   4.482   2.351   3.326  0.5135 -0.0922  0.6910
 6606TIP3    H141233   4.526   2.309   3.252 -0.8963 -0.8450  0.2426
 6606TIP3    H241234   4.523   2.438   3.332  0.9492 -0.1819 -0.6960
 6607TIP3   OH241235   2.686   3.867   5.300  0.0225  0.0751 -0.6706
 6607TIP3    H141236   2.653   3.940   5.247  1.4923  0.8769 -0.5384
 6607TIP3    H241237   2.749   3.823   5.243  2.9420  1.9822  0.8417
 6608TIP3   OH241238   3.206   0.414  13.683 -0.2911 -0.8194  0.6330
 6608TIP3    H141239   3.287   0.373  13.715  1.5535  2.0849  0.0905
 6608TIP3    H241240   3.197   0.493  13.737 -0.3818  1.0917 -1.9972
 6609TIP3   OH241241   5.740   4.196   4.989 -0.4360 -0.2263 -0.5157
 6609TIP3    H141242   5.655   4.164   4.960 -2.0982  2.9073  0.3652
 6609TIP3    H241243   5.765   4.137   5.060 -3.1187  0.1021  0.8309
 6610TIP3   OH241244   2.180   5.713  16.414 -0.3205  0.5616  0.4833
 6610TIP3    H141245   2.154   5.678  16.329 -1.5726  2.0525  0.2131
 6610TIP3    H241246   2.252   5.655  16.443 -1.5499 -1.5267 -0.3992
 6611TIP3   OH241247   2.042   4.996   1.128  0.2407  0.1488 -0.2701
 6611TIP3    H141248   1.956   5.031   1.105 -0.3540 -0.6514  0.6285
 6611TIP3    H241249   2.082   4.972   1.044 -0.2639  0.8509 -0.7183
 6612TIP3   OH241250   1.339   1.478   1.843  0.7685  0.3532  0.2417
 6612TIP3    H141251   1.286   1.548   1.804  0.3627 -0.9071 -1.5351
 6612TIP3    H241252   1.360   1.420   1.771  2.0831 -0.7817  1.4781
 6613TIP3   OH241253   3.373   1.083  14.191 -0.3740 -0.0738  0.0093
 6613TIP3    H141254   3.315   1.007  14.198  0.1852 -0.3625  3.2893
 6613TIP3    H241255   3.316   1.158  14.208 -0.2650 -0.1190  0.5857
 6614TIP3   OH241256   4.562   0.412  12.494 -0.1820 -0.2384 -0.4337
 6614TIP3    H141257   4.505   0.378  12.562 -0.8304  0.3207 -0.6864
 6614TIP3    H241258   4.515   0.488  12.460  0.9321  0.5308 -0.3071
 6615TIP3   OH241259   0.097   3.580  15.164  0.5675  0.1171  0.1287
 6615TIP3    H141260   0.163   3.521  15.126  1.8374  1.2547  0.4778
 6615TIP3    H241261   0.139   3.615  15.243 -0.6600  0.5134  0.6256
 6616TIP3   OH241262   3.340   4.982  16.356  1.0101 -0.2153 -0.0451
 6616TIP3    H141263   3.421   4.960  16.310  1.1315  1.0701 -0.4620
 6616TIP3    H241264   3.349   5.074  16.380 -1.1566  0.5708 -1.9215
 6617TIP3   OH241265   5.025   2.991  11.958 -0.1724  0.0722  0.3204
 6617TIP3    H141266   5.047   3.049  11.885  0.0639 -0.0413  0.3025
 6617TIP3    H241267   5.093   3.008  12.023 -0.2248 -0.0306  0.4024
 6618TIP3   OH241268   2.319   3.696   5.690  0.0922 -0.1385  0.6326
 6618TIP3    H141269   2.368   3.712   5.609 -0.9119  0.2476  0.0811
 6618TIP3    H241270   2.294   3.604   5.685  1.0994 -0.4469  1.1150
 6619TIP3   OH241271   4.598   3.175  15.293 -0.3721  0.2369  0.0498
 6619TIP3    H141272   4.552   3.115  15.234  1.2728 -1.4074  0.3520
 6619TIP3    H241273   4.690   3.171  15.264 -0.2031  2.7611 -0.0094
 6620TIP3   OH241274   4.175   4.214   3.723 -1.2536 -0.0442 -0.3121
 6620TIP3    H141275   4.257   4.260   3.739 -2.0256  1.0390  0.7408
 6620TIP3    H241276   4.200   4.137   3.672  0.3769  0.3589 -0.1821
 6621TIP3   OH241277   2.969   4.423  12.425 -0.0695  0.8567 -0.1598
 6621TIP3    H141278   3.027   4.476  12.480  0.0388  1.5941 -0.9485
 6621TIP3    H241279   2.944   4.482  12.354 -0.6102  0.0859 -0.6241
 6622TIP3   OH241280   4.929   2.139   0.096 -0.2793 -0.4535 -0.5264
 6622TIP3    H141281   4.948   2.045   0.097  1.5515 -0.1641 -2.1805
 6622TIP3    H241282   4.854   2.147   0.037  0.7459 -0.7231 -1.8985
 6623TIP3   OH241283   4.119   6.349  11.997 -0.0281  0.0459 -0.1329
 6623TIP3    H141284   4.046   6.372  11.940 -0.9234  0.8431  1.2877
 6623TIP3    H241285   4.188   6.410  11.973 -0.0529 -0.2498 -1.0016
 6624TIP3   OH241286   6.461   6.680  11.434  0.5457 -0.2003  0.0299
 6624TIP3    H141287   6.427   6.600  11.393  3.0007 -1.1672 -0.2609
 6624TIP3    H241288   6.472   6.657  11.526 -0.6211  0.4863  0.3595
 6625TIP3   OH241289   5.472   2.442  16.377  0.1111 -0.4326  0.3205
 6625TIP3    H141290   5.415   2.475  16.447  1.1317 -1.8765  1.8999
 6625TIP3    H241291   5.413   2.432  16.302 -0.6145  3.1177  0.2466
 6626TIP3   OH241292   4.581   5.883   5.856  0.3056  0.0738 -0.5938
 6626TIP3    H141293   4.649   5.939   5.820  0.0934  1.6016  1.1917
 6626TIP3    H241294   4.499   5.925   5.831  0.1475  1.7598  2.2311
 6627TIP3   OH241295   0.512   4.313  16.028 -0.2664  0.2478 -0.3956
 6627TIP3    H141296   0.444   4.342  15.967 -0.0956 -1.8310 -1.6333
 6627TIP3    H241297   0.469   4.246  16.081  0.2886  0.3068  0.1359
 6628TIP3   OH241298   5.761   4.198  13.059  0.1409 -0.6527 -0.1864
 6628TIP3    H141299   5.676   4.170  13.093 -0.2072 -1.3661 -1.5474
 6628TIP3    H241300   5.823   4.136  13.096  0.0139 -0.4016  0.4595
 6629TIP3   OH241301   2.218   1.230   2.929  0.5971 -0.1226  0.0847
 6629TIP3    H141302   2.244   1.252   3.019  0.8339 -0.1786  0.0317
 6629TIP3    H241303   2.266   1.149   2.909  1.6783  0.6565 -0.5966
 6630TIP3   OH241304   6.078   2.725  11.212 -0.7327 -0.4448  0.1944
 6630TIP3    H141305   6.082   2.654  11.276 -0.4455 -0.8216 -0.2310
 6630TIP3    H241306   6.159   2.716  11.162 -0.9562 -0.1590 -0.2250
 6631TIP3   OH241307   0.110   0.220  15.778  0.0138  0.1780  0.3175
 6631TIP3    H141308   0.153   0.219  15.863 -1.1370  0.3614  0.9088
 6631TIP3    H241309   0.173   0.177  15.719  2.2177  2.8440  0.5375
 6632TIP3   OH241310   4.107   1.303   4.118  0.7781  0.3777  0.8090
 6632TIP3    H141311   4.200   1.308   4.098  0.6439  1.4497  0.3928
 6632TIP3    H241312   4.069   1.378   4.073 -0.2914 -0.0476  0.9788
 6633TIP3   OH241313   3.826   0.208   2.840 -0.4685 -0.3803  0.1824
 6633TIP3    H141314   3.757   0.269   2.813 -0.0002  0.1681  0.2044
 6633TIP3    H241315   3.889   0.263   2.886 -0.6627 -1.1040  1.3482
 6634TIP3   OH241316   2.532   0.935  15.301  0.2522  0.0460 -0.3626
 6634TIP3    H141317   2.475   0.957  15.227 -0.8310  0.5850  0.5998
 6634TIP3    H241318   2.595   0.873  15.265 -0.7986 -0.3832 -1.5239
 6635TIP3   OH241319   6.258   5.096   1.908 -0.3307 -0.0907  0.2879
 6635TIP3    H141320   6.168   5.097   1.875 -0.5016 -0.3211  0.7365
 6635TIP3    H241321   6.298   5.176   1.873  0.1102 -1.2773 -2.1437
 6636TIP3   OH241322   1.381   3.284   4.294  0.4416  0.1993 -0.1405
 6636TIP3    H141323   1.304   3.253   4.343 -0.4853  1.3788 -0.8114
 6636TIP3    H241324   1.366   3.377   4.281  0.5846 -0.0578 -2.7403
 6637TIP3   OH241325   2.843   0.380   0.440  0.1743 -0.1899  0.7193
 6637TIP3    H141326   2.784   0.333   0.499  0.8855  0.8263  2.2837
 6637TIP3    H241327   2.930   0.350   0.463  0.4679  0.2130  0.1657
 6638TIP3   OH241328   6.249   1.283   4.141 -0.5855  0.2812 -0.3211
 6638TIP3    H141329   6.188   1.354   4.125 -1.3573 -0.5396 -1.1406
 6638TIP3    H241330   6.335   1.320   4.121 -0.8790  1.2172  0.0818
 6639TIP3   OH241331   5.793   2.714  11.364 -0.1624 -0.7698 -0.4555
 6639TIP3    H141332   5.707   2.708  11.407  0.5479  0.5371  1.3087
 6639TIP3    H241333   5.776   2.765  11.285 -0.7893  1.0943  0.7951
 6640TIP3   OH241334   2.858   2.623  11.411  0.1520 -0.4883  0.4486
 6640TIP3    H141335   2.828   2.565  11.342 -0.9775  0.7512 -0.1365
 6640TIP3    H241336   2.911   2.689  11.366 -0.4039  0.1970  0.7705
 6641TIP3   OH241337   1.820   3.586   1.844  0.5707  0.0830 -0.5516
 6641TIP3    H141338   1.750   3.522   1.833  0.6786  0.0301 -0.9256
 6641TIP3    H241339   1.779   3.671   1.824  0.4094  0.1437  0.0131
 6642TIP3   OH241340   3.209   1.404   1.525 -0.7685 -0.2507 -0.3029
 6642TIP3    H141341   3.127   1.388   1.478 -1.1035 -2.9094  0.9644
 6642TIP3    H241342   3.275   1.360   1.472 -0.3747  0.7017 -0.6130
 6643TIP3   OH241343   5.824   0.658  14.638 -0.1625 -0.1888  0.0578
 6643TIP3    H141344   5.885   0.637  14.567 -0.6544  0.4840 -0.5907
 6643TIP3    H241345   5.871   0.722  14.692 -0.1477  0.0478 -0.2300
 6644TIP3   OH241346   3.889   1.378  17.388  0.2328 -0.4154  0.1400
 6644TIP3    H141347   3.866   1.392  17.296  0.9301 -0.7670 -0.0886
 6644TIP3    H241348   3.814   1.329  17.424 -0.3664  0.3333 -0.0542
 6645TIP3   OH241349   1.434   4.569  15.757  0.9260  0.2659  0.3032
 6645TIP3    H141350   1.355   4.623  15.755 -0.0584 -1.1183  0.5499
 6645TIP3    H241351   1.487   4.609  15.826  0.3005  1.0194  0.3687
 6646TIP3   OH241352   4.154   3.616  12.802  0.1274  0.3597 -0.1065
 6646TIP3    H141353   4.189   3.579  12.883 -0.2816  0.5355  0.1491
 6646TIP3    H241354   4.226   3.608  12.740 -0.3853 -2.1567 -0.4666
 6647TIP3   OH241355   5.126   0.183   5.869  0.1696  0.6704 -0.5878
 6647TIP3    H141356   5.191   0.235   5.914 -0.1945 -0.8694  1.9284
 6647TIP3    H241357   5.058   0.167   5.935  0.6988 -3.6603 -0.7612
 6648TIP3   OH241358   1.506   4.467  13.519  0.2235  0.3531 -0.6595
 6648TIP3    H141359   1.574   4.520  13.477 -0.0290 -0.0187 -1.5529
 6648TIP3    H241360   1.507   4.496  13.610 -0.0707  2.0683 -1.1690
 6649TIP3   OH241361   2.503   5.182  14.545 -1.0994 -0.9556 -0.2499
 6649TIP3    H141362   2.564   5.146  14.609 -1.4025 -0.5492  0.2773
 6649TIP3    H241363   2.445   5.238  14.596 -0.1485  0.9331 -1.1252
 6650TIP3   OH241364   2.733   0.665   4.200 -0.0178 -0.1743  0.7341
 6650TIP3    H141365   2.741   0.570   4.198  0.3408 -0.1281 -0.7225
 6650TIP3    H241366   2.793   0.692   4.270 -0.5443 -1.0453  1.5350
 6651TIP3   OH241367   1.757   2.450  15.161 -0.1857 -0.2866  0.5643
 6651TIP3    H141368   1.780   2.424  15.072 -0.5172  1.4057 -0.0478
 6651TIP3    H241369   1.661   2.446  15.163 -0.2239  0.5396  0.5545
 6652TIP3   OH241370   4.948   5.275   0.141  0.0628  0.3137 -0.6613
 6652TIP3    H141371   4.877   5.280   0.077 -0.8007 -2.5506 -0.0778
 6652TIP3    H241372   4.930   5.196   0.191  1.7172  1.4433  1.9525
 6653TIP3   OH241373   4.128   3.058  12.954 -1.0456 -0.1177 -0.3219
 6653TIP3    H141374   4.076   3.138  12.947 -1.5921 -0.5517 -1.3774
 6653TIP3    H241375   4.083   3.007  13.022  1.0578  1.7111  2.7020
 6654TIP3   OH241376   1.984   4.451  17.197  0.3952  0.1568  0.4775
 6654TIP3    H141377   2.018   4.532  17.159  0.5941 -0.5518 -0.9444
 6654TIP3    H241378   2.015   4.382  17.138 -1.8036 -0.7201  0.2473
 6655TIP3   OH241379   5.297   5.966  11.695 -0.1359 -0.1461 -0.1019
 6655TIP3    H141380   5.213   5.964  11.742 -0.0104  1.9182  0.2870
 6655TIP3    H241381   5.363   5.979  11.763  0.0753  2.5590 -0.7026
 6656TIP3   OH241382   5.962   3.802   3.864 -0.4880  0.6523 -0.3384
 6656TIP3    H141383   5.932   3.712   3.875 -0.1176  0.5664  0.0189
 6656TIP3    H241384   5.917   3.833   3.786 -0.7112  0.1952 -0.3958
 6657TIP3   OH241385   1.527   0.755   6.012  0.4237  0.2600  0.7857
 6657TIP3    H141386   1.458   0.800   6.062 -0.0194  0.8648 -0.3431
 6657TIP3    H241387   1.500   0.663   6.012 -0.8262  0.5935 -0.2921
 6658TIP3   OH241388   5.197   3.975  11.733 -0.4475  0.3758  0.2012
 6658TIP3    H141389   5.144   3.942  11.660  1.1438 -1.2158 -0.3139
 6658TIP3    H241390   5.285   3.986  11.696  0.2740  0.0659  1.7366
 6659TIP3   OH241391   1.557   0.902  12.265 -0.1213 -0.3319  0.0311
 6659TIP3    H141392   1.628   0.848  12.301  0.4155  0.0561 -0.4295
 6659TIP3    H241393   1.566   0.893  12.170 -3.2135 -3.6061 -0.1796
 6660TIP3   OH241394   0.403   4.696  11.240  0.6052  0.3196 -0.6863
 6660TIP3    H141395   0.335   4.697  11.173 -0.8419  1.7618  0.7131
 6660TIP3    H241396   0.472   4.753  11.205 -0.3136  1.3973 -0.8151
 6661TIP3   OH241397   5.302   0.048  16.862  0.8990  0.0291 -0.2854
 6661TIP3    H141398   5.301   0.019  16.954 -1.1616 -1.3999 -0.6683
 6661TIP3    H241399   5.319   0.142  16.866  0.3144  0.0935  1.6136
 6662TIP3   OH241400   4.259   5.463   0.163  0.7948  1.0064  0.1273
 6662TIP3    H141401   4.175   5.422   0.140 -0.0898  2.9890 -0.4451
 6662TIP3    H241402   4.292   5.412   0.236 -0.7770 -0.0139  0.1742
 6663TIP3   OH241403   5.996   0.354  14.603  0.0521  0.1401  0.2718
 6663TIP3    H141404   6.072   0.371  14.548 -0.2704  0.5081 -0.0640
 6663TIP3    H241405   5.957   0.274  14.567  0.4177 -0.1819  0.5942
 6664TIP3   OH241406   4.892   3.745   5.994  0.3128  0.0299  0.5632
 6664TIP3    H141407   4.915   3.744   6.087 -0.7385  0.9918  0.8660
 6664TIP3    H241408   4.848   3.829   5.982 -0.7650 -0.6533 -0.5013
 6665TIP3   OH241409   1.468   2.637  14.703 -0.5225  0.1597  0.6238
 6665TIP3    H141410   1.474   2.553  14.750  1.5180  0.5753  1.2147
 6665TIP3    H241411   1.410   2.690  14.756  0.1866 -0.0508  1.6494
 6666TIP3   OH241412   3.009   5.058   1.918  0.4860 -0.3369  0.3495
 6666TIP3    H141413   2.940   5.012   1.965  1.3164 -1.4285  0.5338
 6666TIP3    H241414   3.088   5.041   1.969  0.7738  1.6663  0.6657
 6667TIP3   OH241415   3.416   6.732  15.063  0.2871 -0.5441 -0.0903
 6667TIP3    H141416   3.383   6.742  15.152  0.9691  0.4770  0.0557
 6667TIP3    H241417   3.448   6.642  15.060  0.4566 -0.5203  0.7604
 6668TIP3   OH241418   1.566   2.207   1.542 -0.3731  0.6392  0.1116
 6668TIP3    H141419   1.509   2.244   1.609 -0.4525 -1.4019  1.2430
 6668TIP3    H241420   1.639   2.168   1.590  0.3949  0.5078 -1.1097
 6669TIP3   OH241421   0.030   1.998  12.696  0.2950  0.2168  0.6281
 6669TIP3    H141422   0.002   2.087  12.672 -0.1673  0.2282  1.1830
 6669TIP3    H241423  -0.046   1.943  12.674  0.3337  0.0534  0.8978
 6670TIP3   OH241424   1.380   5.224   0.638 -0.1299  0.3873 -0.3439
 6670TIP3    H141425   1.371   5.178   0.555 -0.0060 -0.5346  0.1379
 6670TIP3    H241426   1.341   5.165   0.702  0.3450  0.7974  0.3396
 6671TIP3   OH241427   3.467   6.704   3.654 -0.2966  0.0020  0.2204
 6671TIP3    H141428   3.499   6.792   3.671 -1.7205  0.3880  1.0432
 6671TIP3    H241429   3.545   6.654   3.631  0.4281  1.6836 -1.2317
 6672TIP3   OH241430   2.542   4.306  11.026  0.1971 -0.2774  0.0161
 6672TIP3    H141431   2.588   4.367  10.968 -0.5311  0.4878  0.2365
 6672TIP3    H241432   2.479   4.360  11.073 -0.8799 -1.2917 -0.2158
 6673TIP3   OH241433   4.967   6.692  10.556 -0.7266 -0.1860 -0.4278
 6673TIP3    H141434   4.994   6.760  10.617 -1.3331 -0.8495  0.6018
 6673TIP3    H241435   5.024   6.704  10.480 -0.7311  1.3672 -0.2100
 6674TIP3   OH241436   3.989   0.035  15.702 -0.1857 -0.1556  0.4771
 6674TIP3    H141437   3.898   0.061  15.716 -0.2931 -0.9053  1.2554
 6674TIP3    H241438   3.987  -0.018  15.623 -0.7694 -1.7629  1.5113
 6675TIP3   OH241439   0.804   4.315   3.341  0.2638 -0.5612 -0.0128
 6675TIP3    H141440   0.780   4.322   3.248 -0.3603 -0.0042  0.1750
 6675TIP3    H241441   0.764   4.233   3.370  0.1660 -0.5677 -0.1644
 6676TIP3   OH241442   1.933   0.988   6.260  0.4277 -0.2139  0.9200
 6676TIP3    H141443   1.849   1.011   6.219  1.3251 -0.4097 -1.1093
 6676TIP3    H241444   1.990   1.062   6.240  2.2300 -2.2585 -2.3888
 6677TIP3   OH241445   6.412   3.980   3.761  0.0501  0.4146 -0.2503
 6677TIP3    H141446   6.490   4.036   3.753  0.2382  0.0859 -0.7889
 6677TIP3    H241447   6.417   3.944   3.850  0.4386  0.5080 -0.2335
 6678TIP3   OH241448   3.423   6.275  15.089  0.5161  0.3685  0.3284
 6678TIP3    H141449   3.437   6.188  15.125 -1.6047 -0.0350  0.2868
 6678TIP3    H241450   3.338   6.302  15.123  0.7546  2.0840 -0.3251
 6679TIP3   OH241451   3.083   4.305   5.194 -0.2931  0.5849 -0.1700
 6679TIP3    H141452   3.064   4.354   5.114  0.5124  0.7820 -0.2553
 6679TIP3    H241453   3.177   4.320   5.209  0.1535 -1.4719 -0.5770
 6680TIP3   OH241454   0.426   1.433  11.437  0.2473 -0.0499 -0.1260
 6680TIP3    H141455   0.492   1.365  11.423 -1.8343 -2.3481  0.5011
 6680TIP3    H241456   0.418   1.476  11.352  0.8970 -1.2898 -0.8452
 6681TIP3   OH241457   6.277   1.196  11.534 -0.0004  0.2218 -0.4990
 6681TIP3    H141458   6.270   1.238  11.620  2.1378  1.0869 -0.6798
 6681TIP3    H241459   6.296   1.105  11.553 -0.4871  0.2083 -0.0621
 6682TIP3   OH241460   3.220   4.841  15.580  0.8985 -0.2072 -0.4981
 6682TIP3    H141461   3.131   4.874  15.594  1.3526  0.8029  0.1076
 6682TIP3    H241462   3.228   4.833  15.485  0.5999  0.9708 -0.6318
 6683TIP3   OH241463   1.621   4.438  12.591  0.2040  0.9702 -0.4700
 6683TIP3    H141464   1.623   4.353  12.548  0.3794  0.7084  0.0577
 6683TIP3    H241465   1.711   4.452  12.620 -0.0906  0.7472  0.5927
 6684TIP3   OH241466   1.344   4.246   2.259 -0.2802 -0.0003  0.4288
 6684TIP3    H141467   1.319   4.312   2.324  1.1443 -0.1798  1.1916
 6684TIP3    H241468   1.360   4.167   2.310 -3.0863 -1.3393 -0.5828
 6685TIP3   OH241469   2.567   2.686  13.209 -0.3882 -0.5798  0.0845
 6685TIP3    H141470   2.512   2.754  13.170  0.6694  0.2267 -0.0191
 6685TIP3    H241471   2.504   2.624  13.248 -1.4935 -1.4162 -2.7939
 6686TIP3   OH241472   2.287   4.154   2.863  0.4561  0.1894 -0.2903
 6686TIP3    H141473   2.289   4.186   2.954 -0.2101  0.2604 -0.2981
 6686TIP3    H241474   2.261   4.062   2.870 -0.2640  0.3732 -0.4477
 6687TIP3   OH241475   4.608   6.320   4.876  0.4273 -0.3580  0.1464
 6687TIP3    H141476   4.619   6.345   4.968  1.3860 -1.0822  0.2476
 6687TIP3    H241477   4.595   6.403   4.830  1.7442  0.1989  0.7093
 6688TIP3   OH241478   0.394   5.848  10.987  0.6672 -0.2050  0.3306
 6688TIP3    H141479   0.308   5.831  11.026 -1.0296  0.0374 -2.9868
 6688TIP3    H241480   0.417   5.766  10.944  0.5031  0.6764 -1.5161
 6689TIP3   OH241481   3.869   5.852  17.391 -0.0970 -0.2435  0.0927
 6689TIP3    H141482   3.881   5.830  17.483  2.5596 -1.5497 -0.4477
 6689TIP3    H241483   3.943   5.810  17.347 -0.8898  0.9160 -2.5554
 6690TIP3   OH241484   5.992   4.742  10.585 -0.0348 -0.2822  0.2089
 6690TIP3    H141485   5.904   4.722  10.617  0.2821 -0.0354  1.2727
 6690TIP3    H241486   6.028   4.657  10.559  0.1737 -0.6971  1.7778
 6691TIP3   OH241487   0.392   6.118  15.261 -0.0034 -0.1158 -0.0533
 6691TIP3    H141488   0.466   6.113  15.201 -1.5802  0.4096 -2.1342
 6691TIP3    H241489   0.350   6.032  15.256 -0.5399  0.1540 -0.2313
 6692TIP3   OH241490   4.996   5.664  11.400 -0.1082 -0.0324 -0.0697
 6692TIP3    H141491   4.922   5.723  11.415  0.6962  0.5984  1.7174
 6692TIP3    H241492   5.065   5.697  11.459  1.2642 -1.1859 -0.9593
 6693TIP3   OH241493   6.259   0.915   1.240 -0.0342 -0.1722 -0.2552
 6693TIP3    H141494   6.280   0.989   1.297 -3.1697  0.1949  0.6039
 6693TIP3    H241495   6.227   0.955   1.159  1.9667 -0.6817 -1.3530
 6694TIP3   OH241496   6.072   3.204  12.967  0.3547  0.2561  0.2783
 6694TIP3    H141497   6.024   3.215  12.885 -0.5174  1.6237  0.9321
 6694TIP3    H241498   6.089   3.294  12.996  0.4941 -0.2083  1.6709
 6695TIP3   OH241499   5.597   0.050  15.725 -0.2642  0.8107  0.1097
 6695TIP3    H141500   5.577  -0.043  15.731 -0.1978  0.7515 -0.5194
 6695TIP3    H241501   5.635   0.061  15.638 -0.5014  1.4680  0.0798
 6696TIP3   OH241502   3.046   5.303  13.929 -0.1945  0.1899 -0.1740
 6696TIP3    H141503   3.106   5.303  14.004  0.3896 -0.2520 -0.6416
 6696TIP3    H241504   3.098   5.333  13.855 -0.9313  1.2223 -0.2923
 6697TIP3   OH241505   1.724   5.365  14.465  0.3774  0.1845  0.1129
 6697TIP3    H141506   1.657   5.360  14.533 -1.3493  0.5901 -1.4762
 6697TIP3    H241507   1.749   5.274  14.450 -1.8211 -0.3108 -1.0859
 6698TIP3   OH241508   0.633   3.683  11.071 -0.2072  0.1730 -0.5859
 6698TIP3    H141509   0.597   3.615  11.014 -0.6432 -2.0850  2.1393
 6698TIP3    H241510   0.568   3.693  11.140  1.0394  1.4978  0.4665
 6699TIP3   OH241511   4.181   4.648   5.413  0.0637  0.9881  0.1454
 6699TIP3    H141512   4.152   4.722   5.466 -1.5250  1.6252 -1.4869
 6699TIP3    H241513   4.250   4.607   5.464 -2.6998  0.2691  3.7190
 6700TIP3   OH241514   3.613   6.597   2.564 -0.3695 -0.3373 -0.1257
 6700TIP3    H141515   3.612   6.626   2.655  1.8325  1.0922 -0.4805
 6700TIP3    H241516   3.598   6.677   2.513 -0.2407 -0.8843 -1.0565
 6701TIP3   OH241517   3.991   4.119   3.543 -0.5330  0.2508 -0.7312
 6701TIP3    H141518   4.024   4.188   3.599  4.4172 -2.0407 -0.3285
 6701TIP3    H241519   3.971   4.162   3.460  1.1429  2.3787 -0.1024
 6702TIP3   OH241520   0.762   0.684   5.677 -0.2590 -0.5693 -0.6510
 6702TIP3    H141521   0.803   0.620   5.619 -1.0224 -1.4432 -0.2641
 6702TIP3    H241522   0.787   0.657   5.765  0.5833  0.5272 -0.5367
 6703TIP3   OH241523   0.311   2.758  13.503  0.2475  0.0589 -0.2875
 6703TIP3    H141524   0.234   2.704  13.490  0.3786 -0.1866 -0.0524
 6703TIP3    H241525   0.381   2.711  13.458  0.4517 -0.1847  0.2792
 6704TIP3   OH241526   4.406   1.573  12.250 -0.0032 -0.0617 -0.2853
 6704TIP3    H141527   4.476   1.593  12.313  0.0503  1.0023 -0.6646
 6704TIP3    H241528   4.410   1.478  12.240  1.2919 -0.0394 -0.1842
 6705TIP3   OH241529   6.209   0.306   6.280 -0.7437 -0.1399  0.4491
 6705TIP3    H141530   6.119   0.316   6.313 -0.1392 -0.1868  2.2128
 6705TIP3    H241531   6.228   0.390   6.238 -1.8448 -0.3829 -0.5818
 6706TIP3   OH241532   4.076   6.429   3.576  0.8040  0.4783  0.7563
 6706TIP3    H141533   4.042   6.509   3.616  0.7254  0.3903  0.8663
 6706TIP3    H241534   4.156   6.456   3.532  0.6258  0.6743  0.5517
 6707TIP3   OH241535   5.460   6.280  13.048 -0.7389  0.2624 -0.3542
 6707TIP3    H141536   5.395   6.214  13.023 -1.0190  0.7869 -1.0567
 6707TIP3    H241537   5.540   6.253  13.003 -1.1856  1.0851 -1.7213
 6708TIP3   OH241538   3.445   1.694   6.351  0.0234  0.5095  0.5186
 6708TIP3    H141539   3.445   1.780   6.309  0.8149  0.2393 -0.0671
 6708TIP3    H241540   3.491   1.637   6.289 -1.0876 -0.5019  0.5892
 6709TIP3   OH241541   0.327   1.510   1.595  0.2790 -0.2496  0.0961
 6709TIP3    H141542   0.326   1.576   1.664 -1.4595 -0.5917  0.4589
 6709TIP3    H241543   0.252   1.533   1.540  0.7847 -0.8255 -0.8561
 6710TIP3   OH241544   0.071   6.515  12.442 -0.1679  0.1677  0.5858
 6710TIP3    H141545   0.059   6.465  12.361  0.6283 -0.6757  0.9747
 6710TIP3    H241546   0.161   6.547  12.437 -0.4789  1.0677  0.6225
 6711TIP3   OH241547   3.932   0.321   4.206  0.3488  0.3182 -0.4400
 6711TIP3    H141548   3.964   0.336   4.295  0.7299 -1.5148 -0.2256
 6711TIP3    H241549   4.008   0.284   4.160 -0.9818 -3.1515 -0.2009
 6712TIP3   OH241550   4.534   2.913  13.949  0.0723  0.4362 -0.9099
 6712TIP3    H141551   4.516   2.950  14.036 -0.6351 -0.1485 -0.7982
 6712TIP3    H241552   4.500   2.824  13.954  0.9820  0.0517 -1.4591
 6713TIP3   OH241553   0.488   6.270   2.681 -0.0595  0.1089 -0.1021
 6713TIP3    H141554   0.438   6.215   2.621 -0.8266  0.3292  0.3129
 6713TIP3    H241555   0.441   6.262   2.765  0.7651  0.1058  0.3712
 6714TIP3   OH241556   6.081   2.685  14.187  0.1687 -0.0082 -0.8694
 6714TIP3    H141557   6.172   2.705  14.208 -0.4332  0.0935  2.1542
 6714TIP3    H241558   6.037   2.770  14.191 -0.6274 -0.4705  1.4656
 6715TIP3   OH241559   6.628   0.948   3.566  0.3276  0.1527 -0.2460
 6715TIP3    H141560   6.630   0.859   3.599 -0.4550 -0.1172 -0.8831
 6715TIP3    H241561   6.584   0.941   3.481  0.2093  1.1492 -0.2805
 6716TIP3   OH241562   2.071   5.788  11.643  0.7384  0.0525  0.3540
 6716TIP3    H141563   2.028   5.740  11.572  0.8355  0.0483  0.2976
 6716TIP3    H241564   2.035   5.749  11.723 -0.9107  1.4066  0.3270
 6717TIP3   OH241565   5.273   1.146  11.977  0.0506 -0.3222 -0.9393
 6717TIP3    H141566   5.312   1.209  11.917 -0.2192 -0.6670 -1.4957
 6717TIP3    H241567   5.278   1.062  11.930 -0.0841 -0.6118 -0.4426
 6718TIP3   OH241568   5.933   1.655   3.583 -0.2908 -0.1341 -0.2417
 6718TIP3    H141569   5.973   1.569   3.567  0.0360  0.0567 -0.4628
 6718TIP3    H241570   5.924   1.659   3.678 -0.5846 -0.5388 -0.2500
 6719TIP3   OH241571   3.079   5.010  14.048 -0.7926  0.4000  0.1979
 6719TIP3    H141572   3.116   4.925  14.069  0.0851  1.1590  2.0163
 6719TIP3    H241573   2.988   4.992  14.026  0.2343 -1.3707 -3.1596
 6720TIP3   OH241574   3.925   0.096   0.513 -0.4182 -0.3723 -0.0594
 6720TIP3    H141575   3.886   0.134   0.592  0.6026 -0.7080  0.6201
 6720TIP3    H241576   3.919   0.002   0.526 -1.1773 -0.4609 -0.8732
 6721TIP3   OH241577   5.743   5.859   5.029  0.1452 -0.7178 -0.6198
 6721TIP3    H141578   5.798   5.915   5.084  0.1214 -1.8137  0.5897
 6721TIP3    H241579   5.744   5.900   4.943  2.4946 -0.4624 -0.5345
 6722TIP3   OH241580   4.905   4.148   4.053  0.0620 -0.4716  0.0122
 6722TIP3    H141581   4.829   4.096   4.028  0.2805 -0.5500 -0.4902
 6722TIP3    H241582   4.902   4.225   3.998  0.5486 -0.6499 -0.2728
 6723TIP3   OH241583   2.861   3.877  16.303 -1.0715 -0.5411  0.4414
 6723TIP3    H141584   2.893   3.818  16.372 -0.3227  0.1453  0.7011
 6723TIP3    H241585   2.940   3.913  16.263 -1.5079 -0.4145 -0.3325
 6724TIP3   OH241586   1.166   6.003   4.575  0.2002  0.4245 -0.4344
 6724TIP3    H141587   1.176   6.090   4.614  0.7584  0.0022  0.4067
 6724TIP3    H241588   1.161   6.019   4.481  1.0694  1.3181 -0.3427
 6725TIP3   OH241589   5.128   6.351  15.504  0.2788  0.8176 -0.2493
 6725TIP3    H141590   5.145   6.382  15.415 -0.1761  0.8930 -0.3107
 6725TIP3    H241591   5.106   6.258  15.493  2.1756  0.3016 -0.0150
 6726TIP3   OH241592   1.454   0.957   2.374 -0.0372 -0.1248 -0.1528
 6726TIP3    H141593   1.392   0.902   2.325 -1.0403 -0.6461  1.6333
 6726TIP3    H241594   1.484   0.902   2.446  1.0183  0.7917  0.1353
 6727TIP3   OH241595   5.692   5.097   0.044  0.2166  0.4332  0.0051
 6727TIP3    H141596   5.732   5.037  -0.019  0.7062  0.5596  0.1887
 6727TIP3    H241597   5.705   5.184   0.005 -2.6993  0.3126 -1.5129
 6728TIP3   OH241598   6.115   4.214  16.322 -0.3058  0.0167 -0.3409
 6728TIP3    H141599   6.145   4.124  16.307  1.1995  0.3478  0.4623
 6728TIP3    H241600   6.142   4.262  16.244  0.3130  0.0827 -0.0918
 6729TIP3   OH241601   3.085   5.690   0.860  0.1868  0.4268  0.3775
 6729TIP3    H141602   3.063   5.748   0.933  0.4798  0.2809  0.5838
 6729TIP3    H241603   3.001   5.654   0.832  0.0212  0.8271  0.3521
 6730TIP3   OH241604   3.361   4.456   1.173 -0.5471  0.6135 -0.2995
 6730TIP3    H141605   3.348   4.520   1.242  0.0166  1.2387 -0.7629
 6730TIP3    H241606   3.278   4.458   1.124 -0.6176  0.8170 -0.1762
 6731TIP3   OH241607   3.310   4.951   6.629 -0.4593 -0.3599  0.1548
 6731TIP3    H141608   3.219   4.978   6.639  0.0542  0.9202  1.7240
 6731TIP3    H241609   3.316   4.870   6.681 -0.5823 -0.1357  0.5262
 6732TIP3   OH241610   5.806   2.675   3.420 -0.5222 -0.7833  0.2111
 6732TIP3    H141611   5.759   2.689   3.337 -0.2855 -0.2310  0.1622
 6732TIP3    H241612   5.888   2.633   3.393  0.2043  0.6830 -0.0242
 6733TIP3   OH241613   2.801   5.265  11.732 -0.3419 -0.0181  0.0852
 6733TIP3    H141614   2.712   5.296  11.716 -0.1734  0.1627 -0.4998
 6733TIP3    H241615   2.827   5.221  11.651  0.2312  0.2368  0.1266
 6734TIP3   OH241616   4.826   4.512  12.121 -0.5784 -0.0425  0.1928
 6734TIP3    H141617   4.839   4.468  12.205  1.6781  0.1379 -0.0142
 6734TIP3    H241618   4.860   4.451  12.056  1.2914  1.3537 -0.2187
 6735TIP3   OH241619   4.926   4.980   6.234  0.2091 -0.2794  0.2658
 6735TIP3    H141620   4.947   4.987   6.327 -1.4915 -2.6652  0.9228
 6735TIP3    H241621   4.887   5.065   6.212 -2.1044 -0.6479  2.5482
 6736TIP3   OH241622   6.134   3.641   5.781 -0.1328 -0.2553 -0.4395
 6736TIP3    H141623   6.148   3.548   5.763 -0.0700  0.1045 -2.4728
 6736TIP3    H241624   6.040   3.654   5.768 -0.0087  0.1157 -0.9948
 6737TIP3   OH241625   5.064   3.112  13.606 -0.0621  0.9423 -0.1005
 6737TIP3    H141626   4.982   3.111  13.556  0.2193  2.6166 -0.6376
 6737TIP3    H241627   5.039   3.146  13.691  0.0436  1.2539 -0.1951
 6738TIP3   OH241628   6.205   3.603  12.707  0.2127  0.2639 -0.1784
 6738TIP3    H141629   6.184   3.688  12.670 -0.7747  0.0860 -0.0400
 6738TIP3    H241630   6.248   3.622  12.790 -0.4187  0.6279  0.0696
 6739TIP3   OH241631   0.620   1.261  11.342  0.3384  0.2147  0.2048
 6739TIP3    H141632   0.707   1.291  11.372 -0.5893  3.5184  0.0542
 6739TIP3    H241633   0.626   1.264  11.247  0.2517 -0.1409  0.1895
 6740TIP3   OH241634   6.666   2.565  17.044 -0.1721 -0.2525  0.1410
 6740TIP3    H141635   6.584   2.523  17.070 -0.9317  1.3349  0.4311
 6740TIP3    H241636   6.734   2.507  17.077 -1.1548 -0.2266  2.4094
 6741TIP3   OH241637   3.208   3.360   2.538 -0.1698 -0.1874  0.4329
 6741TIP3    H141638   3.202   3.416   2.616  1.1928  1.6523 -0.7087
 6741TIP3    H241639   3.146   3.289   2.556 -0.0162  0.2246  3.1169
 6742TIP3   OH241640   5.803   2.937   3.520 -0.0793  0.2139 -0.0383
 6742TIP3    H141641   5.889   2.975   3.501  0.0210  0.0979  0.1827
 6742TIP3    H241642   5.814   2.844   3.501  0.2881 -0.0644  1.4533
 6743TIP3   OH241643   0.990   0.832  14.336  0.1855 -0.1885 -0.0503
 6743TIP3    H141644   0.903   0.822  14.297  1.4120 -0.4432 -3.0501
 6743TIP3    H241645   1.025   0.912  14.296  1.7850 -0.8054  0.0216
 6744TIP3   OH241646   5.761   6.291  12.903  0.6454  0.3723 -0.2201
 6744TIP3    H141647   5.821   6.233  12.950 -1.5733 -2.0836 -0.1657
 6744TIP3    H241648   5.735   6.241  12.826 -1.0550  1.4651 -0.3992
 6745TIP3   OH241649   3.839   3.572  15.859  0.0917  0.0258 -0.4980
 6745TIP3    H141650   3.839   3.516  15.781  2.4676 -0.9770  0.1284
 6745TIP3    H241651   3.865   3.513  15.930  0.6338  1.5007  0.5674
 6746TIP3   OH241652   1.228   5.745   5.085 -0.0349  0.6155  0.5010
 6746TIP3    H141653   1.172   5.822   5.077  1.5717  1.6481 -2.2595
 6746TIP3    H241654   1.179   5.676   5.040 -0.1239  0.8838  0.1805
 6747TIP3   OH241655   0.970   3.718   1.072  0.1041  0.2035  0.1699
 6747TIP3    H141656   1.052   3.739   1.117 -0.3961 -1.4868  2.0399
 6747TIP3    H241657   0.941   3.801   1.033  0.1367  2.1353  3.8094
 6748TIP3   OH241658   5.379   2.183  13.385  0.4414 -0.0593 -0.0181
 6748TIP3    H141659   5.475   2.171  13.387  0.2001 -2.5893  0.7589
 6748TIP3    H241660   5.360   2.205  13.294  2.0379  4.7052  0.5566
 6749TIP3   OH241661   5.583   1.527   0.315  0.3219 -0.4285 -0.2017
 6749TIP3    H141662   5.631   1.467   0.257  0.6427 -0.2271 -0.1471
 6749TIP3    H241663   5.651   1.570   0.366  0.1191  0.2001 -0.4443
 6750TIP3   OH241664   3.950   5.833  16.803  0.3316 -0.3025 -0.1637
 6750TIP3    H141665   3.996   5.753  16.778  1.1075  0.0743  0.0329
 6750TIP3    H241666   3.858   5.808  16.802  0.3915 -0.6242 -2.1955
 6751TIP3   OH241667   4.939   6.405   4.881  0.7184  0.5600  0.5652
 6751TIP3    H141668   4.877   6.435   4.814  0.6679  2.1607  1.2649
 6751TIP3    H241669   4.921   6.312   4.890 -0.1367  0.5647 -0.7440
 6752TIP3   OH241670   1.273   0.942  13.982  0.3183  0.0686 -0.5321
 6752TIP3    H141671   1.343   0.989  14.026  0.7928  0.9383 -2.1541
 6752TIP3    H241672   1.306   0.926  13.894 -0.4317 -1.9873 -0.5002
 6753TIP3   OH241673   4.826   1.137   3.349 -0.1054 -0.5037 -0.0411
 6753TIP3    H141674   4.851   1.106   3.262  0.4767 -1.6748  0.5281
 6753TIP3    H241675   4.905   1.176   3.385 -0.2909 -0.2086  0.0545
 6754TIP3   OH241676   0.549   4.761   0.067  0.5170  0.5032 -0.3997
 6754TIP3    H141677   0.556   4.853   0.093 -0.0507  0.0058  1.7218
 6754TIP3    H241678   0.465   4.756   0.021  1.6205  1.4461 -2.6556
 6755TIP3   OH241679   1.320   5.211   4.816  0.3827  0.4238  0.3968
 6755TIP3    H141680   1.318   5.152   4.741 -0.5701  0.0173  0.7268
 6755TIP3    H241681   1.228   5.224   4.839  0.4429  3.3016 -0.6440
 6756TIP3   OH241682   1.618   6.588  11.272  0.3141 -0.2108 -0.6034
 6756TIP3    H141683   1.626   6.681  11.250 -0.9486  0.4677  1.5026
 6756TIP3    H241684   1.533   6.562  11.235 -0.0960 -0.0486  0.1891
 6757TIP3   OH241685   4.159   1.182  12.281  0.6982 -0.7388 -0.0986
 6757TIP3    H141686   4.223   1.240  12.240  1.3927 -0.5766  1.1646
 6757TIP3    H241687   4.203   1.098  12.288  0.8690 -0.5766  0.9532
 6758TIP3   OH241688   2.780   5.976   6.071  0.1246  0.3702 -0.2906
 6758TIP3    H141689   2.802   6.041   6.004 -0.7462  1.5801  0.5458
 6758TIP3    H241690   2.739   6.027   6.140 -1.2147 -1.1821  0.1067
 6759TIP3   OH241691   2.519   1.847  11.070 -0.1753 -0.1543 -0.0890
 6759TIP3    H141692   2.588   1.781  11.071 -0.1259 -0.1783 -1.9320
 6759TIP3    H241693   2.497   1.858  10.978 -1.1608  1.4051  0.2861
 6760TIP3   OH241694   2.058   2.160  14.552 -0.2900 -0.4092  0.1159
 6760TIP3    H141695   2.055   2.151  14.647 -1.1585  0.0552  0.1472
 6760TIP3    H241696   2.120   2.232  14.537 -1.5927  0.8283  0.4560
 6761TIP3   OH241697   4.518   6.215  13.266  0.2162  0.3611 -0.1931
 6761TIP3    H141698   4.505   6.237  13.174  0.7044  2.1456  0.1231
 6761TIP3    H241699   4.544   6.297  13.307  1.8965 -0.7691  1.1799
 6762TIP3   OH241700   0.091   5.874   0.247 -0.3041 -0.2349 -0.2251
 6762TIP3    H141701   0.172   5.913   0.214 -1.6354  1.1686 -2.0070
 6762TIP3    H241702   0.076   5.798   0.191 -0.5343 -0.1282 -0.3096
 6763TIP3   OH241703   3.903   4.985  15.117  0.4565 -0.0097  0.1615
 6763TIP3    H141704   3.900   5.078  15.094  2.6793  0.7056  2.2975
 6763TIP3    H241705   3.812   4.963  15.140 -0.1004  1.6482 -0.2991
 6764TIP3   OH241706   4.096   4.787  15.399 -0.7402 -0.4266 -0.4145
 6764TIP3    H141707   4.021   4.846  15.391 -2.6621 -2.2391  2.4028
 6764TIP3    H241708   4.166   4.841  15.436 -1.6726  0.6010 -0.1215
 6765TIP3   OH241709   1.615   2.974  13.106 -0.1776 -0.0214  0.3443
 6765TIP3    H141710   1.647   3.014  13.025 -1.2446 -0.2313 -0.1966
 6765TIP3    H241711   1.558   2.903  13.076  0.0764 -0.6337  1.2856
 6766TIP3   OH241712   0.993   1.230  12.008 -0.1145 -0.4082 -0.1751
 6766TIP3    H141713   0.986   1.325  12.020  1.9609 -0.0998 -0.9216
 6766TIP3    H241714   1.059   1.220  11.939  1.2767 -2.4316  1.3407
 6767TIP3   OH241715   3.670   0.750   1.175  0.0080 -0.0516 -0.1847
 6767TIP3    H141716   3.744   0.726   1.231 -0.8905 -0.4559  0.8577
 6767TIP3    H241717   3.687   0.841   1.151  1.6332 -0.5942 -1.2621
 6768TIP3   OH241718   6.307   3.993  16.338  0.4373 -0.0089  0.3567
 6768TIP3    H141719   6.254   3.926  16.295  0.2319 -1.4456  2.6419
 6768TIP3    H241720   6.374   3.943  16.385  1.2180  1.5136  0.9303
 6769TIP3   OH241721   0.584   3.794  16.650  0.4228 -0.3100  0.2313
 6769TIP3    H141722   0.672   3.828  16.666  0.9044 -0.9017 -1.0027
 6769TIP3    H241723   0.531   3.871  16.630  1.0935 -0.0997 -0.8089
 6770TIP3   OH241724   4.999   0.492   0.906  0.6642 -0.1930  0.8001
 6770TIP3    H141725   4.979   0.584   0.890  2.7362  0.3202  0.8665
 6770TIP3    H241726   5.080   0.476   0.857 -0.8563 -2.6634 -1.1431
 6771TIP3   OH241727   5.836   5.464   0.162  0.1699 -0.0267  0.2310
 6771TIP3    H141728   5.907   5.527   0.178 -0.5329  0.9945 -0.5853
 6771TIP3    H241729   5.756   5.517   0.161 -0.2746 -0.6195 -2.2386
 6772TIP3   OH241730   6.741   5.368   3.134  0.3573 -0.2225  0.3744
 6772TIP3    H141731   6.799   5.293   3.142 -1.3220 -1.6091 -0.0303
 6772TIP3    H241732   6.729   5.399   3.224  0.8684 -0.5731  0.5644
 6773TIP3   OH241733   5.119   3.778  11.540  0.0098  0.0285  0.4569
 6773TIP3    H141734   5.074   3.702  11.503 -1.8188  0.5417  1.4630
 6773TIP3    H241735   5.179   3.807  11.471  1.1982 -2.6176  0.2481
 6774TIP3   OH241736   2.485   4.453   4.585 -0.1049 -0.6031 -0.6180
 6774TIP3    H141737   2.569   4.485   4.552  0.2225  0.3267  1.0336
 6774TIP3    H241738   2.419   4.501   4.534  0.3907  0.8647  0.0921
 6775TIP3   OH241739   2.147   3.858  16.624 -0.4179 -0.2543 -0.1928
 6775TIP3    H141740   2.194   3.885  16.545 -0.3126  1.7735  0.5252
 6775TIP3    H241741   2.187   3.773  16.647 -1.1665 -1.4376 -2.8560
 6776TIP3   OH241742   3.570   3.943  14.048  0.3584  0.0488  0.7449
 6776TIP3    H141743   3.602   3.939  13.958  0.8858 -0.8969  0.9548
 6776TIP3    H241744   3.486   3.989  14.043  0.2231 -0.3007 -0.2715
 6777TIP3   OH241745   1.196   1.598   3.736 -0.1675 -0.6252 -0.3727
 6777TIP3    H141746   1.268   1.660   3.749  0.2506 -0.5824 -2.4775
 6777TIP3    H241747   1.146   1.633   3.663 -1.9494 -1.0376  0.5934
 6778TIP3   OH241748   6.015   5.296   1.920  0.0757 -0.1748 -0.2059
 6778TIP3    H141749   5.961   5.364   1.879 -2.0243 -1.0701  0.9089
 6778TIP3    H241750   6.083   5.345   1.967 -1.7599  1.2602  1.1119
 6779TIP3   OH241751   3.406   4.226  15.194 -0.1646  0.0488 -0.4640
 6779TIP3    H141752   3.351   4.240  15.272 -1.4514  0.5821 -1.4268
 6779TIP3    H241753   3.474   4.292  15.201 -0.6259  0.4997 -0.0879
 6780TIP3   OH241754   4.324   6.371  11.647 -0.1777 -0.1716 -0.3460
 6780TIP3    H141755   4.382   6.316  11.594  0.1721  0.2412 -0.3922
 6780TIP3    H241756   4.270   6.416  11.582 -0.9796 -1.0146 -0.2843
 6781TIP3   OH241757   0.987   0.453   2.284 -0.3525 -0.4137  0.1864
 6781TIP3    H141758   1.077   0.471   2.260 -0.6167 -0.1351 -0.6168
 6781TIP3    H241759   0.979   0.485   2.374 -0.0882  1.0746 -0.2918
 6782TIP3   OH241760   5.668   3.142   1.548 -0.8436 -0.3074 -0.1616
 6782TIP3    H141761   5.623   3.069   1.591  0.5860 -0.7535  0.6342
 6782TIP3    H241762   5.686   3.110   1.460 -1.7630 -0.2403 -0.3889
 6783TIP3   OH241763   2.721   3.185  10.693 -0.3833  0.3157  0.2923
 6783TIP3    H141764   2.805   3.230  10.703  0.7801 -1.1732 -1.8741
 6783TIP3    H241765   2.721   3.154  10.603 -1.4302 -3.2340  1.3332
 6784TIP3   OH241766   5.663   0.760  11.357  0.2843  0.1466  0.0011
 6784TIP3    H141767   5.644   0.674  11.319  3.1163 -1.0020  0.9202
 6784TIP3    H241768   5.696   0.812  11.284 -1.8448  0.6669 -0.6494
 6785TIP3   OH241769   6.302   1.084  12.001 -0.7147 -0.6235  0.4180
 6785TIP3    H141770   6.209   1.070  12.019 -0.3281 -1.8189  1.6202
 6785TIP3    H241771   6.336   0.997  11.983 -0.1768  0.0221 -1.9465
 6786TIP3   OH241772   5.393   3.650  13.667 -0.0854 -0.1374 -0.0499
 6786TIP3    H141773   5.318   3.687  13.713 -0.0384 -0.9229  0.6711
 6786TIP3    H241774   5.370   3.558  13.653 -0.2175  0.1223 -1.8510
 6787TIP3   OH241775   6.264   5.907   3.215  0.1118  0.2741  0.7264
 6787TIP3    H141776   6.174   5.918   3.246  0.1275  3.7603 -0.0872
 6787TIP3    H241777   6.318   5.928   3.291  0.3525 -1.9767  1.2639
 6788TIP3   OH241778   2.911   2.209  11.692  0.1103 -0.2145  0.0813
 6788TIP3    H141779   2.872   2.289  11.726  0.3752 -0.4790  1.0258
 6788TIP3    H241780   3.003   2.215  11.717  0.3481 -0.3523 -0.7207
 6789TIP3   OH241781   4.450   0.036  13.000  0.2952 -0.2207 -0.2768
 6789TIP3    H141782   4.358   0.020  13.019  0.2854 -0.3431 -0.4240
 6789TIP3    H241783   4.489   0.055  13.086  0.6048 -2.5570  0.1736
 6790TIP3   OH241784   3.862   3.710  15.567  0.4078  0.4784  0.0244
 6790TIP3    H141785   3.933   3.685  15.625  1.7295  0.4152 -1.5411
 6790TIP3    H241786   3.877   3.659  15.487 -1.7706 -0.0100 -0.1315
 6791TIP3   OH241787   3.487   5.222   0.087  0.4573 -0.1079 -1.0352
 6791TIP3    H141788   3.524   5.307   0.111  0.0093  0.0606 -0.9397
 6791TIP3    H241789   3.470   5.178   0.170 -0.9305  0.4077 -1.0273
 6792TIP3   OH241790   0.179   2.996   2.073  0.0060 -0.3985  0.4939
 6792TIP3    H141791   0.177   3.056   1.999 -1.9499 -0.9318  0.0487
 6792TIP3    H241792   0.235   3.039   2.138  0.8674  0.5831 -0.8553
 6793TIP3   OH241793   1.086   4.304  17.172  0.8099 -0.1453 -0.1247
 6793TIP3    H141794   1.128   4.369  17.228  1.0562 -0.5915  0.2090
 6793TIP3    H241795   0.994   4.308  17.196  1.3353 -2.9106  3.0202
 6794TIP3   OH241796   3.798   6.425   2.754  0.3539  0.0206  0.2067
 6794TIP3    H141797   3.789   6.498   2.693  0.2407  0.9049  1.2509
 6794TIP3    H241798   3.878   6.446   2.803  0.8516 -1.0509 -0.1287
 6795TIP3   OH241799   1.942   6.035  13.993 -0.3265  0.2110  0.6651
 6795TIP3    H141800   2.014   5.972  13.991  1.3485  2.0660 -1.6536
 6795TIP3    H241801   1.883   6.006  13.923  0.5251  1.2545 -0.5087
 6796TIP3   OH241802   1.969   1.649   4.314  0.1642 -0.1266 -0.0915
 6796TIP3    H141803   1.962   1.563   4.273 -3.4349  0.3957 -0.8973
 6796TIP3    H241804   2.001   1.707   4.245  0.3998 -0.4182 -0.2254
 6797TIP3   OH241805   6.523   0.224  13.992 -0.2589  0.1019  0.2139
 6797TIP3    H141806   6.505   0.232  14.085 -0.5215 -1.2416  0.3050
 6797TIP3    H241807   6.441   0.189  13.955  0.6001 -1.6796 -0.1143
 6798TIP3   OH241808   2.326   1.384   2.504 -0.6295 -1.0860 -0.2071
 6798TIP3    H141809   2.241   1.427   2.491 -0.5216 -0.7104  0.3071
 6798TIP3    H241810   2.378   1.412   2.429 -0.5751 -0.3372  0.0962
 6799TIP3   OH241811   4.752   6.010  15.205  0.0429 -0.4250  0.1481
 6799TIP3    H141812   4.761   5.923  15.244 -0.0056  0.2839  1.8137
 6799TIP3    H241813   4.837   6.028  15.166  0.3469 -0.8341  0.6150
 6800TIP3   OH241814   2.752   0.218  12.061  0.0695  0.4841  0.4869
 6800TIP3    H141815   2.711   0.303  12.050  1.0852  0.8351 -0.8189
 6800TIP3    H241816   2.683   0.155  12.037 -0.4177  0.9607  0.6146
 6801TIP3   OH241817   5.858   3.204  17.002  0.1287 -0.0302 -0.1615
 6801TIP3    H141818   5.892   3.273  17.059 -0.3296 -0.0772  0.1770
 6801TIP3    H241819   5.922   3.197  16.932  2.3115 -2.0079  1.8254
 6802TIP3   OH241820   6.594   1.062   3.973  0.1325  0.1359 -0.9276
 6802TIP3    H141821   6.563   0.972   3.980 -0.0596  0.3060  0.8871
 6802TIP3    H241822   6.527   1.106   3.920 -0.6768 -0.4025 -0.3745
 6803TIP3   OH241823   1.105   1.279  13.327 -0.1739 -0.2931  0.7214
 6803TIP3    H141824   1.030   1.231  13.362  0.0260  0.6641  2.6292
 6803TIP3    H241825   1.067   1.359  13.291 -0.2754 -0.8462 -0.4530
 6804TIP3   OH241826   2.459   0.949   5.285 -0.2283 -0.0640 -1.0427
 6804TIP3    H141827   2.363   0.948   5.288 -0.3096  0.1552 -2.5986
 6804TIP3    H241828   2.482   1.040   5.268  0.3083  0.0063 -0.0081
 6805TIP3   OH241829   6.637   2.857  11.906  0.3687 -0.5586 -0.3093
 6805TIP3    H141830   6.580   2.896  11.971 -0.5839 -2.0376 -0.2034
 6805TIP3    H241831   6.680   2.931  11.864 -1.1852  0.5856  0.0181
 6806TIP3   OH241832   0.421   4.555  14.643 -0.0409  0.0735 -0.3320
 6806TIP3    H141833   0.506   4.576  14.683 -0.1079  1.5765 -0.9047
 6806TIP3    H241834   0.369   4.634  14.656 -1.6238 -1.0651  0.6106
 6807TIP3   OH241835   4.963   4.128  14.280 -0.1980  0.0057  0.2235
 6807TIP3    H141836   4.880   4.176  14.275  0.5553  1.2745 -0.4952
 6807TIP3    H241837   5.021   4.174  14.220  1.8846  0.9085  2.7407
 6808TIP3   OH241838   0.387   1.374  11.745 -0.1512  0.2194  0.1232
 6808TIP3    H141839   0.465   1.343  11.699 -0.4259  1.9345 -1.6119
 6808TIP3    H241840   0.412   1.460  11.778 -1.3739  0.9078 -0.6949
 6809TIP3   OH241841   4.469   1.858   3.911 -0.0328  0.0183 -0.2193
 6809TIP3    H141842   4.461   1.951   3.894  1.6126  0.2198  0.0159
 6809TIP3    H241843   4.560   1.837   3.893 -0.2295 -1.4332  0.2952
 6810TIP3   OH241844   4.524   0.759   5.784  0.0176  0.0744 -0.5170
 6810TIP3    H141845   4.455   0.694   5.785 -0.5245  0.6181  1.4886
 6810TIP3    H241846   4.554   0.765   5.875  0.5350  2.0886 -0.7625
 6811TIP3   OH241847   2.671   1.060  12.617  0.0696  0.2360  0.3236
 6811TIP3    H141848   2.603   1.047  12.550  0.1762  0.4017  0.1813
 6811TIP3    H241849   2.717   1.139  12.589  2.0430 -1.3022 -1.0615
 6812TIP3   OH241850   0.782   5.130  13.026  0.2475 -0.5616  0.8170
 6812TIP3    H141851   0.824   5.109  13.109  2.8611 -0.4537 -0.3668
 6812TIP3    H241852   0.766   5.224  13.030 -2.4604 -0.9606  2.2758
 6813TIP3   OH241853   1.496   0.896   3.819  0.2162  0.1440  0.2440
 6813TIP3    H141854   1.529   0.982   3.791  0.2406  0.1581  0.3165
 6813TIP3    H241855   1.435   0.916   3.890  0.6210  0.0644  0.6189
 6814TIP3   OH241856   5.789   5.139   1.370  0.5448 -0.3341  0.1739
 6814TIP3    H141857   5.842   5.089   1.431  0.8410 -0.5733 -0.2758
 6814TIP3    H241858   5.822   5.229   1.377 -0.3380 -0.0792  1.3684
 6815TIP3   OH241859   4.565   2.878   3.190 -0.4084 -0.3220 -0.3494
 6815TIP3    H141860   4.613   2.958   3.210 -0.7703 -0.2578  0.2596
 6815TIP3    H241861   4.568   2.872   3.094  1.1232 -0.5128 -0.3197
 6816TIP3   OH241862   6.736   6.597   3.944  0.2057 -0.0944 -0.2031
 6816TIP3    H141863   6.721   6.661   4.013 -0.2650 -0.2206 -0.1803
 6816TIP3    H241864   6.706   6.641   3.864 -2.0929 -0.9713  0.0765
 6817TIP3   OH241865   3.949   4.893   6.133  0.2878 -0.7353  0.2663
 6817TIP3    H141866   3.930   4.913   6.041 -0.2331 -0.1557  0.4946
 6817TIP3    H241867   3.876   4.837   6.161 -1.0651  1.3116  1.0797
 6818TIP3   OH241868   4.499   1.762   3.086  0.2694  0.0353  0.0619
 6818TIP3    H141869   4.504   1.856   3.071 -2.7510  0.3599  0.3962
 6818TIP3    H241870   4.478   1.724   3.001  0.6844 -0.2626  0.0865
 6819TIP3   OH241871   6.252   0.763  16.813  0.4093 -0.2837 -0.1378
 6819TIP3    H141872   6.293   0.780  16.728 -0.3082 -0.9128 -0.6171
 6819TIP3    H241873   6.307   0.810  16.876  0.0777  1.4684 -1.0972
 6820TIP3   OH241874   0.014   1.749  12.161 -0.0181  0.2677  0.5842
 6820TIP3    H141875  -0.082   1.752  12.154 -0.1097 -1.1481  0.7421
 6820TIP3    H241876   0.046   1.792  12.082 -0.7936  0.6106  0.4506
 6821TIP3   OH241877   6.648   4.405   1.549 -0.4942 -0.1191 -0.4105
 6821TIP3    H141878   6.659   4.397   1.455  0.6175  1.0884 -0.4260
 6821TIP3    H241879   6.733   4.436   1.580 -0.8825 -0.3618  0.9712
 6822TIP3   OH241880   0.630   3.186  15.306 -0.3264 -0.2014  0.0876
 6822TIP3    H141881   0.549   3.211  15.349  0.0798  0.0720  0.7105
 6822TIP3    H241882   0.628   3.091  15.303 -1.2636 -0.1680 -1.0822
 6823TIP3   OH241883   1.145   5.980  12.467 -0.3143  0.1222  0.2364
 6823TIP3    H141884   1.085   5.923  12.418 -0.3291  0.8355 -0.6100
 6823TIP3    H241885   1.100   5.997  12.549 -1.0670  0.2777 -0.2004
 6824TIP3   OH241886   1.186   5.905  14.891  0.3958  0.0663 -0.0897
 6824TIP3    H141887   1.192   5.810  14.904  1.9710  0.2787  1.0969
 6824TIP3    H241888   1.253   5.941  14.950 -1.1594  2.0187  0.5738
 6825TIP3   OH241889   5.590   2.175  15.075  0.1491  0.0543 -0.9013
 6825TIP3    H141890   5.582   2.206  14.985 -1.9034 -1.4006 -1.3033
 6825TIP3    H241891   5.597   2.080  15.067  1.9378  0.0172  0.4438
 6826TIP3   OH241892   3.992   5.905   3.819 -0.3556 -0.6107  0.3778
 6826TIP3    H141893   4.025   5.991   3.793  2.5694 -1.7979 -0.1806
 6826TIP3    H241894   3.943   5.921   3.900  0.0348  1.5781  0.2265
 6827TIP3   OH241895   1.223   6.252   5.166 -0.4174  0.3612 -0.3449
 6827TIP3    H141896   1.131   6.256   5.191 -0.2100  1.4572  0.3284
 6827TIP3    H241897   1.270   6.290   5.240  0.5941 -0.2777 -0.6356
 6828TIP3   OH241898   1.436   1.902  13.017  0.2390  0.2624 -0.0724
 6828TIP3    H141899   1.440   1.831  13.081 -0.5360 -1.6525 -2.0032
 6828TIP3    H241900   1.502   1.965  13.046  2.6525 -2.3233  0.5230
 6829TIP3   OH241901   2.322   1.215   4.501  0.4033 -0.1254  1.0221
 6829TIP3    H141902   2.265   1.178   4.569 -0.3469  1.2915  1.1882
 6829TIP3    H241903   2.388   1.265   4.549  0.1655  0.4729  0.7404
 6830TIP3   OH241904   5.385   5.394  15.236 -0.5702  0.1020 -0.2939
 6830TIP3    H141905   5.428   5.310  15.222 -0.9707 -0.4460  1.4768
 6830TIP3    H241906   5.292   5.372  15.245 -0.7779  0.8394 -0.5259
 6831TIP3   OH241907   3.372   5.392  17.280 -0.6027  0.3749  0.2687
 6831TIP3    H141908   3.412   5.346  17.354 -0.4361 -0.6937 -0.4735
 6831TIP3    H241909   3.445   5.438  17.238 -0.5297  0.1788  0.1812
 6832TIP3   OH241910   5.817   1.487  12.022  0.3070 -0.1681  0.1988
 6832TIP3    H141911   5.795   1.437  12.100 -0.6091 -2.1699 -1.2529
 6832TIP3    H241912   5.767   1.445  11.952  1.9407  0.8240 -1.6714
 6833TIP3   OH241913   1.102   4.922  13.978  0.0458  0.5520 -0.3588
 6833TIP3    H141914   1.146   4.970  13.907  1.8758 -0.4788  0.0208
 6833TIP3    H241915   1.168   4.916  14.047  0.0760 -2.7876 -0.5366
 6834TIP3   OH241916   3.384   5.260   5.634 -0.2029 -0.4934 -0.4694
 6834TIP3    H141917   3.361   5.262   5.542 -0.6516 -0.7402 -0.3601
 6834TIP3    H241918   3.418   5.348   5.652  1.0140 -0.7962 -1.1513
 6835TIP3   OH241919   5.697   5.397  12.462 -0.2453  0.4287 -0.0989
 6835TIP3    H141920   5.788   5.376  12.483  0.1315  0.5457 -1.4901
 6835TIP3    H241921   5.650   5.389  12.545  1.2406  1.5964  0.8975
 6836TIP3   OH241922   3.467   5.293  13.066  0.3277 -0.1599 -0.3180
 6836TIP3    H141923   3.375   5.310  13.046  0.1428 -0.7878 -0.0339
 6836TIP3    H241924   3.466   5.254  13.153  0.7506 -1.1406 -0.7275
 6837TIP3   OH241925   5.793   5.527  16.480 -0.3738 -0.5535 -0.0873
 6837TIP3    H141926   5.842   5.609  16.471 -0.0571 -0.8586 -1.3150
 6837TIP3    H241927   5.704   5.555  16.502 -0.6363  0.2096 -1.9756
 6838TIP3   OH241928   5.604   5.442  15.696  0.1453  0.2749 -0.0145
 6838TIP3    H141929   5.624   5.355  15.731  1.3809  0.6287  0.2072
 6838TIP3    H241930   5.622   5.434  15.602  1.5214  0.6101  0.1925
 6839TIP3   OH241931   3.652   3.200   1.094  0.4880 -0.1288 -0.2390
 6839TIP3    H141932   3.737   3.179   1.132  0.8353  1.2934 -0.1748
 6839TIP3    H241933   3.640   3.293   1.112 -0.4917 -0.0052 -1.3873
 6840TIP3   OH241934   4.191   5.615   2.141 -0.0751 -0.2756  0.1452
 6840TIP3    H141935   4.249   5.689   2.158  0.0487 -0.2018 -0.5672
 6840TIP3    H241936   4.217   5.549   2.206 -1.0484  0.7589  1.6267
 6841TIP3   OH241937   5.198   5.948   1.683  0.1680 -0.3698  0.4836
 6841TIP3    H141938   5.259   5.996   1.626 -0.2319  1.0105  1.1783
 6841TIP3    H241939   5.111   5.969   1.649  0.0228 -2.1842 -0.3867
 6842TIP3   OH241940   4.968   0.660   0.579  0.1376  0.5529 -0.4671
 6842TIP3    H141941   4.929   0.683   0.663  2.0604 -1.8211  1.2038
 6842TIP3    H241942   5.062   0.676   0.591  0.5729 -0.8057 -1.8110
 6843TIP3   OH241943   6.264   4.125   0.291 -0.2786 -0.4652  0.0066
 6843TIP3    H141944   6.335   4.150   0.232  0.0334 -0.6768  0.2876
 6843TIP3    H241945   6.196   4.090   0.233 -0.7928  1.1354 -0.4110
 6844TIP3   OH241946   6.353   4.838   1.852  0.1048  0.1426  0.3439
 6844TIP3    H141947   6.336   4.932   1.843 -2.0040 -0.3495 -2.0305
 6844TIP3    H241948   6.344   4.820   1.945  1.7280  2.4371  1.0403
 6845TIP3   OH241949   5.974   1.705   4.425  0.8056  0.2644  0.2591
 6845TIP3    H141950   5.913   1.754   4.481  0.4883  0.1548  0.0158
 6845TIP3    H241951   6.039   1.770   4.399  0.0292  0.7307 -0.5814
 6846TIP3   OH241952   3.862   6.425   1.085  0.3415  0.1878  0.2048
 6846TIP3    H141953   3.814   6.385   1.158  0.9146 -0.8009  0.0675
 6846TIP3    H241954   3.809   6.405   1.008  0.4724 -0.0564  0.1755
 6847TIP3   OH241955   1.748   5.634  16.103  0.5068  0.3649 -0.2868
 6847TIP3    H141956   1.740   5.713  16.049  0.5114  0.2439 -0.4633
 6847TIP3    H241957   1.790   5.665  16.184 -1.0428  0.8759  0.3601
 6848TIP3   OH241958   0.507   1.908  11.980 -0.6094 -0.4281 -0.5585
 6848TIP3    H141959   0.499   1.987  12.033 -2.2943 -0.5976 -0.5077
 6848TIP3    H241960   0.486   1.836  12.039 -0.1255 -0.8234 -0.8613
 6849TIP3   OH241961   6.120   5.804   1.300  0.7420  0.3388  0.2413
 6849TIP3    H141962   6.213   5.780   1.304  0.0842 -2.5540  1.2014
 6849TIP3    H241963   6.089   5.766   1.218  0.9146  3.9076 -1.6394
 6850TIP3   OH241964   6.520   6.037   1.910 -0.2914 -0.0775  0.5038
 6850TIP3    H141965   6.612   6.061   1.923 -0.4990  0.5244  0.8842
 6850TIP3    H241966   6.482   6.113   1.866 -0.2741 -0.9168 -0.9963
 6851TIP3   OH241967   3.684   5.068   5.199 -0.1735 -0.3265  0.5844
 6851TIP3    H141968   3.715   5.027   5.118 -1.4473  0.4642 -0.3362
 6851TIP3    H241969   3.708   5.160   5.189  0.2874 -0.3527  1.4303
 6852TIP3   OH241970   4.332   5.273   3.490 -0.2293  0.2976 -0.7535
 6852TIP3    H141971   4.388   5.275   3.412  0.0967  2.5867 -0.5451
 6852TIP3    H241972   4.352   5.189   3.532  2.0718  0.4215 -1.4283
 6853TIP3   OH241973   1.444   6.687  12.289  0.4959  0.2529 -0.5463
 6853TIP3    H141974   1.520   6.669  12.234  2.6846  0.8566  2.0886
 6853TIP3    H241975   1.375   6.712  12.227  2.7002  0.6723 -2.9834
 6854TIP3   OH241976   5.043   6.594   3.699 -0.3231  0.0679 -0.2389
 6854TIP3    H141977   5.102   6.564   3.768  2.0271 -0.6874 -2.4016
 6854TIP3    H241978   5.040   6.521   3.637 -1.1167  1.2459 -1.6555
 6855TIP3   OH241979   3.227   0.602  17.318  0.0614  0.5591 -0.0849
 6855TIP3    H141980   3.184   0.678  17.356 -1.6293  0.5315 -1.7650
 6855TIP3    H241981   3.200   0.529  17.374 -1.4642  0.6752 -0.6104
 6856TIP3   OH241982   1.479   6.322   3.875 -0.1382 -0.6500  0.2934
 6856TIP3    H141983   1.536   6.246   3.870 -0.1808 -0.7601  1.2667
 6856TIP3    H241984   1.390   6.287   3.869 -0.1713 -0.7274  1.1708
 6857TIP3   OH241985   2.623   1.495  14.359 -0.1216  0.2053 -0.3449
 6857TIP3    H141986   2.659   1.584  14.365 -1.5038  0.8358 -0.8202
 6857TIP3    H241987   2.699   1.438  14.349  0.9529  1.0946  2.1090
 6858TIP3   OH241988   4.614   3.127  13.737  0.5262  0.3781  0.0518
 6858TIP3    H141989   4.590   3.214  13.771  2.6314  0.8467  0.4944
 6858TIP3    H241990   4.542   3.070  13.763 -1.5004  2.1793 -1.2622
 6859TIP3   OH241991   0.506   2.940  16.522 -0.0678 -0.0472 -0.2451
 6859TIP3    H141992   0.533   2.951  16.431 -0.4864 -0.6466 -0.4551
 6859TIP3    H241993   0.568   2.992  16.573  0.6736 -0.3655 -0.8052
 6860TIP3   OH241994   0.080   0.039  15.029  0.4134 -0.2510 -0.1778
 6860TIP3    H141995   0.144  -0.030  15.047  0.9853 -0.4011 -2.4841
 6860TIP3    H241996   0.013  -0.004  14.976 -0.4951  0.4199  0.4077
 6861TIP3   OH241997   5.800   2.403   0.492 -0.0990 -0.2730  0.8598
 6861TIP3    H141998   5.880   2.412   0.543 -0.0296 -1.4918  0.9999
 6861TIP3    H241999   5.813   2.459   0.415  0.3307  0.5521  1.5142
 6862TIP3   OH242000   6.198   6.565  16.319 -0.4432  0.4109 -0.0295
 6862TIP3    H142001   6.282   6.560  16.365 -0.2885 -2.2289 -0.4362
 6862TIP3    H242002   6.157   6.644  16.352  3.9908  4.5462 -3.0411
 6863TIP3   OH242003   4.173   2.403   4.135 -0.5211  0.2392  0.5133
 6863TIP3    H142004   4.139   2.485   4.098  0.0422  0.8271  1.2578
 6863TIP3    H242005   4.192   2.349   4.058  0.4794  1.3656 -0.0771
 6864TIP3   OH242006   2.834   1.247  16.415  0.1092  0.2740 -0.5697
 6864TIP3    H142007   2.802   1.165  16.453  1.6433 -0.1645 -0.1156
 6864TIP3    H242008   2.757   1.302  16.406 -1.1726 -1.6013 -1.9054
 6865TIP3   OH242009   3.479   0.338  11.374  0.0461 -0.3385 -0.2032
 6865TIP3    H142010   3.470   0.395  11.298  0.8678 -1.5888 -1.2911
 6865TIP3    H242011   3.391   0.305  11.390 -0.0439 -0.5004 -0.9854
 6866TIP3   OH242012   5.129   1.758   2.816 -0.3881 -0.6317 -0.2002
 6866TIP3    H142013   5.216   1.787   2.844 -1.3899  2.2814  0.2182
 6866TIP3    H242014   5.124   1.784   2.724 -1.9327  2.4241  0.6238
 6867TIP3   OH242015   6.589   0.667  11.612  0.1594  0.0849  0.0568
 6867TIP3    H142016   6.592   0.635  11.522  0.4238 -3.6294  1.2304
 6867TIP3    H242017   6.501   0.647  11.642  0.1867  0.9502  0.7706
 6868TIP3   OH242018   1.721   1.873   0.764  0.3025 -0.8877  0.1607
 6868TIP3    H142019   1.680   1.817   0.698 -1.8899  0.7912  0.0077
 6868TIP3    H242020   1.696   1.835   0.848  1.3991 -1.8548  0.0733
 6869TIP3   OH242021   3.100   5.422   2.179 -0.3460  0.3846  0.2522
 6869TIP3    H142022   3.172   5.373   2.138 -0.8217 -0.9191  0.9177
 6869TIP3    H242023   3.113   5.410   2.273 -1.4626  0.0646  0.3815
 6870TIP3   OH242024   5.452   4.013  13.549 -0.2217 -0.7719  0.4833
 6870TIP3    H142025   5.371   4.064  13.539  0.2414  0.3888  2.1332
 6870TIP3    H242026   5.522   4.079  13.545  0.6408 -1.7156 -0.5894
 6871TIP3   OH242027   6.108   4.510   2.569 -0.2923  0.0559 -0.3888
 6871TIP3    H142028   6.033   4.482   2.515  0.0795  0.0985 -0.9421
 6871TIP3    H242029   6.184   4.477   2.521  0.0056 -0.8824  0.6969
 6872TIP3   OH242030   1.268   6.199   0.112  0.0951  0.1328  0.6795
 6872TIP3    H142031   1.362   6.202   0.094 -0.0943 -1.1554 -0.8218
 6872TIP3    H242032   1.236   6.127   0.057 -2.3720  2.8573 -1.8446
 6873TIP3   OH242033   0.359   4.751   5.853  0.1065 -0.5839  0.0167
 6873TIP3    H142034   0.409   4.820   5.896  2.6357 -1.3136 -1.4947
 6873TIP3    H242035   0.272   4.756   5.891  1.3772  0.6318  3.0494
 6874TIP3   OH242036   5.019   4.257  14.744 -0.2456  0.4164  0.4269
 6874TIP3    H142037   5.093   4.242  14.802  0.3688  2.7895  0.3198
 6874TIP3    H242038   4.947   4.280  14.802  0.2552  2.3552  0.3275
 6875TIP3   OH242039   4.019   3.137   1.529  0.5020 -0.3197 -0.5997
 6875TIP3    H142040   4.078   3.083   1.583  0.4898 -0.0589 -0.3238
 6875TIP3    H242041   3.952   3.167   1.590  0.4817 -0.0305 -0.7669
 6876TIP3   OH242042   4.313   0.558   5.819 -0.5166  0.6622 -0.2407
 6876TIP3    H142043   4.290   0.468   5.843  0.5109  0.2015 -0.9267
 6876TIP3    H242044   4.304   0.561   5.724 -0.4504  1.2619 -0.2332
 6877TIP3   OH242045   2.990   0.385   6.742 -0.2822 -0.2342 -0.3684
 6877TIP3    H142046   3.019   0.350   6.658  1.3906  0.7323 -0.2238
 6877TIP3    H242047   3.056   0.355   6.805 -0.5280  0.5511  0.2876
 6878TIP3   OH242048   1.153   4.233   3.784  0.1500 -0.1455 -0.2032
 6878TIP3    H142049   1.081   4.296   3.781  0.1973  0.0383  1.7015
 6878TIP3    H242050   1.111   4.148   3.770 -0.1093  0.1467 -1.3148
 6879TIP3   OH242051   0.969   5.755   4.816  0.2325  0.3381 -0.4052
 6879TIP3    H142052   0.884   5.765   4.774  0.0442 -0.6903 -0.2908
 6879TIP3    H242053   0.970   5.821   4.885 -0.2274  0.7521 -0.7918
 6880TIP3   OH242054   2.464   6.694  11.184  0.1436 -0.0465 -0.0600
 6880TIP3    H142055   2.517   6.759  11.229  0.1051  0.5855 -0.8938
 6880TIP3    H242056   2.487   6.704  11.091  0.4063 -1.4639 -0.1841
 6881TIP3   OH242057   2.994   0.204  13.077 -0.1722  0.3547 -0.2226
 6881TIP3    H142058   2.966   0.288  13.041  1.3212  0.2158 -1.8216
 6881TIP3    H242059   3.016   0.151  13.001 -0.8157 -1.4066  0.7751
 6882TIP3   OH242060   5.832   1.591   0.429 -0.1764  0.4557 -0.1696
 6882TIP3    H142061   5.896   1.620   0.364  1.3351  1.7083  1.7590
 6882TIP3    H242062   5.867   1.508   0.462 -0.7171  0.0342 -0.6456
 6883TIP3   OH242063   3.383   0.122   2.593 -0.3084  0.2019  0.1688
 6883TIP3    H142064   3.314   0.154   2.652  0.7136  0.3172  1.3453
 6883TIP3    H242065   3.383   0.027   2.608 -0.9366  0.0586 -0.6613
 6884TIP3   OH242066   5.196   6.756  11.818 -0.5429 -0.1300 -0.0969
 6884TIP3    H142067   5.252   6.820  11.775 -1.3236 -0.0215 -0.9959
 6884TIP3    H242068   5.109   6.797  11.818 -0.7820 -0.6246  0.5431
 6885TIP3   OH242069   3.157   2.119  15.826 -0.2914  0.1438 -0.0559
 6885TIP3    H142070   3.093   2.055  15.857  1.7081 -0.9857  2.1628
 6885TIP3    H242071   3.174   2.174  15.902  1.9760 -0.1821 -0.2571
 6886TIP3   OH242072   2.188   2.353   4.851  0.0966 -0.4348  0.2275
 6886TIP3    H142073   2.259   2.291   4.862 -0.0421 -0.8930 -1.1904
 6886TIP3    H242074   2.167   2.382   4.940  3.9785  1.9908  0.5876
 6887TIP3   OH242075   0.190   5.695  11.686  0.3757  0.1350  0.1842
 6887TIP3    H142076   0.273   5.665  11.650  0.5058 -0.6406  1.0741
 6887TIP3    H242077   0.162   5.765  11.628 -0.1065 -1.9156 -2.2345
 6888TIP3   OH242078   1.191   0.411   3.173 -0.5203  0.2007  0.3368
 6888TIP3    H142079   1.244   0.410   3.253  0.0346 -0.4870 -0.0233
 6888TIP3    H242080   1.251   0.442   3.105 -1.1015  1.1664  0.2558
 6889TIP3   OH242081   6.421   3.567   6.359  0.2269  0.5234  0.4387
 6889TIP3    H142082   6.429   3.557   6.264 -1.2921  2.1904  0.0899
 6889TIP3    H242083   6.354   3.503   6.384 -0.8533  1.4796  0.0524
 6890TIP3   OH242084   4.722   1.999   3.020 -0.6392 -0.0535  0.3121
 6890TIP3    H142085   4.702   2.026   2.930 -0.9544 -0.8747  0.1261
 6890TIP3    H242086   4.806   1.954   3.013 -0.5737  0.0463  0.4601
 6891TIP3   OH242087   3.767   3.988  17.170  0.0349 -0.1267 -0.0088
 6891TIP3    H142088   3.745   3.917  17.110 -1.6087  1.4683 -1.4326
 6891TIP3    H242089   3.688   4.001  17.223  1.1269 -0.8642  1.9045
 6892TIP3   OH242090   2.009   1.112   4.188 -0.1040  0.7351  0.0282
 6892TIP3    H142091   2.087   1.104   4.134 -1.2781 -2.9662 -1.4416
 6892TIP3    H242092   2.028   1.063   4.267 -0.5276  0.7931  0.1722
 6893TIP3   OH242093   0.802   0.515   4.661  0.5272  0.1705  0.2686
 6893TIP3    H142094   0.827   0.499   4.570 -0.3469 -0.8867  0.1948
 6893TIP3    H242095   0.867   0.578   4.693  3.1516 -2.2008  0.0169
 6894TIP3   OH242096   2.357   2.453   1.968  0.1879 -0.1101  0.0104
 6894TIP3    H142097   2.298   2.513   1.920 -0.1278  0.4603  1.0677
 6894TIP3    H242098   2.313   2.439   2.051  0.9380 -0.7311  0.3093
 6895TIP3   OH242099   0.326   1.808  14.946 -0.0845 -0.2240  0.3628
 6895TIP3    H142100   0.391   1.846  15.005 -0.5832  0.1254  0.6951
 6895TIP3    H242101   0.249   1.864  14.956 -0.0975 -0.0031 -0.8127
 6896TIP3   OH242102   0.898   1.939   2.516  0.3669  0.1382  0.0944
 6896TIP3    H142103   0.956   1.953   2.591 -0.5149  1.3479  0.5875
 6896TIP3    H242104   0.847   1.861   2.540 -0.7645  1.2023  1.3679
 6897TIP3   OH242105   3.418   1.951  15.070 -0.1324 -0.0424 -0.2662
 6897TIP3    H142106   3.369   1.989  15.144  0.5514 -0.4680  0.4100
 6897TIP3    H242107   3.499   2.002  15.066 -1.2112  1.7179 -2.3647
 6898TIP3   OH242108   4.927   5.097   3.471  0.7580  0.0534  0.3415
 6898TIP3    H142109   5.001   5.063   3.521  1.6388  0.3467 -0.7143
 6898TIP3    H242110   4.962   5.173   3.424 -0.4755  0.7901  0.5662
 6899TIP3   OH242111   6.418   6.619   3.638  0.3246  0.1703  0.1411
 6899TIP3    H142112   6.352   6.557   3.610  0.8653 -0.2903 -0.1374
 6899TIP3    H242113   6.372   6.678   3.698 -0.1461 -0.6185  0.5725
 6900TIP3   OH242114   1.823   4.769   1.077 -0.1484  0.2402  0.0560
 6900TIP3    H142115   1.877   4.822   1.135 -0.0791  0.8847 -0.5816
 6900TIP3    H242116   1.733   4.782   1.109  0.0705 -1.0821  1.3110
 6901TIP3   OH242117   5.076   3.766   1.116 -0.3658  0.5693  0.0170
 6901TIP3    H142118   5.100   3.732   1.202 -1.2415  0.9600  0.4234
 6901TIP3    H242119   5.150   3.823   1.092 -0.4587  1.0628  0.8556
 6902TIP3   OH242120   1.863   4.079   4.677 -0.1179 -0.0939  0.1089
 6902TIP3    H142121   1.893   4.168   4.661 -0.2868  0.6416  3.1161
 6902TIP3    H242122   1.767   4.085   4.676 -0.1323 -0.1134  0.7571
 6903TIP3   OH242123   0.133   4.201  11.310 -0.2726  0.0019 -0.4960
 6903TIP3    H142124   0.101   4.282  11.271  1.4942  0.8082 -0.3628
 6903TIP3    H242125   0.228   4.212  11.315 -0.2456 -0.7266  2.5139
 6904TIP3   OH242126   4.988   6.150   0.720  0.0419 -0.1832 -0.3671
 6904TIP3    H142127   4.969   6.234   0.761  0.6825  0.0689 -0.5774
 6904TIP3    H242128   5.029   6.098   0.790 -3.7697 -1.7407  0.9676
 6905TIP3   OH242129   1.507   5.276   1.326  0.2630  0.4590 -0.3710
 6905TIP3    H142130   1.593   5.264   1.366 -0.5818  0.9067  1.7199
 6905TIP3    H242131   1.458   5.197   1.348  0.2642 -0.0435 -2.0277
 6906TIP3   OH242132   4.220   5.064   5.701 -0.3108 -0.0131 -0.3734
 6906TIP3    H142133   4.310   5.094   5.689 -0.2867 -0.3921 -1.2158
 6906TIP3    H242134   4.183   5.124   5.766  1.0200 -0.8423  1.2159
 6907TIP3   OH242135   4.983   1.939   2.983 -0.0514  0.1791  0.7268
 6907TIP3    H142136   5.041   1.995   3.035  0.4071 -0.5337  0.9837
 6907TIP3    H242137   5.041   1.883   2.933 -0.5180 -0.2961  0.7112
 6908TIP3   OH242138   6.330   1.250   2.952  0.5819  0.2683  0.0141
 6908TIP3    H142139   6.311   1.249   2.858 -0.4691 -1.1010  0.2166
 6908TIP3    H242140   6.245   1.242   2.994  1.2465 -2.1680  1.0239
 6909TIP3   OH242141   2.755   4.876   1.650  0.6729  0.3629  0.2899
 6909TIP3    H142142   2.787   4.793   1.615  2.4561  0.2332  2.0388
 6909TIP3    H242143   2.835   4.926   1.667  0.1366 -0.0040  5.0636
 6910TIP3   OH242144   1.651   3.792  14.525  0.2852  0.2232  0.0799
 6910TIP3    H142145   1.607   3.743  14.594  0.6299  0.3114  0.3664
 6910TIP3    H242146   1.589   3.793  14.453  0.6361 -1.4705 -0.2991
 6911TIP3   OH242147   5.862   5.442  14.738  0.1180 -0.3286 -0.4522
 6911TIP3    H142148   5.838   5.369  14.794  1.0297  0.3304  0.8456
 6911TIP3    H242149   5.818   5.518  14.776 -2.0272 -0.3506 -2.6329
 6912TIP3   OH242150   3.902   4.576   3.923 -1.0746 -0.0176 -0.0004
 6912TIP3    H142151   3.962   4.650   3.914  0.3207 -1.2023 -1.0256
 6912TIP3    H242152   3.858   4.591   4.007 -0.7572  1.8844 -0.1269
 6913TIP3   OH242153   2.747   0.988  16.538  0.4451 -0.2631  0.0107
 6913TIP3    H142154   2.779   0.938  16.614  0.0077 -0.2379  0.2168
 6913TIP3    H242155   2.667   0.942  16.512  0.4401 -0.1004 -0.2605
 6914TIP3   OH242156   2.483   2.370   4.280  0.0451  0.2285  0.9858
 6914TIP3    H142157   2.548   2.408   4.221 -1.8646  1.4450 -0.4746
 6914TIP3    H242158   2.480   2.277   4.256 -2.0324  0.9706 -2.4250
 6915TIP3   OH242159   3.403   6.003  15.522  0.5887 -0.4904  0.2788
 6915TIP3    H142160   3.326   6.056  15.545 -0.4477 -1.7742 -0.0757
 6915TIP3    H242161   3.471   6.067  15.500 -0.6601  0.6910 -0.3173
 6916TIP3   OH242162   3.386   4.139  10.986 -0.3373 -0.0396 -0.2310
 6916TIP3    H142163   3.392   4.047  10.962  1.4007 -0.1353  0.4208
 6916TIP3    H242164   3.410   4.186  10.906 -0.1441 -0.1914 -0.2630
 6917TIP3   OH242165   6.120   0.322  13.763 -0.0283  0.1007  0.1581
 6917TIP3    H142166   6.035   0.297  13.727 -0.4957  1.4098  0.3129
 6917TIP3    H242167   6.119   0.418  13.765  1.6980  0.1729 -0.4361
 6918TIP3   OH242168   4.051   6.076  16.906 -0.2462 -0.9653  0.0472
 6918TIP3    H142169   4.004   6.158  16.893  1.4470  0.3125  1.5459
 6918TIP3    H242170   3.999   6.011  16.858 -2.4616  0.6713  0.0733
 6919TIP3   OH242171   3.793   3.507   1.535 -0.2808  0.4749  0.4652
 6919TIP3    H142172   3.729   3.454   1.583 -0.9552 -0.4551 -1.3815
 6919TIP3    H242173   3.780   3.596   1.568 -1.7018  0.1018  0.9741
 6920TIP3   OH242174   4.581   4.441   3.129  0.0754 -0.1811  0.1212
 6920TIP3    H142175   4.569   4.368   3.189  2.2483 -2.3068 -1.8103
 6920TIP3    H242176   4.587   4.400   3.043 -0.7632  2.5257 -1.3500
 6921TIP3   OH242177   6.127   3.848   0.827  0.5413  0.1247 -0.0023
 6921TIP3    H142178   6.135   3.827   0.920 -1.6335  0.0753  0.2245
 6921TIP3    H242179   6.108   3.941   0.825  0.3313  0.0738 -0.3939
 6922TIP3   OH242180   5.746   4.908  13.142  0.4251  0.0660 -0.4378
 6922TIP3    H142181   5.722   4.999  13.158 -0.5793  0.0276 -1.5792
 6922TIP3    H242182   5.831   4.912  13.100 -0.2714  0.6044 -1.8635
 6923TIP3   OH242183   3.916   6.600  14.919 -0.1363 -0.2436  0.4856
 6923TIP3    H142184   3.964   6.567  14.843  0.9411  0.5076  0.8118
 6923TIP3    H242185   3.849   6.657  14.882  1.2160  1.1705  0.1205
 6924TIP3   OH242186   2.409   0.489   2.737  0.3863  0.1539 -0.1735
 6924TIP3    H142187   2.442   0.477   2.827 -0.0903 -0.1399 -0.0381
 6924TIP3    H242188   2.428   0.406   2.694 -2.1557 -0.8938  0.5308
 6925TIP3   OH242189   0.153   0.684  15.222  0.2279  0.1713  0.0081
 6925TIP3    H142190   0.166   0.591  15.203 -1.7772  0.1951 -1.7955
 6925TIP3    H242191   0.231   0.727  15.185  0.1906 -0.6131 -1.0107
 6926TIP3   OH242192   2.535   5.224  14.284  0.0062 -0.1524 -0.0522
 6926TIP3    H142193   2.547   5.194  14.374  3.7964  0.8789 -0.0423
 6926TIP3    H242194   2.508   5.316  14.292 -2.0289 -0.7230 -0.0356
 6927TIP3   OH242195   2.184   0.274  11.925  0.6257  0.1773  0.6543
 6927TIP3    H142196   2.239   0.218  11.869  1.9749  2.0442 -0.0031
 6927TIP3    H242197   2.113   0.217  11.954  0.1752 -1.0620 -2.5048
 6928TIP3   OH242198   5.525   3.602  12.126 -0.0727  0.5471  0.0793
 6928TIP3    H142199   5.560   3.537  12.187 -1.6670 -0.0706  0.3848
 6928TIP3    H242200   5.518   3.682  12.178 -0.4699  0.2874  0.4336
 6929TIP3   OH242201   1.942   1.920   3.594  0.3360 -0.6743 -0.2045
 6929TIP3    H142202   1.895   1.992   3.637  0.4444 -1.2855  0.9629
 6929TIP3    H242203   1.987   1.962   3.520  1.3298  0.6934  1.1077
 6930TIP3   OH242204   6.465   1.309   4.859  0.4805  0.2650 -0.7564
 6930TIP3    H142205   6.471   1.403   4.842  0.3778  0.2084 -1.1283
 6930TIP3    H242206   6.512   1.295   4.941 -0.0236  0.7328 -0.3796
 6931TIP3   OH242207   4.769   4.967   0.694  0.3648  0.4744  0.4065
 6931TIP3    H142208   4.821   4.999   0.620 -1.7098  1.5638 -0.6626
 6931TIP3    H242209   4.746   5.045   0.744 -2.0434  0.3750 -0.4051
 6932TIP3   OH242210   1.917   0.046  15.314 -0.2279  0.2993 -0.4519
 6932TIP3    H142211   1.860  -0.030  15.298 -0.1752  0.0394  0.5108
 6932TIP3    H242212   1.862   0.121  15.294 -0.2476  0.0203 -1.5323
 6933TIP3   OH242213   1.844   5.693  13.734  0.3735  0.1435  0.0959
 6933TIP3    H142214   1.841   5.617  13.793  0.2030  1.5632  1.9950
 6933TIP3    H242215   1.769   5.746  13.760  2.2193  2.4720  0.9957
 6934TIP3   OH242216   2.097   2.065   1.427  0.1501  0.0408  0.7812
 6934TIP3    H142217   2.034   2.127   1.390  1.2733  1.1794  0.7123
 6934TIP3    H242218   2.096   1.991   1.366 -0.0395  0.6874 -0.0137
 6935TIP3   OH242219   3.859   0.603  17.028  0.3159  0.1116  0.2882
 6935TIP3    H142220   3.850   0.625  17.121 -1.6136  1.3404 -0.1347
 6935TIP3    H242221   3.888   0.684  16.987  1.0723 -0.4001 -0.2038
 6936TIP3   OH242222   1.688   5.847  15.940 -0.4222  0.5024 -0.3463
 6936TIP3    H142223   1.601   5.886  15.951 -0.0328  1.1865  0.3952
 6936TIP3    H242224   1.746   5.922  15.927  0.4869  0.2950  2.0260
 6937TIP3   OH242225   0.470   0.374  14.257 -0.3925 -0.8425 -0.1873
 6937TIP3    H142226   0.542   0.404  14.312 -2.1481 -0.7903  2.2525
 6937TIP3    H242227   0.479   0.279  14.256 -0.4133 -0.8507  0.3004
 6938TIP3   OH242228   0.033   5.862  15.325  0.7131  0.1939 -0.2376
 6938TIP3    H142229   0.009   5.886  15.236 -0.4041 -0.9069 -0.2665
 6938TIP3    H242230  -0.002   5.933  15.379 -0.2345 -0.0299 -0.5325
 6939TIP3   OH242231   2.229   3.405   5.661 -0.1902  0.3679  0.0968
 6939TIP3    H142232   2.250   3.322   5.703 -1.0246  0.4070  0.6072
 6939TIP3    H242233   2.191   3.381   5.576 -3.3356  0.0495  1.4646
 6940TIP3   OH242234   3.804   0.407  11.975  0.4367 -0.3538  0.2691
 6940TIP3    H142235   3.841   0.322  11.951 -1.1862 -0.7074 -1.1828
 6940TIP3    H242236   3.724   0.413  11.924 -0.6791  1.0699  2.0819
 6941TIP3   OH242237   1.323   4.305  14.276  0.5533 -0.1138  0.0374
 6941TIP3    H142238   1.395   4.357  14.241 -0.4739  2.5618  1.6213
 6941TIP3    H242239   1.244   4.351  14.248 -0.4626 -1.5283  0.4939
 6942TIP3   OH242240   4.384   4.308   6.211  0.4339  0.3576  0.1808
 6942TIP3    H142241   4.414   4.373   6.274  4.1704  0.1739 -1.1837
 6942TIP3    H242242   4.437   4.323   6.133 -3.3306 -0.0249 -2.7238
 6943TIP3   OH242243   3.750   0.702  13.296  0.1539  0.2867 -0.0156
 6943TIP3    H142244   3.829   0.740  13.334 -1.0369  1.6569  1.2245
 6943TIP3    H242245   3.683   0.769  13.309 -1.3251 -1.0326 -0.5722
 6944TIP3   OH242246   0.930   6.660  13.703  0.3139  0.4420  0.0914
 6944TIP3    H142247   0.864   6.631  13.639  0.8507 -1.2464  0.2403
 6944TIP3    H242248   0.881   6.710  13.768 -0.9000 -1.0529  0.3789
 6945TIP3   OH242249   0.952   3.599  16.426 -0.3742  0.3312  0.7265
 6945TIP3    H142250   0.887   3.664  16.401  1.3883  2.0953  0.4864
 6945TIP3    H242251   1.009   3.644  16.488  2.0671 -0.2805 -0.9051
 6946TIP3   OH242252   4.665   1.009   6.794  0.5311  0.5959  0.2763
 6946TIP3    H142253   4.702   1.071   6.857  1.2998  1.1646 -0.7052
 6946TIP3    H242254   4.733   0.944   6.781 -0.3014 -0.5344  1.3542
 6947TIP3   OH242255   2.407   6.152  16.086 -0.0397  0.0213 -0.1251
 6947TIP3    H142256   2.362   6.194  16.013  0.5503 -2.2220 -1.8731
 6947TIP3    H242257   2.356   6.074  16.105  0.4584 -0.0337  1.1135
 6948TIP3   OH242258   0.674   2.245  13.499 -0.9218 -0.2768 -0.2622
 6948TIP3    H142259   0.695   2.310  13.432 -1.0144 -0.2939 -0.3088
 6948TIP3    H242260   0.580   2.231  13.489 -0.8443 -0.6547 -0.4623
 6949TIP3   OH242261   4.607   0.538  16.016 -0.0718 -0.6416 -0.1354
 6949TIP3    H142262   4.598   0.454  16.061  1.3741 -0.8376 -0.1449
 6949TIP3    H242263   4.584   0.519  15.925  1.1736 -1.2988 -0.3462
 6950TIP3   OH242264   0.113   4.092   4.818 -0.1192  0.2586  0.2812
 6950TIP3    H142265   0.118   4.188   4.819 -1.6564  0.3761 -0.1563
 6950TIP3    H242266   0.069   4.071   4.736 -1.3674 -0.7025  1.1505
 6951TIP3   OH242267   1.928   3.671   0.576  0.5610 -0.0090 -0.2905
 6951TIP3    H142268   1.988   3.609   0.535  0.1275 -0.6551  0.0363
 6951TIP3    H242269   1.904   3.629   0.659  0.4677  0.7151  0.0561
 6952TIP3   OH242270   6.659   3.333  14.066  0.0627  0.4929  0.0898
 6952TIP3    H142271   6.667   3.416  14.020 -2.4601  1.3969  1.1036
 6952TIP3    H242272   6.630   3.271  13.999 -0.4566  1.0466 -0.2087
 6953TIP3   OH242273   6.408   1.848  13.441  0.8823  0.0162 -0.5393
 6953TIP3    H142274   6.433   1.758  13.465 -0.7452 -0.4235 -0.4129
 6953TIP3    H242275   6.326   1.864  13.486  1.1633  1.6175 -0.5263
 6954TIP3   OH242276   2.621   5.322   0.417 -0.1308 -0.5027  0.0715
 6954TIP3    H142277   2.626   5.359   0.330 -0.2682 -0.7536 -0.0460
 6954TIP3    H242278   2.550   5.370   0.460 -1.5740 -1.8630 -0.7000
 6955TIP3   OH242279   2.589   4.193   4.875 -0.1889 -0.0944  0.1445
 6955TIP3    H142280   2.602   4.151   4.790 -0.8139 -1.3848  0.6644
 6955TIP3    H242281   2.496   4.216   4.877 -0.0847  0.3175  0.3051
 6956TIP3   OH242282   4.358   0.984   0.907 -0.5281 -0.5795 -0.1346
 6956TIP3    H142283   4.323   0.935   0.832 -1.9462  1.5528 -0.9582
 6956TIP3    H242284   4.280   1.010   0.956 -0.1348  2.7586 -1.0164
 6957TIP3   OH242285   1.550   5.397   2.903  0.3675  0.5626 -0.3054
 6957TIP3    H142286   1.553   5.342   2.824  0.3009  0.9001 -0.5462
 6957TIP3    H242287   1.508   5.478   2.874 -0.4166  0.3706  0.2757
 6958TIP3   OH242288   1.168   0.853   4.120 -0.3390  0.4128 -0.4440
 6958TIP3    H142289   1.074   0.850   4.141 -0.4898  2.4076 -0.5995
 6958TIP3    H242290   1.171   0.889   4.031  0.5636 -0.8186 -0.9451
 6959TIP3   OH242291   3.032   5.301   0.758  0.3058  0.2185 -0.6305
 6959TIP3    H142292   2.977   5.346   0.694  1.0119  1.3324 -0.4686
 6959TIP3    H242293   2.993   5.322   0.842  1.7224  2.1635 -0.4005
 6960TIP3   OH242294   2.485   4.045  11.462  0.7634  0.3344  0.2989
 6960TIP3    H142295   2.453   4.101  11.392 -0.4391  0.5349  0.9760
 6960TIP3    H242296   2.579   4.035  11.445  0.9005  2.1051 -0.1431
 6961TIP3   OH242297   4.551   0.956   3.244 -0.0738 -0.1595  0.3622
 6961TIP3    H142298   4.601   0.958   3.325 -1.2938 -0.8565  1.1524
 6961TIP3    H242299   4.503   0.874   3.247 -0.4786  0.0062 -0.8727
 6962TIP3   OH242300   2.559   0.648  16.111  0.4162 -0.1329  0.1358
 6962TIP3    H142301   2.520   0.573  16.156  0.8758 -0.6045 -0.2479
 6962TIP3    H242302   2.492   0.716  16.118 -0.4291 -0.8846 -0.3906
 6963TIP3   OH242303   6.398   3.228  16.287 -0.2387 -0.0012 -0.7377
 6963TIP3    H142304   6.339   3.267  16.223  0.1988 -0.0331 -1.1691
 6963TIP3    H242305   6.360   3.143  16.307 -0.4772  0.0891 -0.8091
 6964TIP3   OH242306   4.311   0.440  15.093  0.2620 -0.6289  0.4672
 6964TIP3    H142307   4.387   0.387  15.069  0.6580 -0.4042  1.2106
 6964TIP3    H242308   4.273   0.395  15.168 -0.9543 -1.3135 -0.5107
 6965TIP3   OH242309   2.518   6.603   4.649 -0.1998  0.0550  0.0687
 6965TIP3    H142310   2.573   6.567   4.579 -3.0935 -1.7068 -1.5218
 6965TIP3    H242311   2.499   6.528   4.705 -0.9590  0.6043  0.5563
 6966TIP3   OH242312   2.082   1.498   3.406  0.2388 -0.3983 -0.7269
 6966TIP3    H142313   2.174   1.479   3.389  0.4733 -0.3988  0.4918
 6966TIP3    H242314   2.058   1.561   3.338  1.1680 -0.2884 -0.9701
 6967TIP3   OH242315   4.772   4.458  16.672  0.8307  0.5440 -0.0991
 6967TIP3    H142316   4.708   4.481  16.606  1.2019 -0.1047 -0.6964
 6967TIP3    H242317   4.830   4.395  16.629  1.2067  0.2757  0.7685
 6968TIP3   OH242318   0.184   3.920   6.362  0.1478 -0.1005  0.8461
 6968TIP3    H142319   0.183   4.009   6.398 -1.4499  0.3754 -0.2710
 6968TIP3    H242320   0.170   3.863   6.437  1.4715  0.5543  1.6196
 6969TIP3   OH242321   5.539   5.168   3.532 -0.5927 -0.6066 -0.0729
 6969TIP3    H142322   5.607   5.234   3.541 -1.7656  0.6862 -0.4317
 6969TIP3    H242323   5.491   5.172   3.614 -0.8396 -0.8281 -0.2056
 6970TIP3   OH242324   3.891   1.802   1.734  0.3639 -0.1755  0.8037
 6970TIP3    H142325   3.809   1.775   1.775  0.7702  0.2402  1.9296
 6970TIP3    H242326   3.865   1.865   1.667 -0.2372 -0.1389  1.0647
 6971TIP3   OH242327   1.000   1.495   1.423  0.2486 -0.1742  0.0547
 6971TIP3    H142328   1.096   1.496   1.413  0.4934 -2.1864  1.5860
 6971TIP3    H242329   0.980   1.406   1.453 -1.8094  0.9316  2.2944
 6972TIP3   OH242330   5.143   0.810   5.604 -0.2847  0.9258 -0.2981
 6972TIP3    H142331   5.107   0.723   5.619  0.3383  0.5482 -0.9756
 6972TIP3    H242332   5.190   0.803   5.521 -0.3152  1.9325 -0.4154
 6973TIP3   OH242333   3.963   6.629  17.369 -0.6970  0.0342 -0.3445
 6973TIP3    H142334   3.999   6.665  17.287 -1.5277 -0.4355 -0.9284
 6973TIP3    H242335   3.967   6.702  17.431  0.4348  0.2436 -0.6437
 6974TIP3   OH242336   3.081   3.259  15.111  0.3221  0.2101  0.8867
 6974TIP3    H142337   3.115   3.348  15.099  0.2276  0.2398  0.8377
 6974TIP3    H242338   3.002   3.256  15.057  2.0834 -0.9496 -1.8311
 6975TIP3   OH242339   1.878   6.031   3.796 -0.0483 -0.0864  0.2680
 6975TIP3    H142340   1.863   6.111   3.847 -1.4279  0.0510 -0.2886
 6975TIP3    H242341   1.899   6.063   3.708 -3.2327 -0.2408 -0.6711
 6976TIP3   OH242342   5.878   6.197   2.311  0.6477  0.1409  0.4082
 6976TIP3    H142343   5.912   6.140   2.242 -0.2401  2.2706 -1.9862
 6976TIP3    H242344   5.941   6.190   2.382  1.5715 -2.2591 -0.5490
 6977TIP3   OH242345   5.431   2.615  10.971  0.4800 -0.2884 -0.2880
 6977TIP3    H142346   5.505   2.635  10.914  0.1368 -1.5661 -1.2148
 6977TIP3    H242347   5.355   2.613  10.913  0.0382 -1.0490  0.2899
 6978TIP3   OH242348   6.677   5.920   0.454 -0.2482 -0.3725  0.3768
 6978TIP3    H142349   6.765   5.919   0.416  0.3879  2.0061  1.6280
 6978TIP3    H242350   6.619   5.937   0.379  0.7140  1.4024 -0.0219
 6979TIP3   OH242351   3.826   1.815   2.383  0.1028  0.4649  0.2965
 6979TIP3    H142352   3.916   1.789   2.362 -0.4611  0.7633 -3.0990
 6979TIP3    H242353   3.786   1.833   2.298 -2.5888  2.3807  1.8131
 6980TIP3   OH242354   0.264   0.101   2.875  0.0768  0.0880 -0.1493
 6980TIP3    H142355   0.306   0.126   2.793  1.6842  1.0089  0.9134
 6980TIP3    H242356   0.287   0.170   2.936 -1.3612 -0.4143  1.0307
 6981TIP3   OH242357   6.619   3.929   1.545  0.3507 -0.4807 -0.0549
 6981TIP3    H142358   6.670   4.008   1.564  0.0663  0.1155 -1.6032
 6981TIP3    H242359   6.597   3.894   1.631  2.5478 -0.2514  0.6545
 6982TIP3   OH242360   6.508   4.899   0.165  0.0964  0.0627  0.3431
 6982TIP3    H142361   6.503   4.803   0.156 -0.1007  0.1142 -0.1211
 6982TIP3    H242362   6.589   4.923   0.120  0.0819  0.1293  0.3522
 6983TIP3   OH242363   4.128   5.839   2.868  0.1230 -0.4941 -0.4665
 6983TIP3    H142364   4.170   5.759   2.897 -0.8198 -0.1143  2.1788
 6983TIP3    H242365   4.123   5.894   2.946  0.2738  1.9585 -2.0759
 6984TIP3   OH242366   1.194   5.285  12.016  0.0436 -0.2402 -0.2103
 6984TIP3    H142367   1.268   5.329  11.973 -1.0515  0.4078 -1.4874
 6984TIP3    H242368   1.185   5.202  11.968  0.8999 -1.0622  0.9716
 6985TIP3   OH242369   0.252   1.529  14.502  0.2602  0.0199 -0.1642
 6985TIP3    H142370   0.161   1.541  14.476  0.5580  0.5285 -1.0126
 6985TIP3    H242371   0.252   1.541  14.597 -0.3921  1.0463 -0.2882
 6986TIP3   OH242372   0.512   5.106   6.054 -0.3347  0.6610 -0.0565
 6986TIP3    H142373   0.459   5.099   5.975 -1.2743  2.0421  0.4043
 6986TIP3    H242374   0.488   5.030   6.107 -0.1062  0.0298 -0.8527
 6987TIP3   OH242375   0.467   0.440  13.854 -0.5084  0.3561  0.1455
 6987TIP3    H142376   0.398   0.432  13.789 -0.6222  0.2515  0.2771
 6987TIP3    H242377   0.513   0.520  13.831  1.3810 -1.1748 -1.8916
 6988TIP3   OH242378   5.614   5.719   2.156 -0.0613  0.7052 -0.4263
 6988TIP3    H142379   5.615   5.768   2.074 -1.5582 -0.5974 -1.2713
 6988TIP3    H242380   5.523   5.696   2.170  0.3021  0.0017  1.0804
 6989TIP3   OH242381   4.284   6.604   1.410 -0.0142 -0.3366  0.3883
 6989TIP3    H142382   4.205   6.658   1.412 -0.2910 -0.6385 -1.0731
 6989TIP3    H242383   4.270   6.538   1.479 -0.2797  0.6011  1.2542
 6990TIP3   OH242384   0.043   5.333   6.320  0.1747  0.0358  0.3883
 6990TIP3    H142385  -0.012   5.273   6.371  0.1953 -0.6521 -0.3728
 6990TIP3    H242386   0.066   5.283   6.242  0.0760  1.0930 -0.3391
 6991TIP3   OH242387   1.197   2.725  17.006 -0.3263  0.1129 -0.0519
 6991TIP3    H142388   1.113   2.767  17.025 -0.2061  1.4027 -1.9968
 6991TIP3    H242389   1.262   2.791  17.030  0.1146 -0.6565  0.8970
 6992TIP3   OH242390   4.966   0.493  13.711  0.1529  0.1866  0.1407
 6992TIP3    H142391   4.912   0.527  13.639 -0.4552 -0.0847  0.4635
 6992TIP3    H242392   5.022   0.567  13.736 -0.9931  0.8979  0.6727
 6993TIP3   OH242393   4.841   4.883   1.481  0.7588 -0.3027 -0.3891
 6993TIP3    H142394   4.758   4.856   1.522  1.0880  0.4317  0.8348
 6993TIP3    H242395   4.869   4.958   1.533  1.9593 -0.2449 -1.0917
 6994TIP3   OH242396   4.717   2.277   0.744 -0.5444  0.5422  0.6785
 6994TIP3    H142397   4.637   2.227   0.761  0.5236 -0.6814  2.4878
 6994TIP3    H242398   4.688   2.353   0.692 -2.4294 -1.2351 -1.0422
 6995TIP3   OH242399   5.381   5.226  14.534  0.2955 -0.3214  0.0119
 6995TIP3    H142400   5.403   5.149  14.481 -1.3589 -1.9703  1.5655
 6995TIP3    H242401   5.464   5.269  14.549  1.0576 -0.7318 -2.4366
 6996TIP3   OH242402   1.731   3.472   5.844  0.7447  0.2619  0.3252
 6996TIP3    H142403   1.760   3.563   5.833 -2.2841  1.1716 -1.1395
 6996TIP3    H242404   1.693   3.469   5.931 -1.2995  1.1687 -0.4629
 6997TIP3   OH242405   5.552   2.260  12.524 -0.0671 -0.3884  0.4270
 6997TIP3    H142406   5.484   2.193  12.526  0.3973 -0.9357 -1.0430
 6997TIP3    H242407   5.634   2.211  12.532  0.2574  0.0297 -0.2841
 6998TIP3   OH242408   2.263   5.172  16.464  0.7767  0.2174  0.3441
 6998TIP3    H142409   2.257   5.087  16.419 -0.6186  1.3809 -1.8260
 6998TIP3    H242410   2.222   5.157  16.549  0.8684 -1.3640  0.1427
 6999TIP3   OH242411   1.625   2.200   5.572 -0.3283 -0.2849  0.3304
 6999TIP3    H142412   1.702   2.187   5.628  0.6881  1.5673 -0.5724
 6999TIP3    H242413   1.557   2.231   5.633  0.3373  0.3254  0.7825
 7000TIP3   OH242414   2.656   5.898   1.452  0.5573 -0.0316 -0.5592
 7000TIP3    H142415   2.642   5.876   1.544  4.0035 -0.0560  0.0777
 7000TIP3    H242416   2.572   5.936   1.423 -0.2643  1.0817  2.8859
 7001TIP3   OH242417   2.570   1.251   2.068 -0.3774 -0.1135 -0.6828
 7001TIP3    H142418   2.536   1.199   1.995 -0.9069 -0.0124 -0.5121
 7001TIP3    H242419   2.589   1.337   2.029 -0.9156  0.0238 -0.6450
 7002TIP3   OH242420   2.793   0.724   3.943 -0.2990 -0.3065  0.0261
 7002TIP3    H142421   2.757   0.703   4.030 -0.7237 -0.1898 -0.1212
 7002TIP3    H242422   2.884   0.696   3.948  0.1566  1.2409  1.0718
 7003TIP3   OH242423   0.546   1.413   2.191  0.4768 -0.4159  0.3665
 7003TIP3    H142424   0.604   1.402   2.266 -0.6891 -0.7551  1.2407
 7003TIP3    H242425   0.487   1.484   2.216  1.0202  0.4998 -0.8508
 7004TIP3   OH242426   5.814   2.806   1.689  0.2496  0.2823 -0.0784
 7004TIP3    H142427   5.811   2.718   1.649  1.5567 -0.6038  1.6561
 7004TIP3    H242428   5.826   2.865   1.615 -0.2402 -1.0372 -1.2627
 7005TIP3   OH242429   2.297   2.604  14.186  0.3567  0.7260 -0.1546
 7005TIP3    H142430   2.295   2.677  14.249 -0.2074  0.8682 -0.3345
 7005TIP3    H242431   2.382   2.562  14.201  1.5494  2.5749 -1.3677
 7006TIP3   OH242432   5.083   0.992   6.061 -0.7715  0.0865 -0.7074
 7006TIP3    H142433   5.057   1.044   6.137 -0.1426  0.5772 -0.8154
 7006TIP3    H242434   5.059   1.046   5.986 -0.1450  0.2127 -0.8211
 7007TIP3   OH242435   3.141   6.241   1.451  0.0877 -0.4881 -0.1261
 7007TIP3    H142436   3.196   6.307   1.409 -0.2439  0.4680  0.8848
 7007TIP3    H242437   3.064   6.235   1.395  0.0571  0.0869 -0.1526
 7008TIP3   OH242438   1.043   2.954  14.411  0.1750  0.9783  0.2680
 7008TIP3    H142439   1.040   2.922  14.501 -1.2406  0.9809  0.2476
 7008TIP3    H242440   1.014   2.879  14.358  2.6760  0.3934 -0.4029
 7009TIP3   OH242441   5.480   1.164  11.163  0.4247  0.0468 -0.4414
 7009TIP3    H142442   5.466   1.209  11.079  0.0711 -2.3484 -1.7322
 7009TIP3    H242443   5.392   1.145  11.195  0.5731  0.4537  0.2263
 7010TIP3   OH242444   4.377   3.720   4.500 -0.2711  0.6356 -0.3786
 7010TIP3    H142445   4.407   3.791   4.442  0.3397 -0.4625 -1.4562
 7010TIP3    H242446   4.282   3.732   4.505 -0.2606  1.1242 -1.1093
 7011TIP3   OH242447   3.284   2.830   5.145  0.3274 -0.2876  0.2055
 7011TIP3    H142448   3.238   2.812   5.227  0.3532  1.3017  0.6089
 7011TIP3    H242449   3.362   2.775   5.148  0.0150 -0.6958  0.9653
 7012TIP3   OH242450   6.531   0.990  11.773  0.1381 -0.0162 -0.3605
 7012TIP3    H142451   6.440   0.994  11.741 -0.1332 -1.8795  0.0689
 7012TIP3    H242452   6.562   0.903  11.747  0.7694 -0.6051  2.1252
 7013TIP3   OH242453   6.504   1.826   4.859  0.0360  0.2255  0.4441
 7013TIP3    H142454   6.498   1.856   4.949 -1.0291 -0.2870  0.5573
 7013TIP3    H242455   6.428   1.865   4.815  1.1756  1.4431 -0.5476
 7014TIP3   OH242456   0.152   0.502  12.716 -0.0979 -0.3265 -0.3763
 7014TIP3    H142457   0.081   0.466  12.769 -0.0207  0.0358 -0.0232
 7014TIP3    H242458   0.229   0.499  12.773 -0.0412  0.1811 -0.4150
 7015TIP3   OH242459   1.591   0.432   0.846  0.0521  0.2322 -0.1509
 7015TIP3    H142460   1.546   0.459   0.926  0.4820  0.6313 -0.0434
 7015TIP3    H242461   1.606   0.338   0.858 -0.4944  0.1474 -0.0685
 7016TIP3   OH242462   6.392   5.106  14.832  0.1681  0.3177 -0.4538
 7016TIP3    H142463   6.406   5.199  14.848  0.5394  0.7550 -2.8388
 7016TIP3    H242464   6.297   5.096  14.827  0.1274  0.5570 -0.1455
 7017TIP3   OH242465   5.823   3.441  13.968 -0.7107  0.6728 -0.0408
 7017TIP3    H142466   5.755   3.497  14.006  0.0060  2.8601 -1.7480
 7017TIP3    H242467   5.905   3.477  14.003 -0.2264  0.8675 -1.3042
 7018TIP3   OH242468   1.390   0.407   2.955 -0.2524 -0.4225  0.5291
 7018TIP3    H142469   1.448   0.350   2.905 -1.1331 -0.9428  0.0635
 7018TIP3    H242470   1.446   0.448   3.021  0.6217 -0.9276  0.1099
 7019TIP3   OH242471   6.145   0.018  14.329 -0.5637  0.1777 -0.2144
 7019TIP3    H142472   6.156  -0.049  14.396 -0.2241 -0.5116 -0.9445
 7019TIP3    H242473   6.050   0.034  14.327 -0.4179  1.8603  1.9721
 7020TIP3   OH242474   6.182   6.182   2.129  0.3804  0.9838 -0.0839
 7020TIP3    H142475   6.179   6.117   2.059  1.3356  0.2020  0.5818
 7020TIP3    H242476   6.229   6.139   2.200  0.2576  2.0973  0.6957
 7021TIP3   OH242477   1.532   1.582   2.377  0.0527  0.2026  0.2355
 7021TIP3    H142478   1.506   1.636   2.452  1.4173  1.3563 -0.0781
 7021TIP3    H242479   1.454   1.529   2.358 -1.7261  2.6748  0.0299
 7022TIP3   OH242480   3.926   3.774  12.897 -0.3535  0.6327 -0.1496
 7022TIP3    H142481   3.969   3.827  12.964 -0.2880  0.0557  0.2676
 7022TIP3    H242482   3.998   3.737  12.846 -0.2984 -0.8184  0.9181
 7023TIP3   OH242483   6.403   6.034   4.111 -0.0092 -0.5174 -0.0886
 7023TIP3    H142484   6.476   5.983   4.075  1.0773  0.1289  1.1308
 7023TIP3    H242485   6.353   5.971   4.163  0.8352 -0.5267  0.7155
 7024TIP3   OH242486   3.617   3.316   0.121  0.3842 -0.6006 -0.0656
 7024TIP3    H142487   3.560   3.290   0.194 -0.2861 -5.3271 -1.8948
 7024TIP3    H242488   3.706   3.309   0.156  0.0362 -0.3308  0.9127
 7025TIP3   OH242489   6.241   2.775   6.290 -0.1095  0.3803  0.1768
 7025TIP3    H142490   6.251   2.680   6.298  0.0251  0.4630  1.2022
 7025TIP3    H242491   6.323   2.811   6.325  0.0108  0.8674 -0.5894
 7026TIP3   OH242492   0.964   5.474   2.181 -0.2211  0.8213  0.5991
 7026TIP3    H142493   1.056   5.486   2.159 -0.6456  2.0212 -0.6144
 7026TIP3    H242494   0.926   5.562   2.178 -1.8231  0.1434 -0.9224
 7027TIP3   OH242495   3.826   0.222   3.929 -0.3007  0.4419 -0.2942
 7027TIP3    H142496   3.907   0.259   3.894 -0.9605  1.3603 -0.8853
 7027TIP3    H242497   3.836   0.229   4.024 -0.3400  2.0443 -0.3782
 7028TIP3   OH242498   5.803   5.350  15.142  0.1047  0.0488 -0.1218
 7028TIP3    H142499   5.768   5.334  15.055 -0.8476 -2.4439  0.6595
 7028TIP3    H242500   5.746   5.418  15.178 -0.7623 -0.3524 -0.6993
 7029TIP3   OH242501   2.294   0.762  16.164  0.3017  0.4471 -0.1789
 7029TIP3    H142502   2.289   0.691  16.101  1.8926  0.4199 -0.3214
 7029TIP3    H242503   2.265   0.723  16.246  1.1077 -0.3777 -0.2650
 7030TIP3   OH242504   4.585   4.829   1.530  0.7740  0.5546  0.5003
 7030TIP3    H142505   4.578   4.748   1.582  0.8247  1.2587  1.6485
 7030TIP3    H242506   4.565   4.801   1.441  1.5682 -0.8699  0.7294
 7031TIP3   OH242507   2.772   5.214  16.343  0.2329 -0.1758 -0.2336
 7031TIP3    H142508   2.722   5.195  16.422  0.2980 -0.3593 -0.2353
 7031TIP3    H242509   2.707   5.245  16.280  0.3425  1.1139  0.2609
 7032TIP3   OH242510   5.215   1.468  15.518  0.0819 -0.6495  0.1536
 7032TIP3    H142511   5.194   1.418  15.597 -1.5379  1.3790  1.1217
 7032TIP3    H242512   5.132   1.481  15.474  0.4678  0.8845 -0.2021
 7033TIP3   OH242513   0.217   2.360  13.347 -0.4914 -0.3774 -0.3879
 7033TIP3    H142514   0.133   2.315  13.359 -0.9026  0.1013 -1.3682
 7033TIP3    H242515   0.220   2.382  13.254  1.2136 -1.3208 -0.5845
 7034TIP3   OH242516   1.086   4.819  17.064  0.4603  0.1149 -0.1419
 7034TIP3    H142517   1.119   4.745  17.013 -0.3046 -0.9171  0.8146
 7034TIP3    H242518   1.026   4.864  17.006  0.2178 -0.5704 -0.4296
 7035TIP3   OH242519   0.411   0.092   2.608  0.2723 -0.0671 -0.8908
 7035TIP3    H142520   0.369   0.170   2.570 -1.1399 -0.3881 -0.0419
 7035TIP3    H242521   0.355   0.019   2.580  0.0489 -0.4689  0.5510
 7036TIP3   OH242522   1.977   0.497  14.048  0.1610 -0.8081 -0.2858
 7036TIP3    H142523   2.021   0.489  14.133  0.7204 -0.2420 -0.5230
 7036TIP3    H242524   2.022   0.434  13.992 -0.4632 -1.4656 -0.0696
 7037TIP3   OH242525   3.154   2.744   1.602  0.3461  0.0058  0.2236
 7037TIP3    H142526   3.095   2.745   1.527  1.1657  0.5741 -0.4346
 7037TIP3    H242527   3.213   2.818   1.587  0.8238 -0.1669  1.1842
 7038TIP3   OH242528   5.467   4.055  11.726 -0.0195 -0.1185  0.3080
 7038TIP3    H142529   5.476   4.142  11.687 -1.9646  0.5102  1.1633
 7038TIP3    H242530   5.486   3.994  11.655 -2.2864  0.9968 -1.3453
 7039TIP3   OH242531   2.515   0.555   5.007 -0.1287 -0.1572  0.1022
 7039TIP3    H142532   2.520   0.635   4.954  1.9599 -0.2109  0.1529
 7039TIP3    H242533   2.575   0.494   4.964 -0.9951 -1.3965  0.6040
 7040TIP3   OH242534   1.412   5.802  16.293 -0.5613  1.2641 -0.0894
 7040TIP3    H142535   1.400   5.727  16.234  0.1446  0.6081  0.5816
 7040TIP3    H242536   1.491   5.781  16.343 -0.8158  2.0817  0.6766
 7041TIP3   OH242537   4.988   3.949  16.979 -0.1676  0.1204  0.2296
 7041TIP3    H142538   4.973   4.024  16.922 -0.4250 -0.0863  0.0262
 7041TIP3    H242539   4.910   3.943  17.034 -0.6883 -0.7140 -0.5638
 7042TIP3   OH242540   6.338   4.998   5.860  0.1180  0.3001 -0.4136
 7042TIP3    H142541   6.370   4.907   5.852 -0.7164 -0.2226  1.5701
 7042TIP3    H242542   6.395   5.048   5.802  1.0040 -1.4030 -1.0942
 7043TIP3   OH242543   2.546   6.493  14.575 -0.4356 -0.5686  0.0145
 7043TIP3    H142544   2.583   6.558  14.514  1.3772 -0.4868  1.1251
 7043TIP3    H242545   2.603   6.417  14.564 -1.2588 -1.2258  0.2598
 7044TIP3   OH242546   3.100   2.463   5.886 -0.6762 -0.4563 -0.4649
 7044TIP3    H142547   3.177   2.448   5.831  0.2268  0.4784  0.4803
 7044TIP3    H242548   3.099   2.558   5.900 -1.2009 -0.6091  0.6551
 7045TIP3   OH242549   2.255   2.998   4.843 -0.0215 -0.5787 -0.5340
 7045TIP3    H142550   2.241   2.990   4.937 -0.9057  0.2475 -0.5806
 7045TIP3    H242551   2.341   2.957   4.828  0.1265 -0.7253  0.6180
 7046TIP3   OH242552   3.154   5.379   1.425  0.0710  0.2062  0.7628
 7046TIP3    H142553   3.091   5.330   1.373 -0.8505 -0.1292  2.1597
 7046TIP3    H242554   3.181   5.451   1.368 -0.2655 -0.6288 -0.4777
 7047TIP3   OH242555   5.735   6.399   4.484  0.0510  0.1964 -0.0610
 7047TIP3    H142556   5.790   6.324   4.506  2.3545  1.7005 -0.3324
 7047TIP3    H242557   5.681   6.369   4.411  0.2813 -1.4554  0.4206
 7048TIP3   OH242558   3.328   0.824   5.518  0.1386 -0.2410 -0.0595
 7048TIP3    H142559   3.252   0.882   5.522 -1.3287 -1.5263 -4.1620
 7048TIP3    H242560   3.396   0.876   5.476 -0.7824 -0.9583 -2.6038
 7049TIP3   OH242561   1.555   3.281   5.727 -0.0210 -0.4599 -0.3716
 7049TIP3    H142562   1.611   3.348   5.767 -1.5483  0.9778 -0.5460
 7049TIP3    H242563   1.494   3.256   5.795 -0.8257 -0.0846 -0.9425
 7050TIP3   OH242564   4.892   4.022  16.037 -0.3178 -0.2682  0.4533
 7050TIP3    H142565   4.806   4.064  16.042  0.0209  0.5015  0.0319
 7050TIP3    H242566   4.939   4.073  15.971  0.1367 -1.2868 -0.0270
 7051TIP3   OH242567   6.139   6.581   5.189  0.1185  0.0203  0.1243
 7051TIP3    H142568   6.151   6.496   5.146  3.0928  0.3418  0.1016
 7051TIP3    H242569   6.145   6.561   5.283 -2.0101 -0.0977  0.2847
 7052TIP3   OH242570   0.892   2.045  16.266  0.0408 -0.1837  0.2241
 7052TIP3    H142571   0.800   2.067  16.252  0.0863  0.5380  0.9800
 7052TIP3    H242572   0.918   2.096  16.343  1.5127  0.8659 -0.8991
 7053TIP3   OH242573   6.124   6.062   1.390 -0.1525 -0.1921 -0.7479
 7053TIP3    H142574   6.098   5.973   1.365 -2.0136  0.2132 -0.4373
 7053TIP3    H242575   6.041   6.108   1.402  0.7176  2.2362 -3.0970
 7054TIP3   OH242576   3.542   2.481  13.109  0.6456 -0.1976  0.5026
 7054TIP3    H142577   3.568   2.531  13.186  1.5850 -0.8862  0.6488
 7054TIP3    H242578   3.484   2.413  13.144 -2.9577  2.3422 -0.0194
 7055TIP3   OH242579   5.232   0.342   4.592 -0.0626 -0.6010  0.2864
 7055TIP3    H142580   5.216   0.250   4.613 -0.0901 -0.6343  0.1258
 7055TIP3    H242581   5.325   0.354   4.608  0.5970 -1.4081 -2.3595
 7056TIP3   OH242582   2.408   3.552   1.144  0.7397 -0.2014 -0.2465
 7056TIP3    H142583   2.419   3.598   1.227 -0.7247  0.4390 -0.3852
 7056TIP3    H242584   2.415   3.459   1.167  0.3637 -0.0345  0.5948
 7057TIP3   OH242585   2.990   1.098  14.088 -0.6629 -0.0581 -0.1888
 7057TIP3    H142586   2.915   1.144  14.125 -0.8708 -0.4568 -0.1020
 7057TIP3    H242587   2.975   1.096  13.994 -0.8806 -0.3360 -0.1510
 7058TIP3   OH242588   4.588   6.360   0.273  0.1746 -0.0626 -0.0324
 7058TIP3    H142589   4.671   6.374   0.320  0.2074  2.5111 -0.7090
 7058TIP3    H242590   4.613   6.351   0.182 -0.2876  1.1047 -0.2881
 7059TIP3   OH242591   1.128   2.993  10.632 -0.1398  0.1623  0.1135
 7059TIP3    H142592   1.222   2.979  10.618  0.5141  3.4108  0.5234
 7059TIP3    H242593   1.121   3.083  10.664 -3.4987  0.4358 -0.9498
 7060TIP3   OH242594   6.203   3.071  11.807 -0.3936  0.0237  0.7293
 7060TIP3    H142595   6.132   3.099  11.864 -0.8810  0.6801 -0.1756
 7060TIP3    H242596   6.266   3.143  11.809 -0.8223  0.4377 -0.2259
 7061TIP3   OH242597   5.658   2.037  16.257 -0.5443 -0.2486  0.0635
 7061TIP3    H142598   5.568   2.070  16.261  0.3489  2.3053  2.4967
 7061TIP3    H242599   5.668   1.983  16.335  0.1446 -0.1376  0.0636
 7062TIP3   OH242600   0.515   6.479  17.289  0.5569  0.1478  0.1589
 7062TIP3    H142601   0.610   6.480  17.293  0.5380  1.8607  1.3986
 7062TIP3    H242602   0.487   6.508  17.376 -1.0031  2.8142 -1.1198
 7063TIP3   OH242603   2.403   3.330  17.347  0.1145 -0.5738 -0.2291
 7063TIP3    H142604   2.467   3.338  17.417 -0.7836  0.1545  0.5421
 7063TIP3    H242605   2.449   3.362  17.269  0.6878 -0.0664  0.3036
 7064TIP3   OH242606   4.637   3.917  12.317  0.0836  0.0912  0.5865
 7064TIP3    H142607   4.562   3.953  12.269  0.4654  1.2766  0.8400
 7064TIP3    H242608   4.711   3.972  12.291  0.7459 -0.6738  0.8161
 7065TIP3   OH242609   1.766   6.287   5.381 -0.2484 -0.1276  0.2871
 7065TIP3    H142610   1.761   6.266   5.475 -0.2078 -0.6580  0.1699
 7065TIP3    H242611   1.680   6.264   5.347  0.4160 -2.0502 -0.2331
 7066TIP3   OH242612   3.416   0.760   0.979 -0.4789 -0.1428  0.0216
 7066TIP3    H142613   3.444   0.711   0.902  0.3750 -1.3756  1.0858
 7066TIP3    H242614   3.461   0.718   1.052 -2.1035  0.3035  1.3369
 7067TIP3   OH242615   2.017   6.626   1.586 -0.0561  0.0210  0.3244
 7067TIP3    H142616   2.090   6.649   1.644  0.8319 -0.4275 -0.5720
 7067TIP3    H242617   2.059   6.589   1.509 -1.1648  0.9808 -0.7954
 7068TIP3   OH242618   1.352   4.279   2.648 -0.2749 -0.1099  0.1349
 7068TIP3    H142619   1.398   4.276   2.732 -1.3842  0.7502  0.7933
 7068TIP3    H242620   1.283   4.214   2.656 -1.3941  1.0925  0.5238
 7069TIP3   OH242621   4.435   2.889   4.107  0.3268 -0.5193  0.1067
 7069TIP3    H142622   4.440   2.921   4.017  1.8282 -1.1258 -0.0630
 7069TIP3    H242623   4.342   2.872   4.122  0.2875 -3.0605 -2.3057
 7070TIP3   OH242624   6.253   0.391  16.337 -0.0988 -0.0539 -0.0292
 7070TIP3    H142625   6.242   0.444  16.258 -0.6570  1.1505  0.8369
 7070TIP3    H242626   6.235   0.301  16.307  0.7713  0.2162 -1.4925
 7071TIP3   OH242627   5.102   3.777  11.900 -0.3602 -0.3436 -0.3175
 7071TIP3    H142628   5.129   3.791  11.991  0.2255  0.7523 -0.6379
 7071TIP3    H242629   5.119   3.861  11.857 -0.0977 -1.0145 -1.5689
 7072TIP3   OH242630   2.110   1.419   4.527 -0.0356 -0.1974  0.3558
 7072TIP3    H142631   2.179   1.352   4.527  0.4642  0.3028  1.3906
 7072TIP3    H242632   2.106   1.448   4.436  0.7549 -0.6011  0.1781
 7073TIP3   OH242633   0.936   5.983   3.897 -0.9084 -0.2592 -0.0162
 7073TIP3    H142634   0.862   6.043   3.906 -0.7511  0.4068 -2.4408
 7073TIP3    H242635   0.897   5.896   3.900 -1.6813  0.0682 -0.2526
 7074TIP3   OH242636   4.363   4.844  15.258 -0.2289  0.5031  0.2830
 7074TIP3    H142637   4.323   4.813  15.177  0.4891 -0.5220  0.3049
 7074TIP3    H242638   4.429   4.778  15.279  0.8342  1.6761  0.7372
 7075TIP3   OH242639   4.520   4.833  11.997  0.3035 -0.1011 -0.0750
 7075TIP3    H142640   4.551   4.862  11.911 -0.1890 -1.0790 -0.6093
 7075TIP3    H242641   4.446   4.775  11.977 -0.8984  0.9610  1.0846
 7076TIP3   OH242642   0.719   2.219   1.825  0.0295 -0.0127  0.3990
 7076TIP3    H142643   0.748   2.129   1.810 -1.4268 -0.3428 -0.7053
 7076TIP3    H242644   0.796   2.272   1.807  0.3792 -0.9378 -1.0308
 7077TIP3   OH242645   0.342   0.556  12.466  0.1669  0.0505  0.0936
 7077TIP3    H142646   0.397   0.478  12.479 -0.1455 -0.4159 -1.2270
 7077TIP3    H242647   0.266   0.541  12.521  0.3649 -0.3227  0.2714
 7078TIP3   OH242648   3.675   0.249  15.399 -0.4790  0.4982  0.4938
 7078TIP3    H142649   3.752   0.212  15.355 -1.1473  0.3033 -0.5446
 7078TIP3    H242650   3.711   0.316  15.457  0.5608 -0.2871  0.8018
 7079TIP3   OH242651   3.640   6.180   6.160  0.4206  0.1670  0.0937
 7079TIP3    H142652   3.608   6.097   6.197  0.9491 -0.2344 -0.3325
 7079TIP3    H242653   3.725   6.158   6.122  0.8448  1.0383  0.4950
 7080TIP3   OH242654   5.465   3.613   1.507  0.5614  0.3331 -0.1567
 7080TIP3    H142655   5.528   3.556   1.551  0.6996  0.6295  0.0399
 7080TIP3    H242656   5.467   3.586   1.415  0.5762 -0.0167 -0.0552
 7081TIP3   OH242657   6.628   3.446  11.443  0.1387  0.3437  0.7823
 7081TIP3    H142658   6.594   3.535  11.453 -0.2756  0.2821 -0.0288
 7081TIP3    H242659   6.723   3.457  11.433  0.0928  0.6901  0.7383
 7082TIP3   OH242660   4.683   0.734   2.116 -0.0972  0.5366 -0.1377
 7082TIP3    H142661   4.698   0.787   2.194 -1.7630  0.7276  0.0838
 7082TIP3    H242662   4.618   0.784   2.066 -1.1253 -0.9115 -0.2926
 7083TIP3   OH242663   0.507   5.167   1.401  0.0524  0.9722  0.8038
 7083TIP3    H142664   0.553   5.247   1.377  1.0694  0.1806  0.0061
 7083TIP3    H242665   0.494   5.121   1.318 -1.0959  0.5984  1.1658
 7084TIP3   OH242666   6.110   2.492  16.912  0.0582  0.0336  0.1752
 7084TIP3    H142667   6.179   2.464  16.971 -0.3745 -0.3084  0.5245
 7084TIP3    H242668   6.122   2.587  16.903  0.0836  0.0961  0.8645
 7085TIP3   OH242669   2.050   0.229  15.869 -0.1847 -0.5234  0.0097
 7085TIP3    H142670   1.977   0.265  15.920 -2.9673 -2.6069 -2.1942
 7085TIP3    H242671   2.058   0.287  15.793  0.5669 -0.2523  0.2818
 7086TIP3   OH242672   6.644   1.514  11.100 -0.1587 -0.5815 -0.0521
 7086TIP3    H142673   6.613   1.427  11.074  0.2091 -0.6901 -0.1381
 7086TIP3    H242674   6.581   1.544  11.165 -1.8607  0.2531 -2.0017
 7087TIP3   OH242675   6.320   0.003   0.734  0.2038  0.7836 -0.3470
 7087TIP3    H142676   6.401   0.022   0.781  1.1041  1.5325 -2.0940
 7087TIP3    H242677   6.269  -0.051   0.794  2.0055  0.2672  0.7890
 7088TIP3   OH242678   4.439   3.740  17.307 -0.7206 -0.5343 -0.6589
 7088TIP3    H142679   4.393   3.824  17.303  0.3726  0.0832 -0.5156
 7088TIP3    H242680   4.377   3.681  17.350 -1.7224  0.0403 -1.2596
 7089TIP3   OH242681   6.317   3.913  11.159 -0.6420 -0.0134 -0.3030
 7089TIP3    H142682   6.236   3.905  11.109 -0.3400  3.3287 -1.5895
 7089TIP3    H242683   6.387   3.906  11.095  0.3004 -3.6792  0.8977
 7090TIP3   OH242684   5.027   0.898   3.834  0.1049 -0.1075 -0.2437
 7090TIP3    H142685   5.033   0.868   3.743  1.7427  0.6216 -0.4148
 7090TIP3    H242686   4.988   0.985   3.828  0.1150 -0.1034 -0.2513
 7091TIP3   OH242687   0.939   0.142   0.798 -0.0226 -0.1570  0.8146
 7091TIP3    H142688   0.910   0.065   0.748  1.5834 -0.7379  0.7095
 7091TIP3    H242689   0.864   0.164   0.853 -1.6821  0.1994 -1.4253
 7092TIP3   OH242690   4.127   5.643   6.269  0.3036  0.2784  0.0321
 7092TIP3    H142691   4.218   5.624   6.247  0.4354  0.3264  0.5128
 7092TIP3    H242692   4.117   5.608   6.358 -0.4514 -0.7044 -0.4139
 7093TIP3   OH242693   6.401   4.138   1.627 -0.4620 -0.2119 -0.6553
 7093TIP3    H142694   6.334   4.113   1.563 -0.3621  0.1906 -0.9240
 7093TIP3    H242695   6.480   4.153   1.574 -0.5280  0.6904 -0.5086
 7094TIP3   OH242696   5.006   4.817   3.273 -0.3429 -0.0399 -0.2149
 7094TIP3    H142697   5.070   4.877   3.313 -0.4335  0.0304 -0.1760
 7094TIP3    H242698   4.996   4.747   3.338 -1.2754  0.5990  0.3623
 7095TIP3   OH242699   5.443   1.256  11.564 -0.3015 -0.9415 -0.1436
 7095TIP3    H142700   5.504   1.267  11.491 -0.3158  1.1187  0.0930
 7095TIP3    H242701   5.483   1.190  11.619  0.7310 -1.0405 -0.9813
 7096TIP3   OH242702   5.168   5.071  15.227  0.1954 -0.1633 -0.3876
 7096TIP3    H142703   5.087   5.112  15.198 -0.6131 -1.6726 -0.3812
 7096TIP3    H242704   5.165   5.078  15.323  1.1859  1.7456 -0.4530
 7097TIP3   OH242705   3.200   4.945   1.425  0.6646  0.1624 -0.0029
 7097TIP3    H142706   3.196   4.963   1.519  2.1387  1.8159 -0.2041
 7097TIP3    H242707   3.114   4.969   1.391  0.5307  0.7774  0.7521
 7098TIP3   OH242708   0.894   2.242   5.273 -0.2241  0.4266  0.6363
 7098TIP3    H142709   0.888   2.328   5.315  2.2962  0.4138  1.1578
 7098TIP3    H242710   0.954   2.193   5.329  1.0314 -0.5452 -1.4732
 7099TIP3   OH242711   1.038   6.141   2.701  0.2225 -0.5149 -0.5312
 7099TIP3    H142712   0.943   6.131   2.702 -0.0112  1.3403 -1.0651
 7099TIP3    H242713   1.054   6.219   2.648  2.0017 -0.3563  0.1659
 7100TIP3   OH242714   2.403   5.339  13.963 -0.0037  0.2450  0.3785
 7100TIP3    H142715   2.370   5.358  13.875  0.0027 -0.1750  0.2836
 7100TIP3    H242716   2.448   5.256  13.955 -1.2436 -0.5353  1.0703
 7101TIP3   OH242717   2.599   6.518   0.851  0.0527 -0.4005  0.4360
 7101TIP3    H142718   2.572   6.540   0.940 -2.8683 -2.6063  0.2323
 7101TIP3    H242719   2.589   6.423   0.845 -0.6098 -0.2530 -2.4683
 7102TIP3   OH242720   1.202   5.190   2.739  0.5036 -0.4477  0.2314
 7102TIP3    H142721   1.140   5.237   2.683  0.4052  0.8695  1.3918
 7102TIP3    H242722   1.146   5.137   2.796  0.4465  0.3063  0.8955
 7103TIP3   OH242723   2.773   2.969  16.537  0.2609 -0.1371 -0.3141
 7103TIP3    H142724   2.736   2.881  16.538 -2.1795  0.7906 -1.2187
 7103TIP3    H242725   2.733   3.012  16.613  1.7985  0.0891  0.3922
 7104TIP3   OH242726   2.529   5.378  15.023  0.3598  0.4294  0.2584
 7104TIP3    H142727   2.552   5.393  15.114 -0.8359  2.0942  0.3324
 7104TIP3    H242728   2.474   5.300  15.024  0.2226  0.5307  0.9812
 7105TIP3   OH242729   2.411   6.148   5.877 -0.1802 -0.3561  0.1565
 7105TIP3    H142730   2.348   6.190   5.818 -0.7283  1.5041  1.9596
 7105TIP3    H242731   2.444   6.220   5.931  0.9982 -1.8507  1.4895
 7106TIP3   OH242732   6.585   5.951   1.378  0.1368  0.0785  0.6181
 7106TIP3    H142733   6.515   5.894   1.345  0.0535  0.3969  0.2302
 7106TIP3    H242734   6.640   5.968   1.301 -1.2979  2.6610  0.0312
 7107TIP3   OH242735   1.962   3.598  16.768 -0.1708  0.1534 -0.1277
 7107TIP3    H142736   1.963   3.671  16.829 -2.2038  1.1993 -1.2305
 7107TIP3    H242737   2.054   3.576  16.755  0.4092  1.4480  1.4701
 7108TIP3   OH242738   4.800   4.539   1.331  0.1324  0.7089 -0.4291
 7108TIP3    H142739   4.813   4.455   1.287  0.3389  0.9409 -0.8104
 7108TIP3    H242740   4.705   4.551   1.332  0.0676  0.2360  0.0777
 7109TIP3   OH242741   5.562   3.386   2.536 -0.1030 -0.6506 -0.1024
 7109TIP3    H142742   5.572   3.310   2.479 -2.8440 -0.8885 -0.4019
 7109TIP3    H242743   5.589   3.460   2.481 -4.0471 -0.6777 -2.5527
 7110TIP3   OH242744   6.507   2.462  12.629 -0.0471 -0.0567 -0.3846
 7110TIP3    H142745   6.500   2.448  12.535 -0.8256  0.4503 -0.4086
 7110TIP3    H242746   6.462   2.388  12.668  0.7790 -0.5763 -0.3863
 7111TIP3   OH242747   4.844   1.456   1.098 -0.5295 -0.1136  0.3411
 7111TIP3    H142748   4.793   1.451   1.017  0.5785 -0.5722 -0.3594
 7111TIP3    H242749   4.908   1.385   1.091  0.3460  0.5715  1.0708
 7112TIP3   OH242750   5.286   5.187  12.780  0.2871 -0.5901 -0.2934
 7112TIP3    H142751   5.254   5.277  12.774  0.7871 -0.4743 -1.5773
 7112TIP3    H242752   5.356   5.190  12.845  0.3280 -0.0386 -0.3607
 7113TIP3   OH242753   0.796   5.914  10.989 -0.4008  0.1124  0.1042
 7113TIP3    H142754   0.735   5.932  11.060 -0.4716  1.1015 -0.1938
 7113TIP3    H242755   0.862   5.983  10.996  0.3660 -0.6063  0.0681
 7114TIP3   OH242756   4.696   5.474  13.021 -0.1687  0.2031 -0.0730
 7114TIP3    H142757   4.739   5.464  13.106  1.7194  0.3325 -0.9603
 7114TIP3    H242758   4.765   5.461  12.957 -0.6422  3.7199 -1.5768
 7115TIP3   OH242759   1.545   6.590   1.045  0.2668  0.3898 -0.0328
 7115TIP3    H142760   1.521   6.617   1.134  1.5880  0.8651  0.2086
 7115TIP3    H242761   1.542   6.494   1.047 -1.5825  0.4155 -0.0492
 7116TIP3   OH242762   0.530   2.234   4.438  0.0966  0.0436  0.0528
 7116TIP3    H142763   0.530   2.296   4.365 -2.9188  1.1716  0.8766
 7116TIP3    H242764   0.449   2.184   4.428  0.0240 -0.3469  2.1369
 7117TIP3   OH242765   6.538   3.957  14.322  0.2061  0.1288  0.3508
 7117TIP3    H142766   6.476   3.995  14.259 -0.4914  0.4686  1.2121
 7117TIP3    H242767   6.583   4.032  14.359  2.1748 -0.1754 -1.2369
 7118TIP3   OH242768   4.795   3.988  17.163 -0.2421  0.6082 -0.3177
 7118TIP3    H142769   4.792   3.989  17.259  1.6003  0.0923 -0.2119
 7118TIP3    H242770   4.758   4.072  17.137  2.1944  2.2097  1.0276
 7119TIP3   OH242771   2.106   5.051   5.589  0.0590 -0.1016  0.0034
 7119TIP3    H142772   2.148   5.134   5.568 -0.2065  0.4163  1.4007
 7119TIP3    H242773   2.151   4.986   5.536  2.4762  0.4583  1.2390
 7120TIP3   OH242774   1.985   2.450  15.653 -0.1588  0.4392  0.0821
 7120TIP3    H142775   1.943   2.384  15.598 -2.9706  1.0862  1.2742
 7120TIP3    H242776   2.036   2.503  15.592  0.7295 -1.6644 -1.1445
 7121TIP3   OH242777   1.145   3.104  13.072  0.4913 -0.2843  0.2366
 7121TIP3    H142778   1.116   3.176  13.017  2.4027  0.3639 -0.0212
 7121TIP3    H242779   1.228   3.135  13.109  0.2391 -1.4770  1.9194
 7122TIP3   OH242780   1.341   6.735   1.527  0.5987 -0.3016  0.2136
 7122TIP3    H142781   1.254   6.773   1.544 -0.4796 -2.1024 -0.9163
 7122TIP3    H242782   1.361   6.684   1.605 -0.8607 -2.3929 -0.6644
 7123TIP3   OH242783   4.367   1.263  16.740 -0.4738  0.4130  0.5739
 7123TIP3    H142784   4.351   1.345  16.786  0.1329  1.5738 -1.1744
 7123TIP3    H242785   4.444   1.226  16.783 -1.1543  0.3881  1.8119
 7124TIP3   OH242786   4.715   6.366   0.559  0.3401  0.7893  0.1145
 7124TIP3    H142787   4.695   6.278   0.590 -1.3752  0.6126 -1.3062
 7124TIP3    H242788   4.696   6.423   0.633 -1.0649  0.1628  0.2671
 7125TIP3   OH242789   4.262   2.260   0.966  0.2363  0.7368 -0.1678
 7125TIP3    H142790   4.335   2.314   0.995 -0.1265  1.5416 -0.7167
 7125TIP3    H242791   4.224   2.224   1.047 -1.1463  3.4143  0.4728
 7126TIP3   OH242792   2.109   5.871   4.232 -0.4016  0.2129 -0.6745
 7126TIP3    H142793   2.123   5.947   4.289  1.5048 -1.1977  0.9176
 7126TIP3    H242794   2.060   5.809   4.287 -0.3189 -0.3983 -1.2803
 7127TIP3   OH242795   6.068   6.075  11.992  0.1261  0.4698  0.0528
 7127TIP3    H142796   6.017   6.156  11.990 -0.6592 -0.0269 -0.5229
 7127TIP3    H242797   6.021   6.015  11.934  1.6671  0.1682 -0.9456
 7128TIP3   OH242798   0.747   3.099  15.067  0.2274  0.2926 -0.8540
 7128TIP3    H142799   0.662   3.087  15.027 -0.0177 -0.4128 -0.1504
 7128TIP3    H242800   0.728   3.137  15.153  0.4573 -1.5674  0.0714
 7129TIP3   OH242801   2.631   5.675   5.250  0.4381 -0.6604  0.2156
 7129TIP3    H142802   2.554   5.722   5.284  1.4636  1.8714 -0.6951
 7129TIP3    H242803   2.701   5.741   5.251  2.3645 -2.5976  0.0805
 7130TIP3   OH242804   5.471   5.980  16.233  0.5702 -0.0402  0.6797
 7130TIP3    H142805   5.401   5.938  16.184 -2.1723  3.2523  1.3880
 7130TIP3    H242806   5.541   5.994  16.169 -0.5322 -0.9912 -0.7896
 7131TIP3   OH242807   1.665   1.753   0.483  0.9184 -0.4161 -0.0106
 7131TIP3    H142808   1.628   1.764   0.396  0.2474 -0.6387  0.2448
 7131TIP3    H242809   1.599   1.705   0.532  1.0049  0.2898  0.8249
 7132TIP3   OH242810   1.202   3.074  14.929 -0.4196  0.3729 -0.2024
 7132TIP3    H142811   1.280   3.035  14.966 -0.9673 -1.3063 -0.6952
 7132TIP3    H242812   1.131   3.015  14.956 -1.2960  1.0518 -0.9622
 7133TIP3   OH242813   4.344   0.832   0.231  0.2911 -0.2215 -0.2179
 7133TIP3    H142814   4.289   0.883   0.290 -0.9077  0.7616 -2.0597
 7133TIP3    H242815   4.422   0.885   0.218  0.3309 -0.2046  0.0928
 7134TIP3   OH242816   3.209   1.620  12.947  0.3002  0.7805 -0.2299
 7134TIP3    H142817   3.172   1.653  13.029  1.9587 -0.0984  0.9409
 7134TIP3    H242818   3.155   1.543  12.926  2.0513 -1.2816  2.1648
 7135TIP3   OH242819   2.754   5.144  16.608 -0.3978  0.1689  0.2684
 7135TIP3    H142820   2.779   5.052  16.619 -0.1226  0.3427  1.1694
 7135TIP3    H242821   2.753   5.179  16.697  0.0019  1.1711 -0.1092
 7136TIP3   OH242822   6.059   2.174   3.438 -0.2541  0.3009 -0.1822
 7136TIP3    H142823   6.030   2.203   3.351  0.1085 -2.9098 -1.5063
 7136TIP3    H242824   6.133   2.116   3.421 -0.2495 -0.5439  2.2867
 7137TIP3   OH242825   4.350   3.695  14.060 -0.3277 -0.0975 -0.0624
 7137TIP3    H142826   4.285   3.765  14.056 -0.1858  0.0261 -0.1743
 7137TIP3    H242827   4.400   3.703  13.980  0.8794  0.8257  0.7603
 7138TIP3   OH242828   0.982   4.938  15.729  0.2159 -0.0571 -0.0283
 7138TIP3    H142829   0.897   4.924  15.770  0.9304  0.8669  1.8726
 7138TIP3    H242830   0.981   4.881  15.652 -2.2565  0.2164 -0.2971
 7139TIP3   OH242831   2.259   6.268   3.068  0.5795  0.6612  0.2025
 7139TIP3    H142832   2.275   6.286   2.975  2.2303  2.1313  0.7239
 7139TIP3    H242833   2.256   6.172   3.073  1.4051  0.5321 -1.2151
 7140TIP3   OH242834   0.206   0.269  16.032 -0.1910  0.1168 -0.1828
 7140TIP3    H142835   0.232   0.354  15.996 -0.6021  0.2280 -0.2145
 7140TIP3    H242836   0.168   0.290  16.118  1.6631 -0.2210  0.7926
 7141TIP3   OH242837   6.405   5.057  15.706  0.0714  0.9365 -0.0514
 7141TIP3    H142838   6.372   5.057  15.616 -0.1067  1.3366  0.0123
 7141TIP3    H242839   6.496   5.029  15.698 -0.1931  0.1332 -0.2631
 7142TIP3   OH242840   1.226   2.492   0.280 -0.5063  0.5435  0.1105
 7142TIP3    H142841   1.172   2.461   0.352 -2.1907 -1.3231 -1.8147
 7142TIP3    H242842   1.315   2.462   0.303 -0.9693  0.0953  1.4277
 7143TIP3   OH242843   1.277   4.870   1.157  0.3265 -0.1068  0.1394
 7143TIP3    H142844   1.350   4.883   1.217  0.9569  0.7652 -0.7774
 7143TIP3    H242845   1.214   4.817   1.206  0.9302  0.3653  1.4643
 7144TIP3   OH242846   2.914   2.329   0.683  0.0777 -0.4988  0.0021
 7144TIP3    H142847   2.959   2.268   0.624 -0.1867  0.6181 -1.4052
 7144TIP3    H242848   2.829   2.343   0.643  0.0078  0.5490  0.4821
 7145TIP3   OH242849   5.250   2.235  13.110  0.7280  0.5564 -0.1143
 7145TIP3    H142850   5.214   2.250  13.023  2.6938  2.2265 -0.7033
 7145TIP3    H242851   5.187   2.276  13.170 -1.0580 -1.3112 -0.6034
 7146TIP3   OH242852   1.821   5.958   6.261 -0.2465  0.7334 -0.2482
 7146TIP3    H142853   1.738   5.999   6.286 -1.5335 -1.8758  0.1434
 7146TIP3    H242854   1.888   6.010   6.305 -1.5632  3.3538 -1.1397
 7147TIP3   OH242855   5.793   4.695   0.705 -0.1639 -0.4793  0.0835
 7147TIP3    H142856   5.770   4.614   0.750  0.8724  0.1260  1.7916
 7147TIP3    H242857   5.823   4.667   0.618 -2.9239 -1.6195 -0.6071
 7148TIP3   OH242858   3.254   0.937   3.123 -0.4800 -0.6696 -0.5544
 7148TIP3    H142859   3.209   0.968   3.201 -0.4642  0.6695 -1.0531
 7148TIP3    H242860   3.307   0.863   3.154 -0.0159  0.1927  0.8272
 7149TIP3   OH242861   5.516   4.031   0.363 -0.3848 -0.2032 -0.8187
 7149TIP3    H142862   5.572   4.064   0.293 -0.2791 -0.1441 -0.7048
 7149TIP3    H242863   5.465   4.107   0.390 -1.6788 -0.5940 -2.0190
 7150TIP3   OH242864   1.774   0.824  14.624 -0.3276 -0.1013 -0.5983
 7150TIP3    H142865   1.698   0.857  14.576 -0.7795 -0.8031 -0.3750
 7150TIP3    H242866   1.778   0.878  14.703 -0.4049  0.1428 -0.7600
 7151TIP3   OH242867   3.125   6.030   4.569 -0.0059  1.1136  0.3484
 7151TIP3    H142868   3.061   5.961   4.586 -0.1324  0.7810 -1.2516
 7151TIP3    H242869   3.073   6.100   4.530  0.2038  1.9327  1.4970
 7152TIP3   OH242870   1.322   6.395  13.017  0.0882  0.4034  1.0877
 7152TIP3    H142871   1.326   6.365  13.108 -1.3162  0.1657  1.0810
 7152TIP3    H242872   1.374   6.330  12.968  1.7637  1.1186  1.8262
 7153TIP3   OH242873   3.902   5.678  17.125  0.4579  0.6114  0.1261
 7153TIP3    H142874   3.901   5.772  17.107  1.3896  0.6590  0.2707
 7153TIP3    H242875   3.986   5.663  17.168 -0.1564 -0.1017  1.1271
 7154TIP3   OH242876   3.402   4.479   0.755  0.9406  0.1989  0.0968
 7154TIP3    H142877   3.370   4.392   0.779 -0.3773  0.5552 -0.3417
 7154TIP3    H242878   3.362   4.538   0.819 -2.5463  1.1666 -2.6772
 7155TIP3   OH242879   0.022   5.955  12.597  0.0544 -0.0115 -0.3127
 7155TIP3    H142880   0.094   6.014  12.619  0.0438 -0.7503  2.0458
 7155TIP3    H242881  -0.042   6.011  12.552  0.4526  1.5902  0.9985
 7156TIP3   OH242882   2.436   0.620  14.555  0.1392  0.0230  0.2532
 7156TIP3    H142883   2.394   0.549  14.604 -0.5463  0.9965  1.1053
 7156TIP3    H242884   2.408   0.700  14.598  0.6607  0.8516 -0.8765
 7157TIP3   OH242885   6.505   0.322   5.317  0.5088 -0.7835 -0.1813
 7157TIP3    H142886   6.469   0.307   5.404  0.4894 -1.0816 -0.2411
 7157TIP3    H242887   6.599   0.334   5.331  0.2819  0.9876  0.0978
 7158TIP3   OH242888   3.942   4.806  14.647 -0.1684  0.1466 -0.0469
 7158TIP3    H142889   4.009   4.744  14.619 -0.0776  0.6301 -0.9236
 7158TIP3    H242890   3.971   4.836  14.733  0.6526  0.2246 -0.3446
 7159TIP3   OH242891   5.125   2.119  11.804 -0.2698  0.2067  0.2447
 7159TIP3    H142892   5.072   2.082  11.734  0.4038 -0.6947  0.1960
 7159TIP3    H242893   5.124   2.213  11.787 -0.0792  0.0028 -0.9976
 7160TIP3   OH242894   4.171   3.616  17.326  0.3108 -0.3036 -0.2196
 7160TIP3    H142895   4.209   3.554  17.264  1.0870 -0.8040  0.7235
 7160TIP3    H242896   4.082   3.632  17.294  0.4215 -1.1783 -0.9905
 7161TIP3   OH242897   1.182   1.170  15.779 -0.1993 -0.0912 -0.2132
 7161TIP3    H142898   1.212   1.206  15.863 -1.2823  2.6416 -0.8620
 7161TIP3    H242899   1.137   1.089  15.802 -0.3062  0.4897  1.8371
 7162TIP3   OH242900   5.984   2.449   2.231 -0.7668  0.6304  0.0895
 7162TIP3    H142901   6.008   2.541   2.227 -1.5796  0.8375 -0.6222
 7162TIP3    H242902   5.935   2.440   2.313 -0.9978  0.9273 -0.0102
 7163TIP3   OH242903   4.901   6.571   5.104 -0.4032 -0.4805  0.3912
 7163TIP3    H142904   4.940   6.545   5.187 -0.1645 -0.3431  0.3229
 7163TIP3    H242905   4.916   6.496   5.046 -0.6944 -0.6332  0.5106
 7164TIP3   OH242906   3.301   5.156   3.162 -0.3045 -0.0236 -0.1767
 7164TIP3    H142907   3.242   5.128   3.092  0.6686 -0.2295 -0.9380
 7164TIP3    H242908   3.355   5.224   3.122  0.2103 -0.0801  0.4066
 7165TIP3   OH242909   0.430   3.915   0.356 -0.0333 -0.0328  0.0372
 7165TIP3    H142910   0.369   3.988   0.341  0.1294 -0.1983 -1.7081
 7165TIP3    H242911   0.508   3.955   0.393  1.2138  1.2897 -3.5441
 7166TIP3   OH242912   2.232   2.628   2.160 -0.0503  0.3195  0.0065
 7166TIP3    H142913   2.203   2.642   2.250 -0.4882  1.2625 -0.2627
 7166TIP3    H242914   2.327   2.632   2.164 -0.0912  2.1899  0.1879
 7167TIP3   OH242915   5.488   5.870  13.784  0.4816 -0.1858  0.0028
 7167TIP3    H142916   5.397   5.898  13.796  0.9756  2.0319 -1.0675
 7167TIP3    H242917   5.481   5.777  13.762 -1.4724 -0.2116  0.5305
 7168TIP3   OH242918   0.820   2.080  13.276  0.2876  0.3726  0.4324
 7168TIP3    H142919   0.757   2.109  13.341 -0.2420  0.8668 -0.2911
 7168TIP3    H242920   0.786   1.996  13.245  0.4531  0.2183  0.6570
 7169TIP3   OH242921   6.698   4.833   6.728  0.1419  0.2358 -0.4488
 7169TIP3    H142922   6.730   4.856   6.641  1.5852 -0.4031 -0.1280
 7169TIP3    H242923   6.660   4.913   6.762  1.6065  1.1326 -0.8129
 7170TIP3   OH242924   6.196   5.968  17.312  0.1809  0.4551 -0.1344
 7170TIP3    H142925   6.249   6.045  17.290  0.0842  0.2881 -1.0064
 7170TIP3    H242926   6.259   5.904  17.345  0.2119  1.0312  0.9706
 7171TIP3   OH242927   0.114   0.764  14.837  0.0882 -0.8358 -0.3869
 7171TIP3    H142928   0.076   0.677  14.825 -1.1101 -0.1868 -1.6199
 7171TIP3    H242929   0.043   0.824  14.814 -0.0046  0.5559  3.0402
 7172TIP3   OH242930   4.961   1.202  11.878  0.4153  0.7573 -0.0075
 7172TIP3    H142931   5.054   1.185  11.894  0.5806  0.8634 -0.8462
 7172TIP3    H242932   4.941   1.152  11.799 -0.4043  0.2176  0.5239
 7173TIP3   OH242933   4.651   1.912  12.196  0.3786 -0.0459 -0.0915
 7173TIP3    H142934   4.641   1.968  12.273 -0.2418  0.1790 -0.3309
 7173TIP3    H242935   4.724   1.952  12.148  1.5940 -0.9018  0.9761
 7174TIP3   OH242936   2.835   3.734   3.319  0.3497  0.2867 -0.1292
 7174TIP3    H142937   2.849   3.672   3.247  1.6748 -0.4009  0.6851
 7174TIP3    H242938   2.835   3.820   3.277 -0.6937 -0.1909 -1.1703
 7175TIP3   OH242939   3.240   5.665   1.638 -0.0504  0.2746 -0.4102
 7175TIP3    H142940   3.178   5.592   1.636 -1.4137  1.4167 -1.4404
 7175TIP3    H242941   3.190   5.740   1.608  1.6078  1.4454 -0.3765
 7176TIP3   OH242942   1.597   0.207   3.728  0.0235  0.5220  0.5304
 7176TIP3    H142943   1.542   0.165   3.794 -1.5444 -0.5315 -1.3357
 7176TIP3    H242944   1.579   0.300   3.737 -0.5692  0.3466  1.2213
 7177TIP3   OH242945   2.879   2.035   5.559 -0.2337 -0.1364 -0.1265
 7177TIP3    H142946   2.813   1.975   5.593 -0.7388  0.7809  0.5581
 7177TIP3    H242947   2.936   2.053   5.633 -1.3620  1.9000  0.3313
 7178TIP3   OH242948   5.223   2.353  14.667  0.7398 -0.4255  0.5255
 7178TIP3    H142949   5.245   2.354  14.573  0.8281 -0.0035  0.5488
 7178TIP3    H242950   5.205   2.261  14.686 -0.9733 -0.2983 -0.2985
 7179TIP3   OH242951   4.586   0.195   3.925 -0.0298  0.4506  0.2190
 7179TIP3    H142952   4.508   0.175   3.975 -0.3867  1.1923 -0.0215
 7179TIP3    H242953   4.603   0.288   3.944  0.1203  0.6034 -0.6326
 7180TIP3   OH242954   1.385   5.933  14.215 -0.4420 -0.1525 -0.4262
 7180TIP3    H142955   1.457   5.921  14.153 -0.8471  1.1960 -1.2072
 7180TIP3    H242956   1.427   5.967  14.294 -0.2270  0.8755 -0.9651
 7181TIP3   OH242957   5.065   5.825  14.652  0.5056 -0.5323 -0.4124
 7181TIP3    H142958   5.121   5.808  14.728 -0.2362  1.2968  0.6317
 7181TIP3    H242959   4.977   5.835  14.689 -0.3719 -2.2593 -1.8811
 7182TIP3   OH242960   1.361   6.341   1.356  0.1377  0.2024 -0.3752
 7182TIP3    H142961   1.292   6.310   1.415 -0.1893  3.0554  0.9512
 7182TIP3    H242962   1.440   6.295   1.385 -0.8303 -1.8566 -0.8173
 7183TIP3   OH242963   0.790   4.031   2.482  0.1898  0.4055 -0.1549
 7183TIP3    H142964   0.783   4.082   2.563  1.7814 -0.8566  0.8235
 7183TIP3    H242965   0.780   3.940   2.509  0.3618 -0.0184 -1.4403
 7184TIP3   OH242966   3.213   0.965  13.818  0.6740 -0.1081 -0.6866
 7184TIP3    H142967   3.227   0.927  13.905  1.7928 -1.5041 -1.4379
 7184TIP3    H242968   3.261   1.048  13.820 -0.1608  0.3747  0.3354
 7185TIP3   OH242969   1.780   4.558  12.925  0.3144  0.0568  0.4246
 7185TIP3    H142970   1.795   4.551  12.830  1.6638  0.9972  0.5337
 7185TIP3    H242971   1.721   4.633  12.934 -1.2604 -1.1019  0.2571
 7186TIP3   OH242972   0.294   3.693   5.335  0.0307  0.2044 -0.2170
 7186TIP3    H142973   0.295   3.662   5.426 -1.2005  0.1490 -0.2025
 7186TIP3    H242974   0.211   3.740   5.327 -0.3060 -0.5603 -1.5574
 7187TIP3   OH242975   6.507   5.263  13.072 -0.9145 -0.6975 -0.2057
 7187TIP3    H142976   6.523   5.252  13.165 -0.8531 -1.3730 -0.2945
 7187TIP3    H242977   6.595   5.266  13.033 -0.9504 -0.9306 -0.3031
 7188TIP3   OH242978   0.860   0.325  15.052 -0.3760 -0.6571  0.3944
 7188TIP3    H142979   0.854   0.270  15.130  1.1172 -1.1480  0.1962
 7188TIP3    H242980   0.876   0.413  15.085 -1.4651 -0.5527  0.6753
 7189TIP3   OH242981   3.057   6.490   4.847 -0.5406  0.3193  0.3565
 7189TIP3    H142982   3.078   6.582   4.839  0.2751  0.0645 -0.6029
 7189TIP3    H242983   3.043   6.460   4.757 -0.8008 -0.4877  0.6489
 7190TIP3   OH242984   6.320   6.041   0.612 -0.0706  0.2118  0.1777
 7190TIP3    H142985   6.396   6.020   0.665 -0.8169 -3.8293 -0.0290
 7190TIP3    H242986   6.357   6.068   0.528  1.0685  2.4024  1.3028
 7191TIP3   OH242987   5.922   1.318   3.311  0.3575 -0.2904  0.0266
 7191TIP3    H142988   5.847   1.329   3.370  1.0315 -0.6721  0.9780
 7191TIP3    H242989   5.983   1.262   3.360  1.7277  0.8694 -0.2750
 7192TIP3   OH242990   2.206   3.386   2.505 -0.4666  0.6138 -0.0807
 7192TIP3    H142991   2.193   3.298   2.541 -1.2351  0.8651  0.2700
 7192TIP3    H242992   2.244   3.370   2.418 -0.8001 -0.0755 -0.1119
 7193TIP3   OH242993   1.591   1.430   0.841 -0.3506 -0.2519 -0.1648
 7193TIP3    H142994   1.588   1.409   0.934  0.8238  0.9452  0.1754
 7193TIP3    H242995   1.684   1.431   0.819 -0.5164  1.0947 -0.9426
 7194TIP3   OH242996   6.578   2.457   0.795  0.1671 -0.0408 -0.3827
 7194TIP3    H142997   6.555   2.461   0.702  0.3604 -0.2445 -0.4397
 7194TIP3    H242998   6.494   2.465   0.841  0.2651  2.2109 -0.5126
 7195TIP3   OH242999   5.076   0.625  11.677  0.0883 -0.3449  0.2134
 7195TIP3    H143000   5.095   0.572  11.754  0.7283 -1.0097 -0.3883
 7195TIP3    H243001   5.020   0.570  11.623 -0.3807  0.1302  0.2066
 7196TIP3   OH243002   2.749   6.410  10.625  0.2950  0.8502 -0.3831
 7196TIP3    H143003   2.674   6.394  10.568  0.6399 -1.5055 -0.2783
 7196TIP3    H243004   2.823   6.420  10.566  0.0076  3.0874 -0.4816
 7197TIP3   OH243005   4.036   5.139   1.800 -0.2373  0.2680 -0.2971
 7197TIP3    H143006   4.001   5.228   1.798 -0.1991  0.2793 -0.4640
 7197TIP3    H243007   4.113   5.142   1.743 -0.0252  0.2162 -0.0135
 7198TIP3   OH243008   0.690   4.945   2.885 -0.3581  0.2598  0.0337
 7198TIP3    H143009   0.732   4.939   2.971 -0.4500  0.5299  0.0984
 7198TIP3    H243010   0.600   4.919   2.901 -0.5254  0.8870  0.1370
 7199TIP3   OH243011   0.554   6.729   3.866 -0.2735  0.1389  0.1534
 7199TIP3    H143012   0.466   6.703   3.840  0.3561 -3.1971  0.8645
 7199TIP3    H243013   0.553   6.725   3.962  0.4218  0.9059  0.2042
 7200TIP3   OH243014   3.141   5.691   2.069  0.2196  0.0175 -0.1111
 7200TIP3    H143015   3.063   5.746   2.066 -0.3920 -0.8565 -2.6244
 7200TIP3    H243016   3.108   5.602   2.077  0.8302 -0.4840 -2.5181
 7201TIP3   OH243017   0.354   2.485  12.247  0.2472  0.3910  0.5689
 7201TIP3    H143018   0.325   2.435  12.171  0.8427  0.3865  0.3407
 7201TIP3    H243019   0.352   2.576  12.218  2.5440  0.2528 -0.1817
 7202TIP3   OH243020   5.522   0.776   3.772 -0.2383 -0.0409  0.4547
 7202TIP3    H143021   5.438   0.794   3.815  0.7582  1.8080  1.7974
 7202TIP3    H243022   5.587   0.784   3.842  1.2484  0.7756 -0.9365
 7203TIP3   OH243023   0.921   5.725  16.203 -0.3065 -0.6178 -0.4494
 7203TIP3    H143024   0.982   5.732  16.130 -0.4374  1.0434 -0.4348
 7203TIP3    H243025   0.964   5.664  16.264  1.2639  0.3389 -0.5429
 7204TIP3   OH243026   3.941   4.373   6.590 -0.3215  0.5867  0.8533
 7204TIP3    H143027   3.933   4.378   6.685 -2.3771  0.5062  0.7219
 7204TIP3    H243028   3.857   4.403   6.557 -0.1313 -0.6996 -0.9180
 7205TIP3   OH243029   5.985   2.635   0.631 -0.2123  0.6928  0.3588
 7205TIP3    H143030   5.905   2.688   0.629  1.3625  3.2884  1.4297
 7205TIP3    H243031   6.031   2.658   0.550 -0.8579 -1.4475 -0.6826
 7206TIP3   OH243032   3.910   3.549   2.194 -0.1524 -0.6857  0.3269
 7206TIP3    H143033   3.871   3.506   2.270 -0.0544  0.2339  0.9176
 7206TIP3    H243034   3.968   3.616   2.231  1.1020 -1.2378 -0.5388
 7207TIP3   OH243035   5.148   5.550   5.013  0.5681  0.1781  0.2558
 7207TIP3    H143036   5.061   5.560   5.052 -1.3019 -0.3724 -3.3601
 7207TIP3    H243037   5.168   5.636   4.977  0.6727 -0.1625 -0.5102
 7208TIP3   OH243038   3.155   0.751  13.646  0.7188  0.0743  0.2399
 7208TIP3    H143039   3.224   0.733  13.710  0.9305 -0.3857 -0.1131
 7208TIP3    H243040   3.099   0.816  13.689  0.8971 -0.1739  0.8661
 7209TIP3   OH243041   2.969   4.719   3.949  0.2436  0.3561 -0.1078
 7209TIP3    H143042   2.933   4.681   4.029  1.1180  0.2587  0.2470
 7209TIP3    H243043   2.995   4.808   3.974  0.9298  0.1725 -0.1677
 7210TIP3   OH243044   4.695   5.904  16.704  0.4783 -0.1565 -0.4895
 7210TIP3    H143045   4.764   5.940  16.647 -0.4909  0.4063 -1.3360
 7210TIP3    H243046   4.654   5.835  16.651  0.0180 -0.1036 -0.2087
 7211TIP3   OH243047   4.291   3.574   0.781  0.2853 -0.1355 -0.0582
 7211TIP3    H143048   4.359   3.641   0.781  1.3149 -1.1329 -1.1946
 7211TIP3    H243049   4.303   3.528   0.864 -0.0603  0.7077  0.4701
 7212TIP3   OH243050   3.103   6.127  11.432 -0.3981 -0.6961  0.0315
 7212TIP3    H143051   3.041   6.104  11.363  0.9405 -0.4111 -1.3253
 7212TIP3    H243052   3.052   6.122  11.513 -2.4939  0.6182 -1.1078
 7213TIP3   OH243053   2.556   3.951   1.466 -0.7318  0.1948  0.1665
 7213TIP3    H143054   2.596   3.994   1.541 -1.7241 -1.3743  1.6733
 7213TIP3    H243055   2.480   3.905   1.502 -0.9172 -1.0876 -1.6866
 7214TIP3   OH243056   6.547   5.997  16.790  0.0372  0.3027  0.0496
 7214TIP3    H143057   6.452   5.996  16.791 -0.0368 -0.0812  3.0405
 7214TIP3    H243058   6.571   6.089  16.795 -0.2077  0.3701 -0.0671
 7215TIP3   OH243059   5.904   1.433  13.239 -0.5875 -0.5009 -0.1279
 7215TIP3    H143060   5.833   1.389  13.285 -1.8317  0.1980 -1.3117
 7215TIP3    H243061   5.956   1.361  13.201 -0.5812 -1.0125  0.8168
 7216TIP3   OH243062   0.698   2.274   5.581  0.6962  0.3961 -0.0569
 7216TIP3    H143063   0.683   2.331   5.656  0.5497 -0.0214  0.2362
 7216TIP3    H243064   0.619   2.283   5.527  0.3900 -0.0187  0.3142
 7217TIP3   OH243065   2.515   2.886   4.703  0.3112 -0.3977  0.0441
 7217TIP3    H143066   2.581   2.952   4.680 -1.3265  1.9558  1.6814
 7217TIP3    H243067   2.461   2.878   4.624  0.0136  0.9151  0.0947
 7218TIP3   OH243068   5.485   4.123   2.055  0.1954 -0.4928 -0.3976
 7218TIP3    H143069   5.542   4.144   1.981  0.1920  1.4699  0.0959
 7218TIP3    H243070   5.399   4.157   2.028 -0.3055 -1.6219 -0.3053
 7219TIP3   OH243071   5.515   6.279  16.530 -0.7957 -0.4747  0.2789
 7219TIP3    H143072   5.584   6.215  16.510 -1.2776 -1.8961  2.8250
 7219TIP3    H243073   5.544   6.320  16.612 -2.8225 -0.9314  1.2722
 7220TIP3   OH243074   4.139   2.437  16.180 -0.0290  0.1515 -0.1669
 7220TIP3    H143075   4.177   2.425  16.267  2.1560  0.0824 -1.0643
 7220TIP3    H243076   4.174   2.364  16.128  1.0845  1.7570 -1.8078
 7221TIP3   OH243077   1.338   1.079  10.901  0.2137 -0.0504 -0.0595
 7221TIP3    H143078   1.397   1.154  10.900  2.4128 -1.6396  1.2359
 7221TIP3    H243079   1.376   1.018  10.837 -1.2333 -0.3202 -0.7068
 7222TIP3   OH243080   6.729   0.901  13.089  0.1896  0.3950  0.3304
 7222TIP3    H143081   6.731   0.944  13.003 -1.3587  0.1418  0.1314
 7222TIP3    H243082   6.800   0.836  13.084  1.8716  2.1521  0.2588
 7223TIP3   OH243083   2.198   4.352  12.455 -0.4186  0.0159  0.0584
 7223TIP3    H143084   2.178   4.259  12.442  2.6476 -0.4767 -2.2828
 7223TIP3    H243085   2.269   4.353  12.519  1.6580  0.3275 -2.0754
 7224TIP3   OH243086   0.746   3.806  12.712  0.5629  0.1217  0.2909
 7224TIP3    H143087   0.836   3.777  12.701  1.0501  0.8442  1.9809
 7224TIP3    H243088   0.702   3.732  12.754  0.9911  0.6087  1.6406
 7225TIP3   OH243089   0.470   0.670   6.374  0.6512  0.0382  0.4855
 7225TIP3    H143090   0.447   0.648   6.465  1.4349 -0.3525  0.5965
 7225TIP3    H243091   0.394   0.719   6.342  0.5150  0.5084  1.4702
 7226TIP3   OH243092   6.586   1.190   1.903  0.0630  0.3561  0.2317
 7226TIP3    H143093   6.666   1.202   1.955  0.4344 -0.6208 -0.0921
 7226TIP3    H243094   6.600   1.108   1.856 -0.9830  0.3614 -0.1139
 7227TIP3   OH243095   5.272   4.527   2.528 -0.0754  0.0709 -0.3515
 7227TIP3    H143096   5.195   4.521   2.472 -0.9414  1.0391  0.7003
 7227TIP3    H243097   5.279   4.439   2.567 -0.5731 -0.0590 -0.5421
 7228TIP3   OH243098   1.083   4.007  12.527  0.1583 -0.1516  0.4981
 7228TIP3    H143099   1.069   3.923  12.483 -1.6227  0.3434  0.0522
 7228TIP3    H243100   1.033   4.000  12.608 -0.0437  0.4904  0.4355
 7229TIP3   OH243101   4.837   4.468  16.959 -0.3181 -0.2380 -0.3178
 7229TIP3    H143102   4.776   4.510  17.020  0.0212  0.0802 -0.1968
 7229TIP3    H243103   4.802   4.489  16.872 -1.6488 -1.9355 -0.2436
 7230TIP3   OH243104   6.495   4.203  15.746 -0.0885 -0.0628 -0.0639
 7230TIP3    H143105   6.542   4.237  15.821 -0.5941 -0.1055  0.2776
 7230TIP3    H243106   6.471   4.280  15.694 -1.8371  0.2042  1.0612
 7231TIP3   OH243107   2.607   0.744  12.315  0.2415 -0.4481 -0.2593
 7231TIP3    H143108   2.629   0.667  12.367  0.8600  0.2799  0.6021
 7231TIP3    H243109   2.691   0.773  12.278 -0.1777 -0.9031 -1.6072
 7232TIP3   OH243110   3.659   3.606   0.369 -0.3538 -0.0180 -0.1124
 7232TIP3    H143111   3.568   3.624   0.394  0.2037  2.7033  0.2923
 7232TIP3    H243112   3.696   3.559   0.443 -1.1151 -0.0656  0.2446
 7233TIP3   OH243113   1.997   0.013  13.199  0.3606 -0.4747 -0.0022
 7233TIP3    H143114   2.053  -0.062  13.180  0.0646 -0.5600 -0.5683
 7233TIP3    H243115   1.923   0.003  13.139 -0.7457 -0.8773  1.3800
 7234TIP3   OH243116   4.019   5.476   1.046  0.6280  0.4970  0.4240
 7234TIP3    H143117   4.029   5.531   1.123  0.1430  0.1713  0.7311
 7234TIP3    H243118   4.099   5.423   1.043  1.6106  1.9714 -0.5143
 7235TIP3   OH243119   4.144   1.591   0.967  0.2263 -0.5090  0.0546
 7235TIP3    H143120   4.112   1.595   0.877 -1.9932 -3.8671  0.5226
 7235TIP3    H243121   4.089   1.653   1.015  1.0743  0.9099 -0.7378
 7236TIP3   OH243122   1.925   4.732   2.846 -0.5942  0.6359  0.3924
 7236TIP3    H143123   1.969   4.809   2.883  3.3640 -0.4460 -1.5177
 7236TIP3    H243124   1.914   4.753   2.753 -2.4738  0.0544  0.4421
 7237TIP3   OH243125   3.100   5.043   3.002 -0.6905  0.1215  0.3640
 7237TIP3    H143126   3.139   5.026   2.916  0.5357 -2.4494  1.3286
 7237TIP3    H243127   3.006   5.051   2.984 -0.4179  0.1719 -1.2469
 7238TIP3   OH243128   1.973   4.277  14.617 -0.1020  0.1104 -0.1594
 7238TIP3    H143129   1.985   4.296  14.710 -0.1066  0.3464 -0.2059
 7238TIP3    H243130   1.922   4.195  14.616  0.8061 -0.4652  0.0364
 7239TIP3   OH243131   5.094   2.754  15.097  0.4770  0.2423 -0.4947
 7239TIP3    H143132   5.007   2.725  15.069  0.5478 -0.4078 -0.0554
 7239TIP3    H243133   5.135   2.786  15.016  1.1714 -2.8210 -1.4980
 7240TIP3   OH243134   4.218   2.220   3.107 -0.8127  0.1865  0.2849
 7240TIP3    H143135   4.137   2.199   3.060 -0.8468  0.6988  0.1100
 7240TIP3    H243136   4.190   2.228   3.198 -0.5864 -1.7340  0.5635
 7241TIP3   OH243137   3.865   0.788  14.953 -0.4524 -0.3372 -0.0029
 7241TIP3    H143138   3.825   0.797  14.867  2.8065  1.4141 -1.5189
 7241TIP3    H243139   3.891   0.696  14.959 -1.6110 -0.7003 -0.4219
 7242TIP3   OH243140   5.501   0.178   0.799 -0.1300  0.1912 -0.0129
 7242TIP3    H143141   5.591   0.170   0.768 -0.0066  0.5945  0.2261
 7242TIP3    H243142   5.509   0.206   0.890 -0.4933 -0.2272  0.1515
 7243TIP3   OH243143   2.078   1.736   2.763 -0.0949 -0.6609  0.6213
 7243TIP3    H143144   2.091   1.645   2.789 -0.5601 -0.8371  0.2579
 7243TIP3    H243145   2.057   1.782   2.844  0.1355 -0.8739  0.8048
 7244TIP3   OH243146   0.057   0.938  15.642  0.0368  0.0025 -0.4802
 7244TIP3    H143147   0.115   0.986  15.583  1.0278 -0.0755  0.4131
 7244TIP3    H243148   0.108   0.861  15.668 -0.0273  0.5100  1.2054
 7245TIP3   OH243149   1.134   5.637  12.309  0.2820 -0.7516 -0.2314
 7245TIP3    H143150   1.210   5.679  12.268  0.6000  0.0345  1.1110
 7245TIP3    H243151   1.112   5.565  12.250  0.4826  0.5476 -1.9529
 7246TIP3   OH243152   4.011   4.537   0.419 -0.4964  0.0334 -0.2918
 7246TIP3    H143153   4.023   4.614   0.476 -1.2503 -0.8969  1.1691
 7246TIP3    H243154   3.917   4.531   0.407 -0.3947 -0.2872 -0.9733
 7247TIP3   OH243155   4.105   1.304   3.725 -0.9847  0.1578 -0.0675
 7247TIP3    H143156   4.163   1.371   3.690 -1.4922  1.0747  0.7747
 7247TIP3    H243157   4.161   1.252   3.783 -0.6560  0.0280 -0.4936
 7248TIP3   OH243158   5.039   6.040  12.114 -0.1854 -0.3433 -0.2410
 7248TIP3    H143159   4.966   6.087  12.155  1.0959 -0.6072  2.4983
 7248TIP3    H243160   5.023   5.948  12.134 -0.8602 -0.8463 -2.6677
 7249TIP3   OH243161   1.797   1.351  15.147 -0.3746  0.4897 -0.0272
 7249TIP3    H143162   1.823   1.297  15.221 -0.5041 -1.9208 -1.6238
 7249TIP3    H243163   1.879   1.370  15.101 -0.1665  2.7588  1.1007
 7250TIP3   OH243164   0.948   1.426   2.940 -0.2366  0.8933 -0.3898
 7250TIP3    H143165   0.980   1.430   3.030 -1.4089  3.3341  0.0167
 7250TIP3    H243166   0.982   1.505   2.899 -0.6911  0.4071 -1.7433
 7251TIP3   OH243167   6.638   1.201  11.230  0.0402 -0.6290  0.2729
 7251TIP3    H143168   6.578   1.201  11.155 -0.3235 -2.1685  0.5347
 7251TIP3    H243169   6.653   1.108  11.249  2.0143 -0.2760  0.6186
 7252TIP3   OH243170   3.936   0.987   5.769 -0.6460  0.0735  0.0930
 7252TIP3    H143171   3.850   0.958   5.739 -0.7603  0.6636 -0.1661
 7252TIP3    H243172   3.954   1.066   5.718  0.6600 -0.8027 -0.8583
 7253TIP3   OH243173   3.686   2.084  12.156 -0.4253 -0.4229 -0.1970
 7253TIP3    H143174   3.687   2.024  12.231 -2.0775  1.3591  1.3567
 7253TIP3    H243175   3.768   2.134  12.164 -0.1347 -0.9016 -0.1562
 7254TIP3   OH243176   2.799   0.176   0.258 -0.0805 -0.2686  0.1583
 7254TIP3    H143177   2.795   0.265   0.222 -0.7914 -0.3399  0.0456
 7254TIP3    H243178   2.799   0.189   0.353 -0.3138 -0.1456  0.1440
 7255TIP3   OH243179   3.398   0.889  13.008 -0.2602 -0.2678  0.7070
 7255TIP3    H143180   3.385   0.800  13.042 -3.4615  0.8438  2.9525
 7255TIP3    H243181   3.447   0.934  13.077  2.1208 -0.3802 -0.7988
 7256TIP3   OH243182   5.026   4.709  14.803  0.3382 -0.3782 -0.4661
 7256TIP3    H143183   5.018   4.802  14.826  2.3029 -0.3843  0.4696
 7256TIP3    H243184   4.991   4.704  14.714  0.1222  1.2489 -0.5137
 7257TIP3   OH243185   5.707   0.549  17.203  0.7934 -0.5446 -0.5961
 7257TIP3    H143186   5.689   0.458  17.182  0.5995 -0.9219  1.0993
 7257TIP3    H243187   5.642   0.572  17.270  1.9449  0.2892  0.2887
 7258TIP3   OH243188   3.973   1.407   0.335  0.0355 -0.5875 -0.7179
 7258TIP3    H143189   3.885   1.441   0.318  0.0977 -0.7380 -1.3811
 7258TIP3    H243190   4.031   1.466   0.286  0.3016 -0.5052 -0.3072
 7259TIP3   OH243191   5.738   1.246  13.926  0.2575  0.0256  0.2539
 7259TIP3    H143192   5.733   1.201  13.841 -0.7202  4.6954 -2.5093
 7259TIP3    H243193   5.647   1.251  13.955  0.5138 -0.8649  1.3003
 7260TIP3   OH243194   1.399   5.316  15.742  0.0517 -0.6101  0.3885
 7260TIP3    H143195   1.408   5.410  15.759 -1.4546  0.2944 -2.8838
 7260TIP3    H243196   1.485   5.289  15.712  0.5467 -0.3568  1.5266
 7261TIP3   OH243197   1.117   3.213  11.921 -0.6959  0.4783 -0.1441
 7261TIP3    H143198   1.202   3.256  11.918 -0.9753  1.0589  0.0685
 7261TIP3    H243199   1.059   3.277  11.962 -0.4638 -1.2699  3.1832
 7262TIP3   OH243200   2.091   2.534   1.526 -0.0048  0.1938  0.2777
 7262TIP3    H143201   2.130   2.546   1.612 -1.8043  2.1316  0.9124
 7262TIP3    H243202   2.017   2.474   1.541 -0.6030  0.8975  0.2101
 7263TIP3   OH243203   2.976   0.137   2.720  0.2837  0.5697  0.2757
 7263TIP3    H143204   2.949   0.207   2.661 -0.4299  1.4136  1.5659
 7263TIP3    H243205   2.977   0.058   2.665 -2.2052  0.9700 -0.4575
 7264TIP3   OH243206   4.065   4.737   0.885  0.0762 -0.0425  0.1827
 7264TIP3    H143207   4.122   4.720   0.960 -1.1486 -0.1262  1.1137
 7264TIP3    H243208   4.042   4.650   0.853  0.8461 -0.0085 -0.5171
 7265TIP3   OH243209   1.843   4.601  17.378 -0.4159  0.3614 -0.2871
 7265TIP3    H143210   1.865   4.579  17.468 -0.8671 -0.3960 -0.3548
 7265TIP3    H243211   1.842   4.517  17.332 -2.3090  0.4605 -0.5303
 7266TIP3   OH243212   3.397   1.302   6.592  0.2104 -0.3503 -0.2668
 7266TIP3    H143213   3.493   1.302   6.590  0.2573  0.1230  1.2395
 7266TIP3    H243214   3.372   1.377   6.538  0.7142  0.0338  0.0265
 7267TIP3   OH243215   5.403   6.134   5.100 -0.3513  0.1477  0.3050
 7267TIP3    H143216   5.412   6.180   5.183  1.0414 -1.1688  0.9431
 7267TIP3    H243217   5.485   6.150   5.054  0.6677 -2.4264  1.0098
 7268TIP3   OH243218   5.251   4.226  16.912  0.0472 -0.3382 -0.8506
 7268TIP3    H143219   5.260   4.296  16.846 -0.2264  0.8529  0.3240
 7268TIP3    H243220   5.157   4.219  16.926  0.1332 -0.0283 -0.0465
 7269TIP3   OH243221   3.583   6.044  12.981  0.0515  0.4542  0.0051
 7269TIP3    H143222   3.657   6.073  13.035 -0.4798  1.7233  0.0892
 7269TIP3    H243223   3.536   5.981  13.036 -0.0080  1.0955  0.7050
 7270TIP3   OH243224   2.177   6.678  16.104  0.2099 -0.0749  0.0357
 7270TIP3    H143225   2.177   6.601  16.046 -0.3816 -0.0735  0.0364
 7270TIP3    H243226   2.262   6.720  16.086 -0.0790  0.0924 -1.0569
 7271TIP3   OH243227   1.337   0.004   5.709  0.1585 -0.9743 -0.3336
 7271TIP3    H143228   1.403  -0.021   5.773  1.2770  0.4528 -0.8837
 7271TIP3    H243229   1.384   0.011   5.627 -0.3497  1.3221 -0.5025
 7272TIP3   OH243230   5.034   4.126   1.537  0.0540  0.1982  0.2828
 7272TIP3    H143231   5.005   4.036   1.526 -0.1008  0.2426  0.3348
 7272TIP3    H243232   5.109   4.134   1.478  0.0236  0.0572  0.2245
 7273TIP3   OH243233   2.929   3.385  11.246  0.0077 -0.2095 -0.5106
 7273TIP3    H143234   2.927   3.354  11.336  2.5688 -1.2175 -0.7106
 7273TIP3    H243235   2.988   3.461  11.248 -1.6543  1.1735 -1.0263
 7274TIP3   OH243236   2.198   5.284  12.120 -0.0475 -0.1153  0.1053
 7274TIP3    H143237   2.198   5.242  12.206 -0.4484 -0.1783  0.0767
 7274TIP3    H243238   2.159   5.370  12.136 -1.6020 -0.7172 -0.2875
 7275TIP3   OH243239   5.219   5.719   1.228 -0.0373 -0.7010 -0.3446
 7275TIP3    H143240   5.171   5.796   1.199 -0.4395  0.0217  2.0088
 7275TIP3    H243241   5.158   5.675   1.288  1.5511 -0.7797  1.2644
 7276TIP3   OH243242   6.162   3.080   5.843  0.1365 -0.1234  0.1073
 7276TIP3    H143243   6.197   3.146   5.903 -0.4461  1.8726 -1.6252
 7276TIP3    H243244   6.081   3.050   5.884  0.1600  0.6019  0.7001
 7277TIP3   OH243245   5.247   4.628  13.769  0.4948 -0.0419  0.5245
 7277TIP3    H143246   5.222   4.537  13.785  1.0648 -0.6108 -1.4903
 7277TIP3    H243247   5.309   4.649  13.839  0.8924 -1.4477  0.6228
 7278TIP3   OH243248   5.919   6.215  13.908 -0.1923 -0.4685  0.0065
 7278TIP3    H143249   5.824   6.202  13.906 -0.2486  0.0263 -1.2908
 7278TIP3    H243250   5.931   6.305  13.938 -0.0190 -1.2727  2.5504
 7279TIP3   OH243251   0.934   3.643   6.602  0.2563  0.0494 -0.4015
 7279TIP3    H143252   0.954   3.691   6.522  1.2106 -0.4849 -0.5024
 7279TIP3    H243253   0.972   3.696   6.672  1.3594 -0.5448 -0.5179
 7280TIP3   OH243254   0.178   4.790  13.573 -0.0900  0.6430  0.0063
 7280TIP3    H143255   0.232   4.812  13.648 -0.5654 -1.4499  1.0276
 7280TIP3    H243256   0.238   4.793  13.498  1.4599 -1.5320  1.0842
 7281TIP3   OH243257   3.510   3.049  14.881  0.2359  0.4221  0.2138
 7281TIP3    H143258   3.458   2.983  14.927 -0.4824  0.2374 -0.8219
 7281TIP3    H243259   3.527   3.117  14.947 -2.3795  1.0849  0.3253
 7282TIP3   OH243260   0.886   3.243  15.836  0.2668 -0.2003  0.1789
 7282TIP3    H143261   0.908   3.307  15.904 -0.4760  0.1938  0.0577
 7282TIP3    H243262   0.848   3.295  15.765 -0.3037 -0.7648  0.0629
 7283TIP3   OH243263   2.965   6.446  15.857  0.1999 -0.4649  0.5816
 7283TIP3    H143264   2.996   6.358  15.875  0.7433 -0.7307 -1.4473
 7283TIP3    H243265   3.021   6.502  15.911 -0.4409 -1.3335  2.2266
 7284TIP3   OH243266   3.661   3.750   2.288 -0.6577 -0.2493 -0.3577
 7284TIP3    H143267   3.755   3.751   2.267 -0.7663 -0.1106 -0.8527
 7284TIP3    H243268   3.620   3.796   2.215 -0.8381  2.3435  1.2826
 7285TIP3   OH243269   5.634   2.162   4.843  0.0902  0.3824  0.0569
 7285TIP3    H143270   5.692   2.200   4.776  1.1373 -1.9324 -0.4408
 7285TIP3    H243271   5.563   2.122   4.793  0.6225 -0.9442  0.3339
 7286TIP3   OH243272   6.113   1.728   0.651  0.1529  0.1267 -0.0296
 7286TIP3    H143273   6.066   1.683   0.580  2.0154 -1.2867 -0.4291
 7286TIP3    H243274   6.166   1.793   0.606 -0.7270  1.1393  0.3530
 7287TIP3   OH243275   5.523   2.901   4.219  0.2566 -0.5617  0.2087
 7287TIP3    H143276   5.617   2.891   4.203  0.0466 -0.3226 -1.3792
 7287TIP3    H243277   5.495   2.817   4.254  1.3268 -0.1232  2.2309
 7288TIP3   OH243278   5.289   1.534  17.174  0.2361 -0.4300 -0.8107
 7288TIP3    H143279   5.324   1.579  17.098  1.7383  2.9500  1.6102
 7288TIP3    H243280   5.361   1.477  17.203  0.4340 -0.1969 -0.8347
 7289TIP3   OH243281   4.613   0.226  14.589  0.1155  0.4889  0.2942
 7289TIP3    H143282   4.639   0.146  14.544 -1.7676 -0.9770  1.6168
 7289TIP3    H243283   4.558   0.273  14.525  1.1758  0.7443 -0.4611
 7290TIP3   OH243284   0.517   5.189   2.052 -0.3064 -0.1748 -0.4997
 7290TIP3    H143285   0.491   5.223   2.137 -0.2380 -1.5843  0.1083
 7290TIP3    H243286   0.588   5.246   2.024 -0.8262  0.7585  0.0298
 7291TIP3   OH243287   6.619   6.608   4.487 -0.0881 -0.3465  0.3476
 7291TIP3    H143288   6.665   6.655   4.557  0.6975  1.6985 -1.4112
 7291TIP3    H243289   6.552   6.670   4.456  1.4964  0.1064 -2.5891
 7292TIP3   OH243290   0.661   5.797   2.141 -0.3981  0.2283  0.0159
 7292TIP3    H143291   0.627   5.810   2.052  0.6887 -0.9425 -0.5884
 7292TIP3    H243292   0.752   5.773   2.129  0.1228  1.2949  1.5281
 7293TIP3   OH243293   2.786   3.903   0.028 -0.0425  0.1898  0.8097
 7293TIP3    H143294   2.872   3.894  -0.012  0.6091  0.7267  2.0413
 7293TIP3    H243295   2.725   3.902  -0.046  1.2176  2.9070 -0.3990
 7294TIP3   OH243296   2.411   3.489  15.585 -0.0989 -0.0877  0.3577
 7294TIP3    H143297   2.436   3.412  15.534  1.1006  1.2934 -1.2605
 7294TIP3    H243298   2.341   3.530  15.534  0.8304  1.0871 -0.0348
 7295TIP3   OH243299   6.419   3.936   2.643 -0.2901 -0.1470  0.5269
 7295TIP3    H143300   6.378   3.986   2.573 -0.0708 -1.0836 -0.2798
 7295TIP3    H243301   6.354   3.870   2.667  0.7279 -1.7336 -0.8597
 7296TIP3   OH243302   4.679   3.788   0.075 -0.0534  0.4240  0.7650
 7296TIP3    H143303   4.671   3.881   0.098 -0.8346  0.8914 -1.2082
 7296TIP3    H243304   4.606   3.772   0.015  0.6704 -1.2044  0.2774
 7297TIP3   OH243305   3.136   4.449  16.884 -0.0839 -0.1916 -0.2324
 7297TIP3    H143306   3.231   4.437  16.894  0.2811  0.6331 -2.1939
 7297TIP3    H243307   3.128   4.525  16.827 -1.9288 -0.4367 -0.3440
 7298TIP3   OH243308   4.498   3.727   2.721 -0.6052 -0.3028  0.3233
 7298TIP3    H143309   4.471   3.750   2.632  1.2794 -1.0107 -0.4841
 7298TIP3    H243310   4.487   3.807   2.771 -2.5177 -0.1081 -0.3011
 7299TIP3   OH243311   0.628   3.548   5.832 -0.1511 -0.2330 -0.2891
 7299TIP3    H143312   0.713   3.569   5.794 -0.4462 -0.1946 -0.9302
 7299TIP3    H243313   0.648   3.494   5.908  0.5835  1.5646  0.8782
 7300TIP3   OH243314   6.302   0.244   3.224  0.0718 -0.2266 -0.1651
 7300TIP3    H143315   6.351   0.196   3.156 -0.6318 -0.0772 -0.7860
 7300TIP3    H243316   6.255   0.312   3.176  0.3625  0.5340  0.6069
 7301TIP3   OH243317   1.643   4.372   2.544 -0.0279 -0.1377 -0.3210
 7301TIP3    H143318   1.605   4.284   2.540 -1.1758  0.2531  1.0659
 7301TIP3    H243319   1.573   4.427   2.579  1.1976  1.0015  0.4522
 7302TIP3   OH243320   0.700   3.817  13.046 -0.1882 -0.4158  0.4415
 7302TIP3    H143321   0.667   3.753  12.984  1.9183 -0.4699 -0.7186
 7302TIP3    H243322   0.693   3.901  13.001 -1.1629 -0.0645  1.2166
 7303TIP3   OH243323   6.211   1.821   3.912 -0.6875  0.3271  0.3221
 7303TIP3    H143324   6.169   1.902   3.942  0.8945  1.6688 -0.9210
 7303TIP3    H243325   6.138   1.760   3.901 -2.0104  1.7673  0.6802
 7304TIP3   OH243326   5.131   6.617  16.702 -0.1018  0.2937 -0.3860
 7304TIP3    H143327   5.060   6.651  16.757  1.0515  0.6137  0.9593
 7304TIP3    H243328   5.210   6.661  16.735  0.5036  1.5786 -3.1805
 7305TIP3   OH243329   5.856   1.704  12.639 -0.5357  0.0007  0.1080
 7305TIP3    H143330   5.923   1.772  12.633  0.1540 -0.5138  1.6286
 7305TIP3    H243331   5.801   1.718  12.561  2.4375 -0.8213 -2.3271
 7306TIP3   OH243332   2.500   4.608  17.016  0.2273  0.0931  0.2763
 7306TIP3    H143333   2.540   4.670  17.078 -0.8743  1.5566 -0.4217
 7306TIP3    H243334   2.499   4.655  16.933 -1.5132 -0.5008 -0.0680
 7307TIP3   OH243335   6.159   0.180   0.318  0.1877  0.0483 -0.0757
 7307TIP3    H143336   6.146   0.256   0.374 -0.2582 -0.2813  0.2662
 7307TIP3    H243337   6.156   0.105   0.377  1.2682 -0.2071 -0.3137
 7308TIP3   OH243338   0.498   6.556  16.591 -0.6414 -0.3424 -0.1735
 7308TIP3    H143339   0.402   6.554  16.588 -0.9131 -2.8193  3.4306
 7308TIP3    H243340   0.518   6.581  16.681  2.2177  1.1258 -1.0880
 7309TIP3   OH243341   2.447   3.874  16.682 -0.2739 -0.0212 -0.6429
 7309TIP3    H143342   2.454   3.786  16.646  0.5093 -0.2029 -0.0761
 7309TIP3    H243343   2.390   3.865  16.758  0.4460 -0.2072 -0.1094
 7310TIP3   OH243344   0.260   5.690   4.991 -0.4686 -0.1054 -0.1699
 7310TIP3    H143345   0.308   5.608   4.981 -2.5428 -1.5124  0.5500
 7310TIP3    H243346   0.188   5.683   4.927 -2.2276 -0.1381  1.7016
 7311TIP3   OH243347   4.149   4.332   4.500 -0.1928 -0.3052  0.0274
 7311TIP3    H143348   4.112   4.417   4.477 -1.1504 -1.0257 -1.2911
 7311TIP3    H243349   4.237   4.333   4.461 -0.1433  0.1457  0.1526
 7312TIP3   OH243350   1.714   0.261  14.093  0.6976 -0.1384 -0.0179
 7312TIP3    H143351   1.790   0.238  14.146 -0.2521 -0.5624  1.2270
 7312TIP3    H243352   1.646   0.283  14.157 -0.6183 -1.0491 -1.0386
 7313TIP3   OH243353   1.424   2.488   2.877 -0.0679 -0.3893 -0.0834
 7313TIP3    H143354   1.351   2.436   2.911 -1.7782  1.3337 -0.9550
 7313TIP3    H243355   1.436   2.557   2.943  0.8611 -0.7014  0.0913
 7314TIP3   OH243356   3.104   6.245   0.399  0.4011 -0.3624 -0.0377
 7314TIP3    H143357   3.023   6.295   0.408  0.8263  0.0260  2.0453
 7314TIP3    H243358   3.174   6.310   0.407  0.9785 -0.6854 -1.8513
 7315TIP3   OH243359   6.308   5.545  10.932  0.2866 -0.3962  0.0893
 7315TIP3    H143360   6.220   5.533  10.896  0.3995 -2.3553  0.4063
 7315TIP3    H243361   6.366   5.502  10.870  1.3446  2.7117 -1.2665
 7316TIP3   OH243362   0.278   5.213   4.826  0.3463 -0.1479  0.3650
 7316TIP3    H143363   0.203   5.271   4.836  1.6859  1.9628 -1.0044
 7316TIP3    H243364   0.276   5.188   4.734  0.2687 -1.6747  0.7536
 7317TIP3   OH243365   1.748   2.204   0.291 -0.4557 -0.2906 -0.0213
 7317TIP3    H143366   1.812   2.142   0.256 -1.1964 -0.6001 -0.8405
 7317TIP3    H243367   1.799   2.258   0.352  0.8764  0.2467 -1.5273
 7318TIP3   OH243368   3.948   0.535  15.829  0.5348  0.1455 -0.2107
 7318TIP3    H143369   3.875   0.490  15.872 -0.2314  1.7361  0.2010
 7318TIP3    H243370   3.986   0.590  15.897  0.7520  0.9681 -0.9782
 7319TIP3   OH243371   6.076   0.008   6.116  0.2113  0.5412 -0.2831
 7319TIP3    H143372   6.031  -0.067   6.079  1.2995  0.8449 -2.4492
 7319TIP3    H243373   6.061   0.003   6.210 -3.5282  0.1725 -0.7700
 7320TIP3   OH243374   2.804   2.083  11.479  0.4003 -0.7646 -1.0026
 7320TIP3    H143375   2.868   2.104  11.411 -0.2995 -0.3539 -1.5536
 7320TIP3    H243376   2.836   2.127  11.557  0.9404 -0.8107 -1.1929
 7321TIP3   OH243377   2.296   3.578   1.722  0.5961  0.3336 -0.2133
 7321TIP3    H143378   2.329   3.508   1.778  0.2123 -2.1070 -2.7786
 7321TIP3    H243379   2.202   3.563   1.717  0.6632  0.2064 -1.7381
 7322TIP3   OH243380   0.918   0.317  14.625  0.1178 -0.2239 -0.6801
 7322TIP3    H143381   0.990   0.299  14.685  1.6718  0.8863 -2.1094
 7322TIP3    H243382   0.871   0.390  14.665  1.6507  1.0850 -1.1223
 7323TIP3   OH243383   0.510   4.251  15.234 -0.0215  0.1128  0.4749
 7323TIP3    H143384   0.484   4.210  15.152 -0.9569  0.4660  0.5879
 7323TIP3    H243385   0.531   4.178  15.292 -4.2110 -0.4633  1.5697
 7324TIP3   OH243386   1.406   6.143  11.550  0.0308  0.2405  0.3443
 7324TIP3    H143387   1.446   6.198  11.617  1.0632 -0.8610  0.6756
 7324TIP3    H243388   1.391   6.201  11.476  0.3426  1.1253  0.9626
 7325TIP3   OH243389   0.630   2.417  16.942  0.2559  0.3151  0.3889
 7325TIP3    H143390   0.616   2.452  16.854 -0.2083  1.1955  0.7994
 7325TIP3    H243391   0.706   2.359  16.933 -0.7577 -0.8770 -0.9070
 7326TIP3   OH243392   2.182   0.343  13.929 -0.0783 -0.0811 -0.3200
 7326TIP3    H143393   2.223   0.348  14.015 -0.1173  0.6020 -0.3302
 7326TIP3    H243394   2.117   0.273  13.936  1.7556 -1.9173 -0.5995
 7327TIP3   OH243395   6.069   5.676  12.237  0.3189 -0.4968  0.0912
 7327TIP3    H143396   6.106   5.675  12.148 -0.1636 -1.1958 -0.1103
 7327TIP3    H243397   6.026   5.761  12.244 -0.6095 -0.8679 -0.7628
 7328TIP3   OH243398   2.796   2.394  11.996 -0.9476  0.3769  0.2131
 7328TIP3    H143399   2.707   2.425  12.011 -1.0813  0.2779 -0.3568
 7328TIP3    H243400   2.821   2.434  11.913 -0.9198 -0.5969 -0.2571
 7329TIP3   OH243401   2.700   2.705  12.711  0.5641 -0.3797 -0.4667
 7329TIP3    H143402   2.674   2.702  12.803 -0.6701  1.4120 -0.7110
 7329TIP3    H243403   2.632   2.657  12.665 -0.6237  1.4665 -0.7432
 7330TIP3   OH243404   4.291   0.323   5.986 -0.9486  0.1600 -0.2308
 7330TIP3    H143405   4.202   0.294   6.004 -0.8240 -0.5423 -0.7147
 7330TIP3    H243406   4.306   0.395   6.048 -2.3434  1.2482 -1.0757
 7331TIP3   OH243407   0.456   5.918   1.494 -0.2449 -0.3463 -0.7272
 7331TIP3    H143408   0.499   5.938   1.411 -0.3186 -0.2330 -0.7376
 7331TIP3    H243409   0.429   6.003   1.529 -1.8631 -0.5099 -1.4833
 7332TIP3   OH243410   6.393   6.386   5.498 -0.2096 -0.0580  0.2281
 7332TIP3    H143411   6.357   6.446   5.564 -0.0181 -1.7921  1.9992
 7332TIP3    H243412   6.343   6.305   5.509  0.9722 -0.9370 -0.5993
 7333TIP3   OH243413   1.029   1.667   2.858 -0.0683  0.0641 -0.1140
 7333TIP3    H143414   1.114   1.711   2.850 -0.9284  1.9306  0.3381
 7333TIP3    H243415   0.975   1.730   2.906 -1.4691 -1.4338  0.3398
 7334TIP3   OH243416   3.211   5.731   7.219  0.6879 -0.1265  0.5876
 7334TIP3    H143417   3.146   5.684   7.167  0.3894  1.0435 -0.1449
 7334TIP3    H243418   3.260   5.782   7.155  2.5968 -1.2495  1.0727
 7335TIP3   OH243419   1.642   2.627  10.673  0.5510 -0.4780  0.0443
 7335TIP3    H143420   1.696   2.550  10.656  1.8732  0.6169 -0.9090
 7335TIP3    H243421   1.626   2.665  10.586 -1.7180 -0.7067  0.2967
 7336TIP3   OH243422   3.816   2.839  12.684 -0.1434 -0.7262 -0.1624
 7336TIP3    H143423   3.765   2.850  12.765  0.3324  0.6626 -0.0318
 7336TIP3    H243424   3.754   2.805  12.621 -0.8169 -0.6758  0.4597
 7337TIP3   OH243425   4.345   5.770  13.208 -0.6223 -0.9480  0.2063
 7337TIP3    H143426   4.322   5.702  13.271  1.2014  0.5180  2.6128
 7337TIP3    H243427   4.349   5.851  13.259 -0.7488  0.6490 -2.1531
 7338TIP3   OH243428   2.034   5.800  17.243  0.0991  0.0024  0.6694
 7338TIP3    H143429   2.104   5.837  17.190  0.1669 -0.9861  0.0430
 7338TIP3    H243430   2.069   5.801  17.332  0.2203  1.1119  0.6198
 7339TIP3   OH243431   0.354   3.966   4.065  0.2150 -0.2235  0.4606
 7339TIP3    H143432   0.281   4.019   4.032  0.1619 -1.0201 -0.7540
 7339TIP3    H243433   0.320   3.925   4.145 -0.0992  0.7062  0.8241
 7340TIP3   OH243434   6.648   0.739   2.631  0.3314  0.0355  0.1663
 7340TIP3    H143435   6.679   0.793   2.704 -2.0776 -0.3995  1.5987
 7340TIP3    H243436   6.577   0.790   2.592  1.3500  0.1111 -1.7577
 7341TIP3   OH243437   4.819   4.340   2.016  0.6422  0.0206  0.3771
 7341TIP3    H143438   4.757   4.353   1.944  0.6361  0.2447  0.4242
 7341TIP3    H243439   4.785   4.394   2.087  0.0857 -0.9651  0.8914
 7342TIP3   OH243440   0.077   5.511  16.106 -0.2348 -0.6151 -0.2279
 7342TIP3    H143441   0.101   5.431  16.154 -0.7409  0.0350  1.1563
 7342TIP3    H243442   0.076   5.579  16.172  1.9581  0.9510 -1.6868
 7343TIP3   OH243443   4.325   1.344   3.379  0.3593  0.0976 -0.5500
 7343TIP3    H143444   4.231   1.339   3.397  1.0476 -1.6650  3.5246
 7343TIP3    H243445   4.335   1.424   3.327 -3.1283  1.8015  1.0519
 7344TIP3   OH243446   1.309   1.871   4.981  0.3472  0.2199  0.1741
 7344TIP3    H143447   1.294   1.910   5.067  0.9475 -2.2758  1.5304
 7344TIP3    H243448   1.295   1.777   4.995  3.0383 -0.5961 -1.7914
 7345TIP3   OH243449   2.632   2.850   3.845  0.2335 -0.1047 -0.2803
 7345TIP3    H143450   2.624   2.772   3.789 -0.6904 -0.2830  0.0869
 7345TIP3    H243451   2.680   2.819   3.922 -2.7379 -1.1716  1.3262
 7346TIP3   OH243452   4.505   0.978   2.048 -0.2883  0.9597 -0.2748
 7346TIP3    H143453   4.442   0.930   1.993 -0.4376 -0.7505  1.2964
 7346TIP3    H243454   4.455   1.052   2.082 -1.5389 -0.4084  1.0053
 7347TIP3   OH243455   4.970   2.038  16.324  0.4595  0.0862 -0.5020
 7347TIP3    H143456   5.016   2.079  16.397  0.9612 -0.5296 -0.4589
 7347TIP3    H243457   5.010   1.951  16.317 -1.3676 -0.8670  0.1689
 7348TIP3   OH243458   2.693   6.596   5.222 -0.1847 -0.7055  0.6572
 7348TIP3    H143459   2.782   6.573   5.194 -0.9812 -1.8015 -1.1956
 7348TIP3    H243460   2.704   6.672   5.279  2.0971 -2.0931  2.2189
 7349TIP3   OH243461   4.845   6.196  13.230  0.4047  0.1248 -0.1523
 7349TIP3    H143462   4.918   6.223  13.285  1.2595  0.0584 -1.2120
 7349TIP3    H243463   4.767   6.214  13.282  1.1399  0.9466  0.6945
 7350TIP3   OH243464   0.223   5.273   3.795  0.4354  0.2166  0.8814
 7350TIP3    H143465   0.210   5.277   3.701 -1.4056 -0.8633  1.0559
 7350TIP3    H243466   0.172   5.346   3.830 -0.9483 -0.8720  1.1963
 7351TIP3   OH243467   2.399   1.920   2.412  0.1548  0.0418 -0.4536
 7351TIP3    H143468   2.445   1.837   2.411  0.3155  0.1317 -0.9473
 7351TIP3    H243469   2.449   1.976   2.352 -0.3675  0.2639 -0.6885
 7352TIP3   OH243470   2.051   3.870   6.243 -0.2083 -0.0882 -0.4251
 7352TIP3    H143471   2.091   3.866   6.330  0.0549  0.0380 -0.5393
 7352TIP3    H243472   2.027   3.779   6.224 -0.8001 -0.0323  0.0232
 7353TIP3   OH243473   0.951   3.205  11.434 -1.2611  0.3236 -0.5560
 7353TIP3    H143474   0.944   3.300  11.435 -2.2473  0.2840 -1.7862
 7353TIP3    H243475   0.882   3.175  11.493 -2.3032  0.3424 -1.7209
 7354TIP3   OH243476   5.132   4.783  14.046  0.3576  0.1676 -0.2064
 7354TIP3    H143477   5.117   4.808  14.137  2.0341 -1.2330  0.5287
 7354TIP3    H243478   5.048   4.748  14.016 -0.0900  0.1976  0.9620
 7355TIP3   OH243479   0.143   2.984  16.566 -0.4818 -0.0484  0.2843
 7355TIP3    H143480   0.173   2.993  16.656 -1.4062 -1.5623  0.7772
 7355TIP3    H243481   0.052   3.016  16.567  0.1000  1.7803 -0.5682
 7356TIP3   OH243482   1.917   5.841   6.028  0.3845 -0.5163 -0.4381
 7356TIP3    H143483   1.875   5.877   6.106  0.9724  0.0389 -0.3651
 7356TIP3    H243484   1.890   5.750   6.025  0.4534 -0.5729  0.4829
 7357TIP3   OH243485   3.386   6.160  11.894  0.2424  0.6685  0.1629
 7357TIP3    H143486   3.393   6.083  11.837 -0.6765  1.1318 -0.6171
 7357TIP3    H243487   3.445   6.142  11.967  0.4905 -0.5108 -0.3074
 7358TIP3   OH243488   1.952   4.204   1.129  0.2590  0.0974  0.2746
 7358TIP3    H143489   1.871   4.161   1.102  0.5220  0.0994 -0.5313
 7358TIP3    H243490   1.938   4.297   1.108  0.1853  0.2178  0.8327
 7359TIP3   OH243491   5.080   2.571   2.545  0.4883  0.1431 -0.2971
 7359TIP3    H143492   5.110   2.482   2.561 -1.1479 -0.7156 -1.7254
 7359TIP3    H243493   5.084   2.582   2.450 -0.9765  0.9523 -0.3032
 7360TIP3   OH243494   4.641   3.710   4.941 -0.0181 -0.9215  0.3538
 7360TIP3    H143495   4.636   3.739   4.850  0.1205 -0.3749  0.5129
 7360TIP3    H243496   4.583   3.769   4.988 -0.6611 -1.6681  0.5167
 7361TIP3   OH243497   0.296   4.607  10.622  0.0896  0.1325 -0.5225
 7361TIP3    H143498   0.278   4.695  10.587  0.4267  0.5371  0.2869
 7361TIP3    H243499   0.244   4.548  10.567 -0.7646  0.9145 -0.5900
 7362TIP3   OH243500   2.397   3.581   3.981  0.1193 -0.4950 -0.0001
 7362TIP3    H143501   2.390   3.600   3.888  0.9374 -1.0280 -0.1884
 7362TIP3    H243502   2.471   3.634   4.011 -0.5780  0.2061  0.5057
 7363TIP3   OH243503   0.616   0.490   2.132  0.8423  0.0396 -0.6216
 7363TIP3    H143504   0.673   0.546   2.185 -1.6226  1.6005  0.5478
 7363TIP3    H243505   0.591   0.544   2.057  0.3319 -0.3857 -0.7672
 7364TIP3   OH243506   5.592   4.698   4.739  0.2407 -0.5462  0.2026
 7364TIP3    H143507   5.676   4.657   4.719  0.1342 -0.0932 -1.3467
 7364TIP3    H243508   5.528   4.649   4.688  0.0493  1.1433 -1.3162
 7365TIP3   OH243509   0.103   4.223  10.147  0.2640  0.5544 -0.1273
 7365TIP3    H143510   0.051   4.214  10.227 -0.7059  0.4514 -0.7633
 7365TIP3    H243511   0.126   4.133  10.124 -1.1828  0.3904 -1.0704
 7366TIP3   OH243512   1.641   1.774  16.942 -0.1577  0.4630  0.1851
 7366TIP3    H143513   1.735   1.790  16.944 -0.1082  0.1303  0.5948
 7366TIP3    H243514   1.604   1.852  16.902  0.5025 -0.3877 -2.2225
 7367TIP3   OH243515   4.776   1.134  15.938 -0.3971  0.8200 -0.3585
 7367TIP3    H143516   4.715   1.163  16.006 -0.4823  1.6613 -0.7897
 7367TIP3    H243517   4.738   1.163  15.856  0.2659  0.7913 -0.6873
 7368TIP3   OH243518   1.950   4.247  12.076  0.2333 -0.4097 -0.2363
 7368TIP3    H143519   1.968   4.162  12.035 -0.6015 -2.4576  3.2793
 7368TIP3    H243520   1.906   4.298  12.007  0.4898 -2.8973 -2.3795
 7369TIP3   OH243521   2.204   5.341  15.652 -0.1155  0.5909  0.0308
 7369TIP3    H143522   2.234   5.252  15.635  0.2622  0.1625  2.5832
 7369TIP3    H243523   2.200   5.382  15.565  0.9323 -1.4997 -1.0759
 7370TIP3   OH243524   4.241   1.752   0.413  0.3092  0.7082 -0.5416
 7370TIP3    H143525   4.247   1.773   0.506  1.3902  0.5800 -0.5722
 7370TIP3    H243526   4.166   1.802   0.382 -0.9327 -0.3212  0.6818
 7371TIP3   OH243527   0.317   3.184  16.377 -0.0367 -0.1364 -0.4990
 7371TIP3    H143528   0.261   3.261  16.393  1.4318  0.4313  2.5457
 7371TIP3    H243529   0.283   3.117  16.436 -0.8984 -1.7203 -2.6702
 7372TIP3   OH243530   5.040   4.787   2.834 -0.0710 -0.2557 -0.5031
 7372TIP3    H143531   5.130   4.811   2.810  0.1174 -0.0199  0.3970
 7372TIP3    H243532   4.991   4.795   2.752  0.7976 -0.7627 -1.0910
 7373TIP3   OH243533   0.265   4.872  15.849 -0.5338  0.0856 -0.5728
 7373TIP3    H143534   0.193   4.841  15.795 -0.8804  1.3976 -0.8876
 7373TIP3    H243535   0.321   4.922  15.789 -0.6736  1.1585  0.1619
 7374TIP3   OH243536   1.168   3.073  13.851  0.6145  0.3874  0.2059
 7374TIP3    H143537   1.128   3.151  13.814  1.1385  1.2909  1.4809
 7374TIP3    H243538   1.247   3.104  13.895  0.4451 -0.7358  1.3814
 7375TIP3   OH243539   1.457   2.894  12.120  0.3675 -0.1327 -0.3570
 7375TIP3    H143540   1.497   2.811  12.096 -1.0217 -0.5097 -1.5122
 7375TIP3    H243541   1.364   2.883  12.100 -0.1699  1.0647  1.2303
 7376TIP3   OH243542   0.582   0.312  12.767 -0.7365  0.1325  0.6917
 7376TIP3    H143543   0.663   0.261  12.757  0.1963  1.8596 -1.4876
 7376TIP3    H243544   0.515   0.257  12.726 -0.9923 -1.7632  3.3834
 7377TIP3   OH243545   4.301   4.090  11.199  0.2405 -0.1733 -0.1759
 7377TIP3    H143546   4.383   4.073  11.152  0.4506 -0.5926  0.3315
 7377TIP3    H243547   4.235   4.097  11.131  0.4036 -1.5805 -0.4965
 7378TIP3   OH243548   4.463   0.890  12.127 -0.5236 -0.1780 -0.4240
 7378TIP3    H143549   4.506   0.808  12.102  0.0271 -0.4555  1.2734
 7378TIP3    H243550   4.519   0.958  12.090  0.0651 -0.5657 -0.2620
 7379TIP3   OH243551   1.680   4.755   4.134  0.1952 -0.6626 -0.7345
 7379TIP3    H143552   1.645   4.667   4.147  2.1654 -1.2693  1.0141
 7379TIP3    H243553   1.759   4.742   4.082  1.1129 -0.1244  0.4572
 7380TIP3   OH243554   5.471   5.264   3.785  0.2898  0.1476 -0.0120
 7380TIP3    H143555   5.460   5.190   3.845  2.9546  0.1680  0.5899
 7380TIP3    H243556   5.483   5.340   3.842 -2.1365  1.1083 -0.6327
 7381TIP3   OH243557   5.903   3.279  15.165 -0.8115  0.1255  0.8524
 7381TIP3    H143558   5.979   3.334  15.182 -0.1824 -0.3492 -0.3439
 7381TIP3    H243559   5.860   3.321  15.090 -1.9230  0.5616  1.7005
 7382TIP3   OH243560   4.469   3.775  12.771  0.3876 -0.4952 -0.7710
 7382TIP3    H143561   4.514   3.848  12.728  0.3563  2.5877  3.6517
 7382TIP3    H243562   4.377   3.800  12.772  0.2101 -1.1243 -0.1486
 7383TIP3   OH243563   2.620   0.016  11.891 -0.5752 -0.1403 -0.6444
 7383TIP3    H143564   2.577  -0.067  11.870 -0.9019  0.5838 -3.1719
 7383TIP3    H243565   2.713  -0.006  11.897 -0.6240 -0.6612 -1.6313
 7384TIP3   OH243566   0.911   3.808  14.116 -0.0538  0.2416  0.2579
 7384TIP3    H143567   0.877   3.858  14.041  0.8809  1.6248  0.7187
 7384TIP3    H243568   0.878   3.855  14.193 -0.4560 -0.7837  0.7237
 7385TIP3   OH243569   5.864   6.321   1.575 -0.0972 -0.4746  0.0239
 7385TIP3    H143570   5.860   6.271   1.493 -0.5235  0.3725 -0.4889
 7385TIP3    H243571   5.911   6.401   1.552 -2.4964  0.9993 -0.0844
 7386TIP3   OH243572   1.917   2.276   0.550 -0.1981  0.3325  0.0321
 7386TIP3    H143573   1.861   2.229   0.611  0.6937  0.4296  0.9610
 7386TIP3    H243574   1.973   2.209   0.512 -0.3954  0.3467 -0.2854
 7387TIP3   OH243575   6.121   3.511  11.148 -0.0630 -0.0788  0.3361
 7387TIP3    H143576   6.043   3.460  11.169  0.3131 -0.2274  1.4460
 7387TIP3    H243577   6.138   3.563  11.227  0.6110  0.3957 -0.1079
 7388TIP3   OH243578   0.836   1.445  12.727 -0.2464  0.3997 -0.1624
 7388TIP3    H143579   0.859   1.527  12.682  0.2455 -0.4220 -1.4563
 7388TIP3    H243580   0.789   1.474  12.805  1.1987  1.9789  0.1920
 7389TIP3   OH243581   4.915   6.196   2.037  0.0128  0.1270  0.2715
 7389TIP3    H143582   4.870   6.143   2.103  1.2576 -1.7244 -0.2828
 7389TIP3    H243583   5.008   6.179   2.053  0.3470  0.0119 -1.6352
 7390TIP3   OH243584   1.625   4.354   0.546 -0.4762 -0.3787  0.2684
 7390TIP3    H143585   1.547   4.396   0.583 -2.5479 -2.4956 -1.3683
 7390TIP3    H243586   1.637   4.275   0.599  1.0710  0.3087  0.9854
 7391TIP3   OH243587   1.166   0.489  12.754  0.2604 -0.2746  0.1472
 7391TIP3    H143588   1.249   0.444  12.771  0.3421 -1.0559 -2.0719
 7391TIP3    H243589   1.187   0.582  12.766  1.1477 -0.5357  0.7519
 7392TIP3   OH243590   0.727   4.594  16.445  0.5355 -0.0824  0.0957
 7392TIP3    H143591   0.791   4.542  16.396  1.9875  0.9162  0.8786
 7392TIP3    H243592   0.736   4.683  16.409  2.3111  0.8980  2.6810
 7393TIP3   OH243593   0.503   5.191  16.728  0.1035 -0.2289 -0.2268
 7393TIP3    H143594   0.471   5.281  16.718 -0.4005 -0.4512 -0.6828
 7393TIP3    H243595   0.545   5.190  16.814 -1.2564  0.0453  0.4659
 7394TIP3   OH243596   3.870   5.222  14.370 -0.0957 -0.2313  0.3650
 7394TIP3    H143597   3.963   5.238  14.384 -0.6779  1.8452  2.5300
 7394TIP3    H243598   3.851   5.144  14.423  0.2507 -0.1884  0.5525
 7395TIP3   OH243599   0.682   4.540  16.012  0.3656  0.3857  0.0636
 7395TIP3    H143600   0.618   4.468  16.020  0.8288  0.0475  0.8656
 7395TIP3    H243601   0.642   4.601  15.950 -1.2137  0.6824  1.2996
 7396TIP3   OH243602   3.949   5.403   5.601 -0.2565  0.4858  0.6453
 7396TIP3    H143603   3.877   5.347   5.572 -0.0132 -1.1747  2.9998
 7396TIP3    H243604   4.026   5.369   5.554 -0.2350 -0.7368  1.5349
 7397TIP3   OH243605   0.478   3.958  12.785 -0.0204 -0.3887  0.9109
 7397TIP3    H143606   0.501   3.925  12.698 -1.3328 -0.0983  0.4405
 7397TIP3    H243607   0.442   3.882  12.831 -2.0372  0.0740  0.1902
 7398TIP3   OH243608   1.116   3.183  14.236  0.6139 -0.2404 -0.9790
 7398TIP3    H143609   1.093   3.120  14.304  0.3284 -0.0390 -0.8894
 7398TIP3    H243610   1.189   3.233  14.273  1.0727 -0.7543 -1.1895
 7399TIP3   OH243611   1.066   5.334  11.561 -0.8730  0.2567 -0.5411
 7399TIP3    H143612   1.111   5.325  11.477  0.4314  0.1992  0.1306
 7399TIP3    H243613   1.064   5.428  11.578 -1.7378  0.3135 -0.9452
 7400TIP3   OH243614   1.285   1.846   4.489 -0.5862 -0.0146 -0.1186
 7400TIP3    H143615   1.244   1.788   4.426 -1.8509  0.2146  0.4576
 7400TIP3    H243616   1.332   1.910   4.435  0.7819 -1.4878 -0.7559
 7401TIP3   OH243617   6.598   5.145   4.813  0.1746 -0.1448 -0.3076
 7401TIP3    H143618   6.553   5.164   4.730  1.3394 -0.5047 -1.0544
 7401TIP3    H243619   6.611   5.231   4.854 -1.6512 -0.0829  0.1920
 7402TIP3   OH243620   5.330   3.512   0.880  0.2298  0.3527 -0.3015
 7402TIP3    H143621   5.385   3.589   0.863  0.4769  0.4899  1.0634
 7402TIP3    H243622   5.314   3.513   0.974 -2.5865  0.6398 -0.6818
 7403TIP3   OH243623   1.288   0.726   2.311 -0.9437 -0.2035  0.6523
 7403TIP3    H143624   1.305   0.650   2.367  1.3930 -1.6653 -1.7948
 7403TIP3    H243625   1.225   0.694   2.245  1.3176 -0.7186 -1.4101
 7404TIP3   OH243626   4.417   6.102   0.157  1.1583  0.4331  0.3031
 7404TIP3    H143627   4.349   6.074   0.096  1.0857 -1.3337  1.1488
 7404TIP3    H243628   4.369   6.131   0.234  1.2729  2.2348 -0.2470
 7405TIP3   OH243629   0.278   6.739   3.310 -0.9144 -0.3030 -0.5682
 7405TIP3    H143630   0.357   6.688   3.296 -0.7715 -0.1741 -0.2365
 7405TIP3    H243631   0.295   6.823   3.268  0.0803  0.6255  1.5027
 7406TIP3   OH243632   4.606   3.989  16.225  0.1725  0.3228 -0.5452
 7406TIP3    H143633   4.545   3.954  16.161 -0.6476  1.1426 -0.2327
 7406TIP3    H243634   4.593   4.084  16.221  0.2403  0.4002  0.6883
 7407TIP3   OH243635   4.734   3.506   0.171 -0.5098 -0.0238 -0.4809
 7407TIP3    H143636   4.786   3.482   0.248 -1.4507 -0.2176  0.1220
 7407TIP3    H243637   4.743   3.601   0.165 -0.0030 -0.0704 -0.4436
 7408TIP3   OH243638   3.515   1.019   3.440 -0.7410 -0.0838 -0.0351
 7408TIP3    H143639   3.521   0.942   3.496 -0.4776 -0.4783 -0.6006
 7408TIP3    H243640   3.565   1.086   3.487 -2.7085  0.3923  1.4945
 7409TIP3   OH243641   0.932   4.316  15.447 -0.1203  0.3249  0.0299
 7409TIP3    H143642   0.857   4.351  15.398 -0.2580 -1.4633 -1.1287
 7409TIP3    H243643   0.975   4.257  15.386 -1.5597 -3.8331  2.6097
 7410TIP3   OH243644   6.442   2.997  12.064  0.4425  0.1771  0.3811
 7410TIP3    H143645   6.356   3.022  12.030  0.1247  0.0258  1.0485
 7410TIP3    H243646   6.464   3.066  12.126 -0.0559 -0.7363  1.6025
 7411TIP3   OH243647   3.266   1.451  16.308  0.2269 -0.1249  0.0304
 7411TIP3    H143648   3.280   1.538  16.271 -1.1571  0.2715  0.3918
 7411TIP3    H243649   3.312   1.391  16.248 -1.4254  0.5465 -1.9980
 7412TIP3   OH243650   5.355   6.669  10.999 -0.0405  0.1067 -0.0884
 7412TIP3    H143651   5.307   6.746  10.969  1.5828  1.1557 -0.1126
 7412TIP3    H243652   5.418   6.703  11.062  0.8202 -1.1851 -0.2126
 7413TIP3   OH243653   6.412   3.960  15.264 -0.5077  0.5104 -0.1123
 7413TIP3    H143654   6.427   4.044  15.306 -0.7593  0.3488  0.3121
 7413TIP3    H243655   6.321   3.938  15.286 -1.1593  1.1484 -2.0455
 7414TIP3   OH243656   5.154   1.516   0.439  0.5503 -0.2943  0.3493
 7414TIP3    H143657   5.065   1.497   0.472  1.2870 -2.1365  1.4608
 7414TIP3    H243658   5.173   1.604   0.471 -0.8525  0.1271  0.1121
 7415TIP3   OH243659   4.552   0.300   4.898 -0.0991  0.5753 -0.4586
 7415TIP3    H143660   4.631   0.316   4.846 -0.1894  0.6119 -0.5845
 7415TIP3    H243661   4.480   0.301   4.834 -0.4600  2.6366 -0.1059
 7416TIP3   OH243662   5.763   4.415  11.540  0.2211  0.4234  0.5394
 7416TIP3    H143663   5.834   4.441  11.598  0.8690 -1.6786  0.7659
 7416TIP3    H243664   5.755   4.321  11.552 -1.3238  0.3080 -0.9337
 7417TIP3   OH243665   1.310   6.157   2.033 -0.0091  0.3579  0.1020
 7417TIP3    H143666   1.401   6.130   2.029 -0.0632  0.2075 -0.1313
 7417TIP3    H243667   1.261   6.084   1.994 -0.2173  0.4833  0.1251
 7418TIP3   OH243668   4.200   4.099   6.141 -0.0674 -0.5799 -0.0208
 7418TIP3    H143669   4.263   4.165   6.169  2.9106 -3.3992  0.6521
 7418TIP3    H243670   4.246   4.049   6.074 -2.4050 -1.5990 -0.9619
 7419TIP3   OH243671   4.441   1.185  13.910  0.4823 -0.8170 -0.4105
 7419TIP3    H143672   4.388   1.163  13.987  0.3634 -0.4958 -0.3995
 7419TIP3    H243673   4.386   1.161  13.836 -0.1374  0.5188 -0.4184
 7420TIP3   OH243674   6.031   3.873   1.541 -0.0404 -0.0215 -0.6245
 7420TIP3    H143675   6.017   3.966   1.560  1.8719  0.1763 -0.0274
 7420TIP3    H243676   6.064   3.872   1.451  1.0576 -0.0053 -0.2296
 7421TIP3   OH243677   6.286   5.217   3.848 -0.3436 -0.1767 -0.6158
 7421TIP3    H143678   6.191   5.202   3.844 -0.7467  1.1546  1.9101
 7421TIP3    H243679   6.315   5.167   3.924  1.0724 -0.7516 -1.4927
 7422TIP3   OH243680   1.730   3.752   3.476 -0.1436  0.6478 -0.1886
 7422TIP3    H143681   1.777   3.670   3.483  0.0854  0.7265 -0.7132
 7422TIP3    H243682   1.750   3.783   3.387 -0.3013  1.2185 -0.0280
 7423TIP3   OH243683   5.587   0.286   3.134 -0.0846  0.4426  0.4890
 7423TIP3    H143684   5.679   0.304   3.156  0.4016 -1.4508  0.1533
 7423TIP3    H243685   5.569   0.342   3.059  0.9728  0.4124  0.2034
 7424TIP3   OH243686   4.954   1.117  14.420  0.2686  0.2382 -0.2957
 7424TIP3    H143687   5.011   1.059  14.368 -0.4044 -0.7578  0.0500
 7424TIP3    H243688   4.937   1.191  14.362  0.6202 -0.2102 -0.9949
 7425TIP3   OH243689   3.731   3.737  11.829 -0.1077 -0.2931  0.1038
 7425TIP3    H143690   3.678   3.672  11.784  1.3524 -1.2846 -0.2326
 7425TIP3    H243691   3.818   3.698  11.835  0.5933  1.2725  0.6721
 7426TIP3   OH243692   0.716   5.982   2.435 -1.2205 -0.4915  0.5087
 7426TIP3    H143693   0.621   5.993   2.435 -1.1941  0.5422  3.4214
 7426TIP3    H243694   0.737   5.947   2.522  1.2786  2.1361  1.1364
 7427TIP3   OH243695   1.195   2.347   2.943 -0.1771  0.2422  0.2328
 7427TIP3    H143696   1.200   2.302   2.858 -0.9209  1.1317 -0.3002
 7427TIP3    H243697   1.155   2.431   2.923  2.3382  1.7261  0.9971
 7428TIP3   OH243698   4.550   0.402  10.680 -0.0651 -1.0409 -0.0053
 7428TIP3    H143699   4.527   0.389  10.588 -1.3354  0.0880  0.1311
 7428TIP3    H243700   4.473   0.372  10.728  1.1932 -3.1991  0.8193
 7429TIP3   OH243701   3.126   3.701  16.698  0.0442  0.1825 -0.0828
 7429TIP3    H143702   3.220   3.685  16.697 -0.1779 -1.3216 -1.7259
 7429TIP3    H243703   3.095   3.657  16.777  0.2627 -2.8761 -1.5389
 7430TIP3   OH243704   3.207   6.589   5.924  0.1469  0.2581 -0.7539
 7430TIP3    H143705   3.157   6.649   5.981 -0.8289 -0.6481 -0.6276
 7430TIP3    H243706   3.141   6.550   5.867  0.7785 -0.6568 -0.8767
 7431TIP3   OH243707   4.414   1.063   1.711  0.3595 -0.0466 -0.2401
 7431TIP3    H143708   4.331   1.041   1.753  0.9978  0.9986  1.6821
 7431TIP3    H243709   4.435   0.986   1.659 -2.0772 -0.1149 -1.2640
 7432TIP3   OH243710   2.703   4.964   5.502  0.0277 -0.0624  0.4329
 7432TIP3    H143711   2.629   5.022   5.521 -0.0689 -0.4064  1.1608
 7432TIP3    H243712   2.668   4.876   5.514  0.3568 -0.2513  0.0164
 7433TIP3   OH243713   0.999   5.637  11.888 -0.8326  0.3377 -0.1041
 7433TIP3    H143714   0.985   5.557  11.938  1.1704 -0.7222 -1.0844
 7433TIP3    H243715   1.076   5.677  11.928 -0.2692  0.3842 -1.1742
 7434TIP3   OH243716   6.471   5.043  13.915 -0.3219  0.2940  0.4272
 7434TIP3    H143717   6.493   5.079  13.829  4.3228 -0.5377  1.0074
 7434TIP3    H243718   6.428   4.959  13.896  0.3836  0.2415 -1.0668
 7435TIP3   OH243719   4.530   5.792  16.065 -0.4045  0.4019  0.4684
 7435TIP3    H143720   4.522   5.883  16.093  1.5006  0.4971  0.8870
 7435TIP3    H243721   4.501   5.741  16.141 -0.3714  0.6611  0.6574
 7436TIP3   OH243722   0.660   2.140  14.341 -0.4097 -0.2385 -0.0089
 7436TIP3    H143723   0.745   2.165  14.306  0.0178 -1.0766  0.4185
 7436TIP3    H243724   0.597   2.177  14.278  0.2227  0.9568  0.0304
 7437TIP3   OH243725   5.462   2.336  14.864  0.6410  0.6127 -0.5648
 7437TIP3    H143726   5.397   2.347  14.794  1.3937  0.7180 -1.2686
 7437TIP3    H243727   5.419   2.368  14.943  0.5487  2.6917 -1.4030
 7438TIP3   OH243728   4.146   0.334  13.812  0.0424 -0.1459 -0.1088
 7438TIP3    H143729   4.081   0.343  13.742  0.3521 -0.9205 -0.5021
 7438TIP3    H243730   4.098   0.355  13.892 -0.8876 -1.3689 -0.3148
 7439TIP3   OH243731   5.263   1.000  12.330  0.0435  0.1846  0.1958
 7439TIP3    H143732   5.234   0.934  12.392  0.5352 -0.1773  0.0434
 7439TIP3    H243733   5.187   1.016  12.274 -0.7260  1.2049  1.4525
 7440TIP3   OH243734   5.516   1.509  12.807  0.2222  0.4897  0.5851
 7440TIP3    H143735   5.500   1.462  12.725  2.5618  0.6866 -0.0543
 7440TIP3    H243736   5.511   1.441  12.875  3.1525 -0.7572 -0.2798
 7441TIP3   OH243737   3.702   6.064   5.440  0.4624 -0.2723 -0.2422
 7441TIP3    H143738   3.607   6.074   5.450  0.8432  1.3854  3.3707
 7441TIP3    H243739   3.716   5.970   5.441 -1.0946 -0.5378  0.1052
 7442TIP3   OH243740   3.613   4.765   0.952  0.1333  0.3371  0.2492
 7442TIP3    H143741   3.525   4.791   0.980  0.2757 -0.0924  1.1296
 7442TIP3    H243742   3.671   4.797   1.022  0.7995  1.4331 -0.7600
 7443TIP3   OH243743   2.542   4.739  12.922  0.4597 -0.2896 -0.3401
 7443TIP3    H143744   2.541   4.735  12.827  1.0159 -1.0868 -0.3247
 7443TIP3    H243745   2.517   4.651  12.950  0.3772 -0.0828  0.2494
 7444TIP3   OH243746   6.410   3.757  10.193  0.1482  0.1725  0.3289
 7444TIP3    H143747   6.430   3.683  10.250  1.0192  1.4378  1.7280
 7444TIP3    H243748   6.437   3.728  10.106  3.0876 -0.1965  1.2712
 7445TIP3   OH243749   4.773   3.709  17.242  0.4582 -0.3681  0.5339
 7445TIP3    H143750   4.765   3.721  17.336  1.3549  0.0285  0.5692
 7445TIP3    H243751   4.758   3.795  17.204 -0.1279 -0.5696  0.2903
 7446TIP3   OH243752   0.215   3.378   1.398  0.8043 -0.5934  0.8278
 7446TIP3    H143753   0.233   3.392   1.491 -0.3560 -0.4913  1.0477
 7446TIP3    H243754   0.142   3.437   1.378  1.1740 -0.4582 -0.1982
 7447TIP3   OH243755   2.352   0.025  12.715  0.2366  0.0441 -0.4401
 7447TIP3    H143756   2.421   0.089  12.695  0.9707 -0.4301  0.4766
 7447TIP3    H243757   2.347  -0.031  12.637 -2.8014  3.1497 -2.7920
 7448TIP3   OH243758   1.211   2.304  12.304 -0.4952 -0.0867  0.4252
 7448TIP3    H143759   1.195   2.219  12.345  0.6683 -0.2833  0.4848
 7448TIP3    H243760   1.169   2.296  12.218  0.3220 -1.0299  0.0996
 7449TIP3   OH243761   5.997   3.946  11.818  0.4654 -0.2882 -0.6018
 7449TIP3    H143762   6.043   3.994  11.749  1.2095 -0.9224 -0.5650
 7449TIP3    H243763   6.017   3.993  11.898  1.1860 -0.6456 -0.5667
 7450TIP3   OH243764   6.034   5.447   5.580 -0.3276  0.0419 -0.2987
 7450TIP3    H143765   6.057   5.531   5.540  0.8635 -0.2564 -0.2561
 7450TIP3    H243766   6.117   5.403   5.596 -0.7582 -0.0969  2.0010
 7451TIP3   OH243767   1.928   3.351   0.011 -0.1801  0.3642 -0.4662
 7451TIP3    H143768   1.853   3.385   0.061  0.5015  0.5279  0.4598
 7451TIP3    H243769   1.894   3.272  -0.030 -0.1946 -1.0145  1.9987
 7452TIP3   OH243770   4.764   3.938  10.945  0.2174  0.2708  0.5393
 7452TIP3    H143771   4.740   3.892  10.865  0.7028 -0.6748  0.9173
 7452TIP3    H243772   4.857   3.958  10.935  0.3925 -0.2451  1.0349
 7453TIP3   OH243773   4.831   6.124  12.967 -0.0800 -0.3782 -0.5688
 7453TIP3    H143774   4.808   6.204  12.918 -1.1990 -0.0244  0.4717
 7453TIP3    H243775   4.821   6.149  13.059  2.8821 -0.7525 -0.0483
 7454TIP3   OH243776   6.156   5.878   2.257  0.1929  0.0913  0.8700
 7454TIP3    H143777   6.088   5.846   2.198  0.3456 -1.6717  1.5900
 7454TIP3    H243778   6.231   5.896   2.201  0.6070 -2.3229  0.5778
 7455TIP3   OH243779   2.100   2.809  15.066  0.4640 -0.5723 -0.2845
 7455TIP3    H143780   2.173   2.753  15.040 -1.0318 -1.6603 -2.4216
 7455TIP3    H243781   2.044   2.752  15.120  0.5135 -0.1372  0.2387
 7456TIP3   OH243782   4.416   4.724  11.565 -0.1949 -0.1100 -0.5970
 7456TIP3    H143783   4.360   4.797  11.593 -0.8435 -0.8063 -0.0456
 7456TIP3    H243784   4.477   4.764  11.504  0.1962  1.1345  0.5561
 7457TIP3   OH243785   1.220   3.427   3.274  0.6620 -0.3034 -1.0684
 7457TIP3    H143786   1.262   3.476   3.345  0.9330  0.0725 -1.4795
 7457TIP3    H243787   1.171   3.493   3.226 -0.1067 -0.6812 -0.8104
 7458TIP3   OH243788   5.846   3.979  14.927 -0.4014 -1.0319 -0.0957
 7458TIP3    H143789   5.762   3.933  14.926 -0.6309 -0.6476  0.6562
 7458TIP3    H243790   5.822   4.072  14.933  0.0780 -0.9067 -0.0565
 7459TIP3   OH243791   4.570   3.908  11.637  0.1473  0.3605  0.7151
 7459TIP3    H143792   4.656   3.867  11.640 -0.3597 -0.8060  0.0655
 7459TIP3    H243793   4.531   3.887  11.722 -0.4187 -1.2583  0.0853
 7460TIP3   OH243794   5.322   6.294  13.387  0.1697  0.0244 -0.7991
 7460TIP3    H143795   5.307   6.297  13.481  0.1531  0.4611 -0.8144
 7460TIP3    H243796   5.363   6.378  13.366  0.9240 -0.3961 -1.0528
 7461TIP3   OH243797   6.339   5.195  13.380  0.1916  0.5213 -0.4288
 7461TIP3    H143798   6.300   5.206  13.294 -1.8148 -1.0987  0.1998
 7461TIP3    H243799   6.348   5.101  13.391  0.3003  0.6913  1.1795
 7462TIP3   OH243800   5.646   3.609  13.682 -0.5807  0.3776  0.1916
 7462TIP3    H143801   5.553   3.630  13.674 -0.7152 -0.4590 -0.6630
 7462TIP3    H243802   5.652   3.517  13.657  0.5484  0.5414 -0.2028
 7463TIP3   OH243803   6.265   5.333   5.696 -0.1890 -0.4885  0.1801
 7463TIP3    H143804   6.254   5.346   5.790  1.5590  1.9971  0.1164
 7463TIP3    H243805   6.241   5.241   5.682  0.1532 -1.1256  3.1324
 7464TIP3   OH243806   2.545   1.031  15.567 -0.2746  0.2248  0.0379
 7464TIP3    H143807   2.639   1.020  15.584 -0.3338 -1.3055 -0.5000
 7464TIP3    H243808   2.536   1.014  15.473 -0.9287  1.6426 -0.1835
 7465TIP3   OH243809   5.267   3.967  12.770  0.0285 -0.0468 -0.0368
 7465TIP3    H143810   5.341   3.917  12.805  0.1110  1.1349  1.6234
 7465TIP3    H243811   5.269   4.050  12.819 -2.2753  0.0986 -0.0798
 7466TIP3   OH243812   2.100   3.140   4.669 -0.5664  0.2444  0.3471
 7466TIP3    H143813   2.028   3.167   4.726 -0.4800  1.7976 -0.2503
 7466TIP3    H243814   2.154   3.082   4.724 -1.9014 -0.4263  0.9889
 7467TIP3   OH243815   4.557   3.862   1.337 -0.2033 -0.2497  0.0162
 7467TIP3    H143816   4.553   3.955   1.357 -0.1237 -0.1185 -0.5549
 7467TIP3    H243817   4.469   3.840   1.304  0.2498  0.0099 -1.4407
 7468TIP3   OH243818   5.578   6.363   0.908  0.9663 -0.2050  0.0674
 7468TIP3    H143819   5.597   6.456   0.919 -1.1116  0.1360  1.3772
 7468TIP3    H243820   5.603   6.323   0.991 -1.2742 -0.1756  0.8202
 7469TIP3   OH243821   0.730   0.838   4.195  0.1823 -0.0827  0.8189
 7469TIP3    H143822   0.756   0.813   4.284 -0.7988 -0.4523  1.0130
 7469TIP3    H243823   0.642   0.875   4.206  0.8481  1.7475  0.2841
 7470TIP3   OH243824   3.524   2.932   5.415 -0.4740  0.1232  0.4536
 7470TIP3    H143825   3.466   2.954   5.487 -2.0671 -0.8598 -0.4681
 7470TIP3    H243826   3.532   2.836   5.419  0.7140  0.1995  0.2769
 7471TIP3   OH243827   3.573   4.348   4.162  0.0018 -0.5950  1.0917
 7471TIP3    H143828   3.502   4.285   4.175 -0.4208 -0.6278 -1.0225
 7471TIP3    H243829   3.653   4.296   4.168 -0.3652 -1.5816 -1.4845
 7472TIP3   OH243830   1.298   3.543   0.716  0.3043 -0.3253  0.2214
 7472TIP3    H143831   1.274   3.511   0.629  1.7604 -1.8701  0.3308
 7472TIP3    H243832   1.342   3.468   0.757 -0.8085  0.1821  2.4975
 7473TIP3   OH243833   5.067   4.755  10.207 -0.3175  0.2023 -0.2387
 7473TIP3    H143834   5.110   4.836  10.233 -2.0424  1.0922 -0.0181
 7473TIP3    H243835   5.105   4.688  10.263  0.8253  0.9197 -0.1252
 7474TIP3   OH243836   3.953   0.685  17.284 -0.2005  0.2690  0.3967
 7474TIP3    H143837   3.988   0.713  17.369  0.2207  0.7003  0.0830
 7474TIP3    H243838   4.028   0.647  17.238 -0.1471  1.1186 -0.2467
 7475TIP3   OH243839   2.468   5.735   2.403  0.0978  0.2216  0.3071
 7475TIP3    H143840   2.508   5.807   2.452  2.2081 -1.1936  0.7674
 7475TIP3    H243841   2.441   5.673   2.470  0.9487 -0.7134 -0.1983
 7476TIP3   OH243842   3.681   2.087   3.256 -0.1182 -0.0321 -0.1302
 7476TIP3    H143843   3.659   2.135   3.337 -1.3762 -0.2179 -0.3445
 7476TIP3    H243844   3.617   2.118   3.192  2.0853  1.6422 -1.6771
 7477TIP3   OH243845   6.348   2.530   4.452  0.4273  0.1185  0.3921
 7477TIP3    H143846   6.359   2.537   4.357  0.6024 -0.5767  0.3589
 7477TIP3    H243847   6.301   2.610   4.476 -0.2620 -0.0320 -0.3783
 7478TIP3   OH243848   5.750   5.387   6.183 -0.4084 -0.1188  0.1800
 7478TIP3    H143849   5.796   5.318   6.232  0.9624 -0.9476 -2.1074
 7478TIP3    H243850   5.717   5.446   6.250  0.9406 -1.4245  2.1039
 7479TIP3   OH243851   5.508   4.804  12.746 -0.1296 -0.1075 -0.2213
 7479TIP3    H143852   5.424   4.835  12.781 -1.0620 -2.9024  0.2720
 7479TIP3    H243853   5.499   4.813  12.651 -0.5558  0.5649 -0.1295
 7480TIP3   OH243854   5.101   2.776   5.323  0.6855  0.3928  0.2036
 7480TIP3    H143855   5.041   2.824   5.380  1.1912  0.0799  1.0176
 7480TIP3    H243856   5.148   2.844   5.275  0.4731  0.6701  0.3826
 7481TIP3   OH243857   2.165   1.450  17.379 -0.5173 -0.1603  0.3300
 7481TIP3    H143858   2.201   1.402  17.305  0.7791  0.5707  0.4608
 7481TIP3    H243859   2.168   1.388  17.452 -0.5095 -0.4415  0.0912
 7482TIP3   OH243860   2.442   5.843  10.653  0.5014  0.5725  0.6064
 7482TIP3    H143861   2.409   5.918  10.604  1.4601  2.0224  2.0756
 7482TIP3    H243862   2.408   5.767  10.606  0.8454  1.8602 -1.8977
 7483TIP3   OH243863   3.730   1.300  13.391  0.1354 -0.0133  0.0083
 7483TIP3    H143864   3.758   1.294  13.300 -0.7996 -0.3197 -0.2618
 7483TIP3    H243865   3.804   1.265  13.441 -0.1570 -1.8266 -0.7617
 7484TIP3   OH243866   3.070   6.638   1.849 -0.5581 -0.6815  0.3113
 7484TIP3    H143867   3.091   6.553   1.887  1.0992 -0.5644 -0.2693
 7484TIP3    H243868   3.017   6.617   1.772 -1.3065 -1.0874  0.9182
 7485TIP3   OH243869   2.774   3.341  11.021  0.4502  0.3156  0.4743
 7485TIP3    H143870   2.779   3.372  11.111  0.8389 -0.5347  0.7568
 7485TIP3    H243871   2.826   3.260  11.020 -0.8377 -0.5395 -0.1472
 7486TIP3   OH243872   0.870   2.331  15.649  0.3056 -0.0329  0.4909
 7486TIP3    H143873   0.802   2.317  15.715 -1.2369 -1.5705 -1.3219
 7486TIP3    H243874   0.924   2.252  15.652  1.2120  0.5723  0.9319
 7487TIP3   OH243875   5.364   0.009   6.550  0.2102 -0.2382 -0.5929
 7487TIP3    H143876   5.449   0.053   6.555  0.7613 -1.0787 -1.9550
 7487TIP3    H243877   5.383  -0.074   6.507 -1.0792 -1.0863  0.3981
 7488TIP3   OH243878   6.098   4.011   4.773  0.2609  0.4798  0.2866
 7488TIP3    H143879   6.166   3.955   4.811  0.6432  1.7239  1.5193
 7488TIP3    H243880   6.016   3.965   4.791  0.7280 -1.2396 -1.5702
 7489TIP3   OH243881   6.628   5.293  16.059 -0.2748  0.0100 -0.2725
 7489TIP3    H143882   6.556   5.257  16.006 -1.0899 -0.3475  1.0261
 7489TIP3    H243883   6.640   5.230  16.129  0.8191  0.4504 -0.0512
 7490TIP3   OH243884   4.520   0.208   0.526 -0.1624 -0.0316  0.3700
 7490TIP3    H143885   4.501   0.149   0.454 -1.5362  1.0687 -0.2046
 7490TIP3    H243886   4.597   0.170   0.569  0.8985 -0.5160 -1.8588
 7491TIP3   OH243887   5.158   6.073  14.323 -0.2019  0.7482  0.3741
 7491TIP3    H143888   5.097   6.003  14.299  0.8593 -0.9969  2.4521
 7491TIP3    H243889   5.103   6.145  14.351 -1.3119  0.3160 -0.6080
 7492TIP3   OH243890   5.983   0.504  11.738  0.2910  0.3171 -0.3646
 7492TIP3    H143891   5.909   0.479  11.682 -0.7693 -0.5559  1.3311
 7492TIP3    H243892   6.053   0.442  11.715 -0.9284 -1.6292  0.8861
 7493TIP3   OH243893   2.984   0.718  15.141 -0.7744 -0.1701 -0.1867
 7493TIP3    H143894   2.978   0.637  15.091 -0.6226  0.0400 -0.5518
 7493TIP3    H243895   3.010   0.784  15.077 -1.2583  0.2429  0.0284
 7494TIP3   OH243896   6.542   6.763  11.974 -0.0461  0.5535  0.0248
 7494TIP3    H143897   6.618   6.821  11.972 -0.0518  0.5411 -0.6151
 7494TIP3    H243898   6.570   6.690  12.030  0.8973 -0.1040 -1.2664
 7495TIP3   OH243899   2.551   5.426   2.434 -0.1981  0.0780  0.2604
 7495TIP3    H143900   2.598   5.489   2.379  0.7590 -0.3911  0.5088
 7495TIP3    H243901   2.620   5.371   2.471 -0.9637 -0.6942  0.5769
 7496TIP3   OH243902   1.168   2.909   1.013  0.0093  0.2897  0.0256
 7496TIP3    H143903   1.190   2.848   0.943  0.9547  0.1875  0.4020
 7496TIP3    H243904   1.074   2.897   1.027 -0.2272  0.4199 -1.3192
 7497TIP3   OH243905   5.228   0.708   1.925 -0.4060  0.3257  0.2718
 7497TIP3    H143906   5.311   0.729   1.882 -0.9006  0.5351 -0.6182
 7497TIP3    H243907   5.222   0.770   1.997  0.3203  0.1445  0.5053
 7498TIP3   OH243908   5.461   1.542   1.226 -0.0186 -0.3090 -0.1967
 7498TIP3    H143909   5.389   1.480   1.219  0.1839 -0.4929 -0.6871
 7498TIP3    H243910   5.538   1.493   1.197  0.4000 -0.2756  0.8032
 7499TIP3   OH243911   3.096   6.397  13.759 -0.8588  0.1478  0.0933
 7499TIP3    H143912   3.119   6.412  13.667  0.0404  1.2393  0.4712
 7499TIP3    H243913   3.126   6.476  13.804 -1.1510 -0.4379  1.3537
 7500TIP3   OH243914   0.804   0.151  15.253 -0.2297  0.2982 -0.0669
 7500TIP3    H143915   0.771   0.065  15.228  0.4865 -0.3103  1.0166
 7500TIP3    H243916   0.739   0.186  15.314 -0.2962  0.3434 -0.1622
 7501TIP3   OH243917   0.107   4.345   4.718  0.3306  0.6019  0.5713
 7501TIP3    H143918   0.156   4.426   4.732 -1.1057  2.0361 -1.8855
 7501TIP3    H243919   0.016   4.370   4.732 -0.0452 -0.9435  1.0325
 7502TIP3   OH243920   5.877   6.415   5.183 -0.0819  0.2317  0.6279
 7502TIP3    H143921   5.907   6.421   5.274  1.6449  2.1322  0.0009
 7502TIP3    H243922   5.809   6.482   5.176 -3.4352 -2.7302  1.5045
 7503TIP3   OH243923   5.644   3.662  16.357  0.2228 -0.1210  0.4799
 7503TIP3    H143924   5.703   3.713  16.413 -1.3935  0.8328  1.4138
 7503TIP3    H243925   5.588   3.728  16.316  0.7474 -0.8889 -1.5689
 7504TIP3   OH243926   5.324   5.420  15.594  0.0104  0.3209  0.1533
 7504TIP3    H143927   5.354   5.332  15.613 -0.3308  0.4395  1.3588
 7504TIP3    H243928   5.392   5.458  15.539  0.2921 -0.5958 -0.1417
 7505TIP3   OH243929   3.207   5.675   0.029 -0.7715 -0.0441 -0.4287
 7505TIP3    H143930   3.297   5.707   0.026 -0.4026 -1.0683 -0.8668
 7505TIP3    H243931   3.207   5.609   0.098 -0.8917 -0.8524 -1.1814
 7506TIP3   OH243932   4.017   5.242  15.285 -0.1413  0.2112 -0.6042
 7506TIP3    H143933   3.969   5.211  15.362 -0.0102  1.3295 -0.0474
 7506TIP3    H243934   4.100   5.195  15.287 -0.9601 -1.3084 -1.2462
 7507TIP3   OH243935   2.162   4.062  11.956 -0.6430  0.7696 -0.7106
 7507TIP3    H143936   2.143   4.000  12.026 -0.1582  0.1327 -1.1352
 7507TIP3    H243937   2.111   4.031  11.881 -2.6856  2.5244 -0.1517
 7508TIP3   OH243938   4.727   5.787  14.711  0.2163  0.2847 -0.1179
 7508TIP3    H143939   4.666   5.825  14.647 -1.7044 -3.0011 -0.4604
 7508TIP3    H243940   4.677   5.786  14.794 -0.0510 -1.8072 -0.2437
 7509TIP3   OH243941   2.102   5.739  14.413  0.1646 -0.7074 -0.1368
 7509TIP3    H143942   2.059   5.674  14.357  0.4961 -0.5812 -0.5482
 7509TIP3    H243943   2.195   5.720  14.404  0.2402 -0.4390  0.0740
 7510TIP3   OH243944   4.180   5.030  13.293 -0.2856 -0.1937 -0.0527
 7510TIP3    H143945   4.171   5.030  13.388  0.0164 -0.7125 -0.0229
 7510TIP3    H243946   4.095   5.061  13.261 -1.2015 -2.1685  0.3028
 7511TIP3   OH243947   5.841   5.891   1.207  0.1433 -0.3969 -0.3517
 7511TIP3    H143948   5.761   5.910   1.157  0.1683 -0.7074 -0.5137
 7511TIP3    H243949   5.837   5.797   1.224  0.4872 -0.4179 -0.3786
 7512TIP3   OH243950   6.278   6.693   2.452 -0.4650 -0.0795  0.4692
 7512TIP3    H143951   6.200   6.701   2.397  0.0093  0.2591 -0.1615
 7512TIP3    H243952   6.259   6.619   2.509 -2.1904  1.3339  1.8727
 7513TIP3   OH243953   3.949   5.230  12.027  1.0871  0.4233 -0.4035
 7513TIP3    H143954   3.982   5.192  11.945  1.7891 -0.8004  0.4165
 7513TIP3    H243955   3.927   5.154  12.081 -0.8735  1.1979 -0.0090
 7514TIP3   OH243956   0.915   0.844  13.338  0.8163 -0.0692  0.0858
 7514TIP3    H143957   0.887   0.907  13.271  1.4107 -1.2920 -1.3632
 7514TIP3    H243958   1.007   0.865  13.354  0.4327  0.8194  1.2464
 7515TIP3   OH243959   6.761   1.536  12.665  0.7279 -0.1678  0.4721
 7515TIP3    H143960   6.666   1.529  12.669  0.7467 -1.1218 -0.4485
 7515TIP3    H243961   6.779   1.627  12.690 -0.5382  0.5160 -0.9767
 7516TIP3   OH243962   0.725   3.341   2.465  0.1594  0.4955 -0.4326
 7516TIP3    H143963   0.819   3.343   2.451  0.3466  0.1223  0.6777
 7516TIP3    H243964   0.693   3.274   2.404  0.6894  0.2191 -0.4150
 7517TIP3   OH243965   0.453   0.677  16.452  0.0430 -0.4274 -0.1039
 7517TIP3    H143966   0.438   0.595  16.405  0.1994 -1.1055  0.9828
 7517TIP3    H243967   0.394   0.672  16.528  0.9773 -0.1309  0.6656
 7518TIP3   OH243968   4.767   6.577  16.229  0.2035 -0.3698 -0.6860
 7518TIP3    H143969   4.851   6.533  16.244  0.1947 -0.3706 -0.6396
 7518TIP3    H243970   4.761   6.640  16.300  0.0292 -0.5662 -0.5275
 7519TIP3   OH243971   0.906   2.209  14.211  0.2602  0.2019 -0.3100
 7519TIP3    H143972   0.964   2.160  14.153 -0.4178 -0.1990 -0.6642
 7519TIP3    H243973   0.879   2.284  14.159 -0.2691 -0.1051 -0.4884
 7520TIP3   OH243974   6.112   5.079  14.706 -0.1356  0.3098 -0.1728
 7520TIP3    H143975   6.069   5.078  14.620 -0.8121 -0.7968  0.1600
 7520TIP3    H243976   6.045   5.111  14.766  0.1368  0.4806  0.0404
 7521TIP3   OH243977   6.586   5.077  11.393  0.1054 -0.3473 -0.2769
 7521TIP3    H143978   6.629   5.006  11.441 -1.4686 -2.2649 -1.5353
 7521TIP3    H243979   6.657   5.133  11.363  1.4485 -1.6140  0.4367
 7522TIP3   OH243980   2.965   3.913   5.655 -0.0452  0.1729 -0.5244
 7522TIP3    H143981   2.924   3.838   5.698 -1.0988  1.3459  0.6005
 7522TIP3    H243982   3.050   3.923   5.698 -0.3631  0.2741  0.0899
 7523TIP3   OH243983   3.149   5.253  16.987 -0.4050  0.3508 -0.5273
 7523TIP3    H143984   3.164   5.202  16.907 -1.9280  1.7135 -1.7620
 7523TIP3    H243985   3.124   5.189  17.053  0.1449 -0.7329 -1.3333
 7524TIP3   OH243986   2.842   4.168  16.432 -0.1582 -0.1168 -0.1016
 7524TIP3    H143987   2.838   4.243  16.372  0.1836  0.4270  0.5382
 7524TIP3    H243988   2.819   4.093  16.378 -1.5657  0.5791 -0.5190
 7525TIP3   OH243989   5.953   6.612   1.872  0.0722 -0.0570 -0.0795
 7525TIP3    H143990   5.881   6.657   1.916  0.1047 -1.1088  1.1051
 7525TIP3    H243991   5.939   6.519   1.891  0.8111 -0.4390 -1.2486
 7526TIP3   OH243992   0.153   2.863  17.109  0.0354 -0.6291 -0.3691
 7526TIP3    H143993   0.092   2.825  17.172 -1.6990 -1.1868 -2.2863
 7526TIP3    H243994   0.228   2.804  17.109 -0.5384 -1.3747  0.1931
 7527TIP3   OH243995   5.016   1.582  11.371 -0.0975 -0.0479 -0.4298
 7527TIP3    H143996   5.027   1.543  11.458  2.0470  2.5989  0.6395
 7527TIP3    H243997   5.059   1.521  11.312 -1.8456 -2.0477  0.2416
 7528TIP3   OH243998   0.206   2.927   1.042 -0.5471  0.3455  0.8972
 7528TIP3    H143999   0.160   3.004   1.074 -1.0468  0.2093  0.5197
 7528TIP3    H244000   0.295   2.937   1.075 -1.2741 -0.3297  3.2229
 7529TIP3   OH244001   4.499   3.419   2.242  0.5047 -0.3920 -0.1856
 7529TIP3    H144002   4.594   3.428   2.252  0.8781 -2.6216 -1.0957
 7529TIP3    H244003   4.484   3.433   2.148 -0.0165 -0.4843 -0.1186
 7530TIP3   OH244004   2.326   2.602  12.913  0.3656 -0.6207 -0.1266
 7530TIP3    H144005   2.268   2.548  12.965 -0.1650  0.1065  0.0542
 7530TIP3    H244006   2.288   2.601  12.825  0.3967 -0.6148 -0.1407
 7531TIP3   OH244007   1.951   5.354   1.167 -0.4494  0.1523 -0.0708
 7531TIP3    H144008   2.033   5.404   1.165  0.2136 -0.9385 -0.7287
 7531TIP3    H244009   1.968   5.278   1.113 -2.2937  0.4868 -1.2036
 7532TIP3   OH244010   5.847   6.586   3.542  0.0422 -0.0973  0.0229
 7532TIP3    H144011   5.873   6.677   3.524 -0.0454  0.5094  2.6555
 7532TIP3    H244012   5.924   6.546   3.580 -0.5897 -0.4748  0.9270
 7533TIP3   OH244013   3.564   3.034   4.040 -0.6514  0.0393  0.2515
 7533TIP3    H144014   3.610   2.987   3.971 -0.6601  1.5789 -0.8338
 7533TIP3    H244015   3.491   2.976   4.064 -0.9004 -0.3263 -1.3200
 7534TIP3   OH244016   4.471   4.005   6.503 -0.4965  0.8206 -0.5680
 7534TIP3    H144017   4.446   3.987   6.594  1.2866 -0.1605 -0.2141
 7534TIP3    H244018   4.445   4.096   6.488  2.2694  2.2417  2.1324
 7535TIP3   OH244019   5.562   2.079  11.961  0.5426 -0.0008 -0.4469
 7535TIP3    H144020   5.581   1.988  11.939  0.5607  0.0482 -0.6333
 7535TIP3    H244021   5.599   2.091  12.048 -2.1655 -1.0748  0.9920
 7536TIP3   OH244022   5.183   2.248   0.560  0.4282  0.7935 -0.2746
 7536TIP3    H144023   5.123   2.177   0.537 -1.0785  1.3450  1.6304
 7536TIP3    H244024   5.171   2.260   0.655  2.6503  1.7965 -0.0418
 7537TIP3   OH244025   3.252   2.672   0.097  0.0676  0.1535 -0.0371
 7537TIP3    H144026   3.294   2.648   0.180  0.4056  1.2355  0.1189
 7537TIP3    H244027   3.262   2.767   0.091 -2.5388  0.5190  0.1013
 7538TIP3   OH244028   5.046   4.771   0.743 -0.5267 -0.2085  0.1095
 7538TIP3    H144029   5.110   4.814   0.798  0.5754 -1.5975 -0.0423
 7538TIP3    H244030   4.963   4.814   0.764 -0.1305 -0.6159  2.7592
 7539TIP3   OH244031   0.426   3.876  12.527  0.0817  0.0052  0.0809
 7539TIP3    H144032   0.352   3.936  12.528 -1.9553 -2.3698 -0.6231
 7539TIP3    H244033   0.390   3.791  12.551  2.5924 -1.2681 -0.2386
 7540TIP3   OH244034   5.740   2.372   0.979 -0.6889  0.1040  1.0043
 7540TIP3    H144035   5.786   2.343   1.058  0.8803  0.8705  0.4198
 7540TIP3    H244036   5.786   2.329   0.907 -1.7806 -0.1835  0.4629
 7541TIP3   OH244037   1.017   0.751   4.971  0.4544  0.3718 -0.0015
 7541TIP3    H144038   0.932   0.772   4.933 -0.5718 -1.8145  0.8870
 7541TIP3    H244039   1.042   0.668   4.930  1.2670  0.0482  1.0833
 7542TIP3   OH244040   3.293   0.436  14.158  0.3252 -0.1786 -0.0301
 7542TIP3    H144041   3.201   0.462  14.167  0.2409 -0.2582 -0.5865
 7542TIP3    H244042   3.291   0.340  14.159  0.0140 -0.3036 -3.0514
 7543TIP3   OH244043   4.515   6.682   1.529 -0.5104  0.4247  0.5956
 7543TIP3    H144044   4.450   6.635   1.476 -2.2131  0.7991  2.2465
 7543TIP3    H244045   4.589   6.622   1.535 -1.3861 -0.7386  0.0970
 7544TIP3   OH244046   1.129   0.638  14.837  0.2334  0.5186  0.1698
 7544TIP3    H144047   1.193   0.618  14.768  0.6236 -0.5773  0.8204
 7544TIP3    H244048   1.101   0.728  14.818  1.8082  0.9557 -0.2521
 7545TIP3   OH244049   0.516   3.049  15.684 -0.0847  0.0134  0.5247
 7545TIP3    H144050   0.482   2.984  15.746 -0.6047  0.7786  1.0609
 7545TIP3    H244051   0.561   3.114  15.739  1.7207 -0.6201 -0.1096
 7546TIP3   OH244052   4.386   5.423  15.492  0.9219  0.1570  0.0877
 7546TIP3    H144053   4.292   5.414  15.511  0.7909 -1.5954 -1.1469
 7546TIP3    H244054   4.389   5.481  15.416  0.9147  0.9981  0.7235
 7547TIP3   OH244055   1.479   2.754  11.029  0.4924 -0.4508  0.0918
 7547TIP3    H144056   1.504   2.703  10.952  1.5945 -1.6713  1.1964
 7547TIP3    H244057   1.470   2.688  11.099  0.9106  0.7567  1.3185
 7548TIP3   OH244058   1.100   3.539  16.204 -0.4480  0.6558 -0.2615
 7548TIP3    H144059   1.169   3.591  16.244  0.0409 -0.4692  0.3937
 7548TIP3    H244060   1.038   3.522  16.275 -1.1421  1.1967 -0.7160
 7549TIP3   OH244061   0.075   2.719  12.714  0.0315 -0.2025 -0.0077
 7549TIP3    H144062   0.148   2.673  12.674  0.2720  0.5160 -0.4231
 7549TIP3    H244063   0.014   2.737  12.642  0.0308  0.2810  0.1047
 7550TIP3   OH244064   0.039   4.478  16.259  0.0526  0.2146 -0.5128
 7550TIP3    H144065  -0.027   4.522  16.205  1.3544  0.6982 -1.7816
 7550TIP3    H244066   0.018   4.385  16.251  0.6763  0.1921 -2.5771
 7551TIP3   OH244067   5.852   2.437  16.971  0.2427  0.1197  0.4737
 7551TIP3    H144068   5.796   2.446  16.894  2.2092  2.1211 -0.8496
 7551TIP3    H244069   5.938   2.467  16.942  1.7368 -1.6104  2.7572
 7552TIP3   OH244070   0.208   5.918   2.058  0.7203  0.0424 -0.8307
 7552TIP3    H144071   0.271   5.895   2.126  1.1456  0.2797 -1.1429
 7552TIP3    H244072   0.162   5.836   2.040 -0.6818  0.3618  1.0398
 7553TIP3   OH244073   6.225   3.836   0.014 -0.5435 -1.1587  0.5321
 7553TIP3    H144074   6.230   3.793   0.100  1.0690  0.5737  1.3699
 7553TIP3    H244075   6.311   3.823  -0.024 -0.2709  0.6036  0.4756
 7554TIP3   OH244076   3.573   3.370   2.071  0.5251  0.3792  0.1575
 7554TIP3    H144077   3.585   3.290   2.021 -0.2126 -0.6102  1.4847
 7554TIP3    H244078   3.494   3.411   2.035  1.3151  0.9385 -1.0141
 7555TIP3   OH244079   4.739   3.484  11.000  0.1711 -0.1340  0.7581
 7555TIP3    H144080   4.798   3.545  11.044  1.3137 -1.2042  0.7553
 7555TIP3    H244081   4.726   3.413  11.063  0.0928 -0.6310  0.1941
 7556TIP3   OH244082   1.804   2.156   2.324  0.4285  0.4594 -0.3189
 7556TIP3    H144083   1.819   2.165   2.418  2.6800 -0.3638 -0.5421
 7556TIP3    H244084   1.710   2.140   2.316  0.4890 -1.6474  1.9900
 7557TIP3   OH244085   6.365   3.005   1.406  0.4106 -0.0326  0.1547
 7557TIP3    H144086   6.407   2.921   1.426 -0.3469 -0.3231  0.5388
 7557TIP3    H244087   6.272   2.988   1.413  0.2529  1.1819  1.7008
 7558TIP3   OH244088   0.003   1.862   5.878 -1.0692 -0.6798  0.1976
 7558TIP3    H144089   0.019   1.768   5.870  0.9596 -0.2700 -1.4226
 7558TIP3    H244090   0.065   1.890   5.946 -1.0014 -0.3852  0.0148
 7559TIP3   OH244091   0.548   4.202  14.006 -0.0666  0.3465 -0.3155
 7559TIP3    H144092   0.467   4.223  14.052 -0.3061  0.8734 -0.9723
 7559TIP3    H244093   0.520   4.145  13.934 -0.1588  2.0879 -1.7375
 7560TIP3   OH244094   4.558   2.719  17.226  0.3793 -0.1262  0.0828
 7560TIP3    H144095   4.481   2.749  17.177  1.3013  0.3497 -1.1158
 7560TIP3    H244096   4.565   2.781  17.299  1.0345  1.3745 -1.1989
 7561TIP3   OH244097   0.503   1.922   1.682  0.1176 -0.0567  0.2839
 7561TIP3    H144098   0.430   1.935   1.621  1.3635  0.9498 -1.0779
 7561TIP3    H244099   0.580   1.955   1.634  1.1538  0.8748  2.4408
 7562TIP3   OH244100   3.328   2.686  16.553  0.2959 -0.0885  0.2477
 7562TIP3    H144101   3.248   2.678  16.604  0.4458  0.5231  0.5867
 7562TIP3    H244102   3.308   2.642  16.470  0.1117 -1.2362  0.8811
 7563TIP3   OH244103   2.262   6.168  12.205 -0.2897 -0.3546 -0.4196
 7563TIP3    H144104   2.307   6.122  12.276 -0.0944  1.9909  1.0752
 7563TIP3    H244105   2.316   6.151  12.128  0.4412 -1.5728  0.3267
 7564TIP3   OH244106   4.718   2.842   4.486 -0.3640 -0.0250 -0.2679
 7564TIP3    H144107   4.651   2.852   4.418  0.4741  1.7736 -0.8955
 7564TIP3    H244108   4.756   2.756   4.469 -0.3207  0.2925 -1.9924
 7565TIP3   OH244109   3.908   1.733   5.906  0.3766 -0.8307  0.2531
 7565TIP3    H144110   3.883   1.695   5.990  0.2350 -2.3218 -0.4322
 7565TIP3    H244111   3.922   1.826   5.925 -0.2089 -1.0275  1.7933
 7566TIP3   OH244112   1.680   0.371   4.492  1.2596 -0.2945 -0.1600
 7566TIP3    H144113   1.734   0.333   4.423  1.3446  0.9342 -0.7874
 7566TIP3    H244114   1.709   0.326   4.572 -0.2153 -3.1889 -1.1275
 7567TIP3   OH244115   0.172   4.143   6.497 -0.3260  0.0909 -0.0658
 7567TIP3    H144116   0.237   4.159   6.566  1.5857 -2.4690 -1.1130
 7567TIP3    H244117   0.152   4.229   6.463  1.0593  1.1531  1.6010
 7568TIP3   OH244118   6.249   5.964   5.825  0.0587 -0.0072  0.5075
 7568TIP3    H144119   6.164   6.008   5.829 -0.7672 -1.6517  2.4475
 7568TIP3    H244120   6.228   5.872   5.812  1.4727 -0.6024  2.1771
 7569TIP3   OH244121   6.169   3.652  16.649  0.2437 -0.4570  0.0346
 7569TIP3    H144122   6.095   3.621  16.700  1.3088 -0.9566  1.3395
 7569TIP3    H244123   6.211   3.718  16.704  0.0909  0.7237 -1.2023
 7570TIP3   OH244124   3.128   3.503  15.755  0.0639 -0.8421  0.1069
 7570TIP3    H144125   3.165   3.469  15.836 -0.6091 -1.2601  0.2518
 7570TIP3    H244126   3.035   3.478  15.759 -0.0504 -0.5671 -0.6307
 7571TIP3   OH244127   2.688   1.991  15.888  0.4979 -0.2184 -0.0215
 7571TIP3    H144128   2.609   1.976  15.939 -0.9277 -0.9428 -2.2686
 7571TIP3    H244129   2.684   2.083  15.864 -1.0850 -0.7747 -2.1888
 7572TIP3   OH244130   4.895   5.060   2.023 -0.7731  0.4066  0.0537
 7572TIP3    H144131   4.915   5.115   1.947 -0.4944  1.0040  0.5411
 7572TIP3    H244132   4.981   5.035   2.057 -0.8988 -0.0227  0.0509
 7573TIP3   OH244133   4.077   4.641  16.137 -0.0376  0.3005  0.9699
 7573TIP3    H144134   4.056   4.715  16.081 -0.1357 -1.1157 -0.9606
 7573TIP3    H244135   4.036   4.566  16.094 -1.0361 -0.7411  3.5182
 7574TIP3   OH244136   6.747   1.675   2.068 -0.0298  0.1008 -0.7013
 7574TIP3    H144137   6.790   1.723   2.140  1.0058  0.6428 -1.6491
 7574TIP3    H244138   6.663   1.719   2.056 -0.4273 -0.2904  0.4692
 7575TIP3   OH244139   5.414   5.070  14.297  0.1460  0.2691  0.2025
 7575TIP3    H144140   5.321   5.086  14.282 -0.0118 -0.3149  0.5259
 7575TIP3    H244141   5.421   4.975  14.303  0.9393  0.2368 -0.9359
 7576TIP3   OH244142   4.995   1.683  15.899  0.3358  1.1240  0.5638
 7576TIP3    H144143   5.075   1.631  15.891  0.0418  0.5674  1.1385
 7576TIP3    H244144   4.966   1.669  15.990 -0.9018  0.5962  0.1131
 7577TIP3   OH244145   5.566   1.505   3.933  0.2122  0.0830  0.0474
 7577TIP3    H144146   5.638   1.482   3.874 -0.3904  0.0312 -0.6815
 7577TIP3    H244147   5.561   1.432   3.994  0.1575 -0.3655 -0.4883
 7578TIP3   OH244148   5.656   1.730   5.450  0.5399 -0.3925 -0.6014
 7578TIP3    H144149   5.674   1.812   5.403 -1.2176  0.5026  0.2010
 7578TIP3    H244150   5.606   1.678   5.387  0.6989 -0.3906 -0.7306
 7579TIP3   OH244151   1.663   3.112  16.286  0.2080 -0.1715 -0.2368
 7579TIP3    H144152   1.755   3.117  16.260  1.0614 -3.2839  1.6514
 7579TIP3    H244153   1.617   3.083  16.208  1.0863 -0.0189 -0.8203
 7580TIP3   OH244154   3.798   5.597   0.298 -0.4068  0.5812 -0.9875
 7580TIP3    H144155   3.710   5.629   0.317  0.6693  2.7757  0.6686
 7580TIP3    H244156   3.785   5.506   0.271 -3.0759  0.5380  0.1484
 7581TIP3   OH244157   0.089   4.259  15.627 -0.0819  0.4863 -0.3777
 7581TIP3    H144158   0.185   4.255  15.627 -0.0831 -1.1852  1.4086
 7581TIP3    H244159   0.064   4.227  15.541  0.9608 -0.6242 -0.2925
 7582TIP3   OH244160   4.329   1.647  14.742  0.2638 -0.4454  0.3311
 7582TIP3    H144161   4.412   1.599  14.734  0.1082 -1.1810  2.5246
 7582TIP3    H244162   4.270   1.602  14.681  1.1003 -0.7870 -0.2456
 7583TIP3   OH244163   0.998   0.225   4.237 -0.3897  0.1490  0.2907
 7583TIP3    H144164   1.065   0.268   4.291  1.5120 -0.6854 -1.2947
 7583TIP3    H244165   1.004   0.268   4.152  1.0672 -2.5974 -1.1284
 7584TIP3   OH244166   6.296   2.219   2.726  0.4938  0.2482 -0.0604
 7584TIP3    H144167   6.315   2.258   2.641  0.7905 -0.8277 -0.4969
 7584TIP3    H244168   6.228   2.154   2.708  1.2062 -0.6284  0.3708
 7585TIP3   OH244169   4.128   5.969   0.223  0.3881 -0.2252  0.0657
 7585TIP3    H144170   4.062   5.987   0.156 -1.2291 -0.4749  1.5455
 7585TIP3    H244171   4.134   6.050   0.274  2.5353  0.4082 -1.0694
 7586TIP3   OH244172   5.003   1.818   6.676 -0.2610  0.5271 -0.6096
 7586TIP3    H144173   5.032   1.794   6.764  1.6647  0.9171 -1.1023
 7586TIP3    H244174   5.034   1.748   6.619  0.6424  1.4587 -1.2986
 7587TIP3   OH244175   5.001   6.441   1.174  0.0324  0.0436  0.3850
 7587TIP3    H144176   4.974   6.386   1.247  0.2764  0.0759  0.5009
 7587TIP3    H244177   4.936   6.511   1.170 -0.3484 -0.3151  0.1638
 7588TIP3   OH244178   0.707   3.316   6.313  0.3753  0.1759  0.0336
 7588TIP3    H144179   0.769   3.368   6.364  0.5731 -0.2126  0.1861
 7588TIP3    H244180   0.622   3.359   6.328  0.7207  1.2342 -0.8512
 7589TIP3   OH244181   1.249   2.323   5.397  0.7679 -0.9879 -0.0046
 7589TIP3    H144182   1.255   2.286   5.309  3.4431  0.1965 -0.4149
 7589TIP3    H244183   1.336   2.310   5.435  1.2474  2.8017  0.6035
 7590TIP3   OH244184   3.017   3.671   3.731 -0.1063 -0.5036  0.2533
 7590TIP3    H144185   2.942   3.731   3.739 -0.4520 -1.1198  2.1647
 7590TIP3    H244186   2.983   3.598   3.679  0.2750  0.8094 -1.9715
 7591TIP3   OH244187   6.090   3.467  15.223 -0.0255  0.2130 -0.3025
 7591TIP3    H144188   6.104   3.510  15.307 -1.2883  0.5701 -0.2613
 7591TIP3    H244189   6.179   3.454  15.188  0.6252 -1.5254  1.8410
 7592TIP3   OH244190   6.549   1.406   3.554 -0.4453  0.1270  0.6769
 7592TIP3    H144191   6.536   1.325   3.506  0.7648 -0.3951  1.2002
 7592TIP3    H244192   6.643   1.411   3.568 -0.6933  0.5899  2.4176
 7593TIP3   OH244193   2.589   3.055   5.041 -0.1309 -0.2212 -0.4386
 7593TIP3    H144194   2.546   3.111   4.977 -0.6708 -0.2768 -0.1264
 7593TIP3    H244195   2.563   2.966   5.016 -2.1757 -0.1381  1.1502
 7594TIP3   OH244196   2.078   3.762   4.125 -0.5068 -0.5510 -0.1388
 7594TIP3    H144197   2.089   3.667   4.135 -2.6152 -0.7645  0.6529
 7594TIP3    H244198   2.046   3.773   4.035 -0.6766 -0.6393 -0.0900
 7595TIP3   OH244199   1.304   3.634   1.967 -0.6991 -0.5385  0.2197
 7595TIP3    H144200   1.360   3.694   1.917  0.5788 -1.6388  0.2884
 7595TIP3    H244201   1.220   3.637   1.922 -0.5072  0.9123 -0.0757
 7596TIP3   OH244202   6.457   0.541   1.653 -0.4140  0.8882 -0.3742
 7596TIP3    H144203   6.399   0.611   1.623 -0.4250  1.2909  0.5656
 7596TIP3    H244204   6.399   0.466   1.665 -0.3954  0.6837 -1.4249
 7597TIP3   OH244205   0.156   2.839   4.531  0.8523  0.5154 -0.0732
 7597TIP3    H144206   0.181   2.808   4.618  0.2360  2.5701  0.9162
 7597TIP3    H244207   0.066   2.870   4.542  0.5603  0.2836 -1.6066
 7598TIP3   OH244208   6.525   4.311   5.711 -0.0420 -0.3291 -0.4240
 7598TIP3    H144209   6.441   4.345   5.740  0.2981 -0.9986  1.5185
 7598TIP3    H244210   6.531   4.336   5.619 -1.5771  1.2436 -0.1447
 7599TIP3   OH244211   2.892   6.200  16.413 -0.4748 -0.9118  0.4223
 7599TIP3    H144212   2.909   6.124  16.357  2.8515  1.0910 -1.6813
 7599TIP3    H244213   2.825   6.250  16.366 -0.0392 -0.8342 -0.1385
 7600TIP3   OH244214   0.990   0.468   2.991  0.0480 -0.0452  0.5658
 7600TIP3    H144215   1.042   0.407   3.043 -1.7025 -0.9494  1.3581
 7600TIP3    H244216   0.900   0.437   3.002 -0.8458  2.3497  0.5135
 7601TIP3   OH244217   2.430   0.109  14.583  0.0293 -0.2508  0.1927
 7601TIP3    H144218   2.492   0.106  14.657  2.0578 -0.8221 -1.4346
 7601TIP3    H244219   2.346   0.086  14.622  1.2937 -2.1148  2.0823
 7602TIP3   OH244220   2.659   1.810  12.954  0.1061  0.3418  0.2861
 7602TIP3    H144221   2.685   1.727  12.995  1.1294  0.1724 -0.6554
 7602TIP3    H244222   2.739   1.863  12.953  0.0704  0.4329 -1.2043
 7603TIP3   OH244223   0.125   1.634   5.250  0.0736 -0.0379  0.1116
 7603TIP3    H144224   0.063   1.639   5.323  0.6154  1.5937  0.5094
 7603TIP3    H244225   0.205   1.598   5.289 -0.2935 -1.2331 -0.1910
 7604TIP3   OH244226   3.156   6.642   4.269  0.1372 -0.3843 -0.9636
 7604TIP3    H144227   3.102   6.720   4.280  0.9697  0.2483 -1.2839
 7604TIP3    H244228   3.152   6.598   4.354 -2.1659 -1.2195 -1.4423
 7605TIP3   OH244229   5.055   0.662   2.920  0.3711  0.1988  0.4477
 7605TIP3    H144230   4.999   0.606   2.866  1.1143  0.9644 -1.1793
 7605TIP3    H244231   5.021   0.650   3.009 -1.9928  0.1567 -0.3705
 7606TIP3   OH244232   1.372   2.273  16.793 -0.2015  0.6760 -0.5203
 7606TIP3    H144233   1.393   2.301  16.704 -1.1645  1.1938 -0.5933
 7606TIP3    H244234   1.380   2.352  16.845 -0.8684  0.6455 -0.3645
 7607TIP3   OH244235   4.939   4.504  14.949 -0.2031  0.1851 -0.1838
 7607TIP3    H144236   4.960   4.585  14.902 -1.4470  2.1947  2.4142
 7607TIP3    H244237   5.019   4.482  14.997  0.1943 -0.2306 -1.0346
 7608TIP3   OH244238   4.148   1.222   1.533  0.3234  0.1563 -0.0263
 7608TIP3    H144239   4.204   1.247   1.606  0.3072  0.3946 -0.0936
 7608TIP3    H244240   4.109   1.139   1.559 -3.3639  2.3537  2.2968
 7609TIP3   OH244241   2.886   1.094   1.438  0.4600  0.2301  0.0804
 7609TIP3    H144242   2.981   1.105   1.427  0.5670  0.5087  1.2057
 7609TIP3    H244243   2.877   1.044   1.519 -0.3248 -1.0793 -0.7742
 7610TIP3   OH244244   0.978   3.342   2.322  0.5458 -0.0303  0.2446
 7610TIP3    H144245   1.065   3.379   2.338 -0.2844  2.6567 -0.9527
 7610TIP3    H244246   0.921   3.418   2.312 -1.9603 -1.7180  0.8581
 7611TIP3   OH244247   4.908   5.133   2.477 -0.4129 -0.2608  0.0287
 7611TIP3    H144248   4.890   5.210   2.530 -1.2704 -0.4155 -0.0247
 7611TIP3    H244249   4.909   5.165   2.386 -2.4093 -0.5513 -0.1445
 7612TIP3   OH244250   2.591   3.834  15.132 -0.2323 -0.1455  0.1442
 7612TIP3    H144251   2.597   3.921  15.091 -0.0937 -0.3931 -0.3753
 7612TIP3    H244252   2.554   3.778  15.063 -1.2885 -0.2843  0.8057
 7613TIP3   OH244253   1.651   3.684  16.245  0.2730  0.0895  0.2498
 7613TIP3    H144254   1.572   3.674  16.193  0.4482 -0.8992  0.1467
 7613TIP3    H244255   1.677   3.594  16.267  2.0935  0.2975 -0.8166
 7614TIP3   OH244256   0.472   5.684   5.639 -0.5178 -0.7079  0.4310
 7614TIP3    H144257   0.480   5.728   5.723  0.4293 -0.0559  0.0276
 7614TIP3    H244258   0.485   5.591   5.659  2.3106 -0.3509  0.7418
 7615TIP3   OH244259   3.964   3.330   4.925  0.6795  0.0971 -0.1691
 7615TIP3    H144260   3.986   3.323   5.018  1.2404 -0.9226 -0.3557
 7615TIP3    H244261   4.049   3.335   4.881  0.4329  0.0447 -0.6560
 7616TIP3   OH244262   1.718   5.126  12.608 -0.6221  0.4669 -0.3488
 7616TIP3    H144263   1.641   5.098  12.558 -0.8463  1.8112 -0.7951
 7616TIP3    H244264   1.688   5.127  12.699 -0.5396 -0.9013 -0.2825
 7617TIP3   OH244265   1.911   2.067  12.714 -0.3647 -0.1651 -0.0170
 7617TIP3    H144266   1.932   2.083  12.623 -0.2434 -0.6272 -0.0764
 7617TIP3    H244267   1.822   2.101  12.725  0.0328  0.9038 -0.0174
 7618TIP3   OH244268   6.184   5.054   5.535 -0.1782  0.4314  0.3608
 7618TIP3    H144269   6.166   5.100   5.453  0.7226 -0.1664 -0.1815
 7618TIP3    H244270   6.267   5.010   5.521 -0.3049 -0.1781  1.3870
 7619TIP3   OH244271   6.404   5.314   3.291  0.1008  0.8654  0.4544
 7619TIP3    H144272   6.311   5.298   3.303  0.1543  1.0889  1.1973
 7619TIP3    H244273   6.416   5.313   3.196 -0.7109  1.1296  0.3401
 7620TIP3   OH244274   5.175   1.060  13.049  0.5439 -0.2624  0.0295
 7620TIP3    H144275   5.193   1.154  13.058 -1.0686  0.3670 -2.4427
 7620TIP3    H244276   5.259   1.022  13.024  0.9788  0.6800 -0.0061
 7621TIP3   OH244277   0.100   5.439   4.763  0.3767 -0.0433 -0.0324
 7621TIP3    H144278   0.091   5.534   4.769  1.7362  0.0452  1.1611
 7621TIP3    H244279   0.111   5.422   4.669 -1.9445  0.7091 -0.5255
 7622TIP3   OH244280   2.529   1.919   0.782  0.3406  0.6394 -0.1610
 7622TIP3    H144281   2.611   1.922   0.831  0.6318  2.2988 -0.6898
 7622TIP3    H244282   2.495   2.008   0.787 -0.9589  0.1964 -0.7508
 7623TIP3   OH244283   4.699   0.184  12.068  0.3725 -0.4769 -0.6715
 7623TIP3    H144284   4.679   0.116  12.004 -0.9788 -0.7809  0.0449
 7623TIP3    H244285   4.768   0.236  12.027 -0.6824 -0.4544 -2.5414
 7624TIP3   OH244286   3.889   6.001   2.046  0.3535  0.3836 -0.4633
 7624TIP3    H144287   3.931   5.915   2.056  0.2522  0.4469  0.6226
 7624TIP3    H244288   3.798   5.986   2.071  0.1926  0.6861 -0.8529
 7625TIP3   OH244289   1.454   1.378   1.585 -0.5071  0.0469  0.0519
 7625TIP3    H144290   1.549   1.385   1.594 -0.0106 -3.5536 -1.0869
 7625TIP3    H244291   1.439   1.368   1.491 -2.1767  1.5001  0.1062
 7626TIP3   OH244292   1.253   5.518  13.345  0.3843 -0.2063  0.4901
 7626TIP3    H144293   1.340   5.556  13.335  0.3066 -0.2283 -0.3785
 7626TIP3    H244294   1.224   5.501  13.255 -1.1305  1.1898  0.6622
 7627TIP3   OH244295   1.606   3.111   4.278 -0.5358 -0.4565  0.3669
 7627TIP3    H144296   1.534   3.168   4.252 -0.2027 -1.1625 -2.3688
 7627TIP3    H244297   1.678   3.135   4.220  0.1285 -2.5085  0.2563
 7628TIP3   OH244298   1.768   2.082  13.689  0.0996  0.0366  0.1415
 7628TIP3    H144299   1.735   2.143  13.623  0.6749 -0.5741 -0.7443
 7628TIP3    H244300   1.700   2.079  13.755 -0.8652  0.0791 -0.8195
 7629TIP3   OH244301   3.015   3.929   3.929 -0.0921 -0.0648  0.1627
 7629TIP3    H144302   2.964   3.849   3.916  0.4363 -0.2920 -0.5729
 7629TIP3    H244303   3.106   3.901   3.920  0.0969  0.6214 -0.1422
 7630TIP3   OH244304   4.614   2.820  13.137 -0.6399 -0.8842  0.1038
 7630TIP3    H144305   4.532   2.824  13.088 -0.7585  1.5768  0.3926
 7630TIP3    H244306   4.673   2.879  13.090  0.4384 -1.3627  0.8244
 7631TIP3   OH244307   0.369   6.716   6.073  0.4656  0.8213  0.0501
 7631TIP3    H144308   0.362   6.762   6.157 -1.8358  0.2911  0.2072
 7631TIP3    H244309   0.358   6.785   6.008  1.7543  1.1605  0.1707
 7632TIP3   OH244310   1.646   2.662  17.382  0.5595  0.4409  0.7384
 7632TIP3    H144311   1.660   2.577  17.424 -0.0198 -0.2086 -0.3270
 7632TIP3    H244312   1.732   2.685  17.345  0.1023 -1.1562 -1.5411
 7633TIP3   OH244313   2.637   1.639  11.811 -0.7593  0.6278 -0.7181
 7633TIP3    H144314   2.671   1.558  11.774 -1.2220  0.2760 -0.3912
 7633TIP3    H244315   2.582   1.610  11.884  2.0302  1.3644  1.8794
 7634TIP3   OH244316   6.585   6.191   2.737 -0.2157 -0.1044 -0.2442
 7634TIP3    H144317   6.651   6.135   2.778  0.2959 -0.2920 -1.2885
 7634TIP3    H244318   6.578   6.158   2.648 -1.1839  0.3993 -0.3661
 7635TIP3   OH244319   1.398   4.665  16.188  0.0644  0.1632 -0.0075
 7635TIP3    H144320   1.352   4.727  16.131 -2.3493 -1.6985 -0.2356
 7635TIP3    H244321   1.416   4.589  16.132  0.6402 -0.3933  0.8957
 7636TIP3   OH244322   1.444   5.307   2.655 -0.1849 -0.5999  0.1137
 7636TIP3    H144323   1.399   5.376   2.606  0.6689 -0.2557 -0.2038
 7636TIP3    H244324   1.373   5.252   2.689 -0.8332 -0.6678 -1.2427
 7637TIP3   OH244325   1.963   5.357  12.330  0.1513  0.4617  0.7377
 7637TIP3    H144326   1.948   5.359  12.425 -0.7224  1.5130  0.6024
 7637TIP3    H244327   1.922   5.276  12.301  1.0631 -0.2338  1.3428
 7638TIP3   OH244328   1.321   4.105   1.295 -0.0967 -0.4013 -0.9414
 7638TIP3    H144329   1.384   4.032   1.295  0.6636  0.2348 -0.1935
 7638TIP3    H244330   1.277   4.098   1.380 -1.0216 -0.8065 -1.4367
 7639TIP3   OH244331   3.962   0.745  13.505  0.0584  0.0587  0.6798
 7639TIP3    H144332   3.928   0.816  13.560 -0.6115  0.9278 -0.7966
 7639TIP3    H244333   4.038   0.783  13.461 -1.1247  0.4051 -1.2011
 7640TIP3   OH244334   5.515   1.065  10.861  0.0855  0.2230  0.4435
 7640TIP3    H144335   5.536   1.070  10.768 -0.4645 -0.3697  0.2798
 7640TIP3    H244336   5.511   1.156  10.890  1.2381  0.3874  0.1156
 7641TIP3   OH244337   0.021   5.343  15.052 -0.2260  0.0514  0.3163
 7641TIP3    H144338   0.110   5.322  15.024 -0.3863  1.4138 -1.3933
 7641TIP3    H244339  -0.035   5.303  14.986 -0.6826  2.2198 -0.7092
 7642TIP3   OH244340   0.300   2.151  14.573  0.2599  0.1857 -0.5654
 7642TIP3    H144341   0.294   2.072  14.519 -0.5270  0.3056 -0.6777
 7642TIP3    H244342   0.347   2.124  14.651  2.2222  0.2125 -1.6688
 7643TIP3   OH244343   3.996   2.210  15.113 -0.8693 -0.1198  0.2224
 7643TIP3    H144344   3.960   2.277  15.171  0.0342  1.0531 -0.5302
 7643TIP3    H244345   4.072   2.176  15.160 -1.8268 -1.2997  0.9980
 7644TIP3   OH244346   1.700   4.311   1.958 -0.3396  0.0321 -0.7505
 7644TIP3    H144347   1.795   4.320   1.953 -0.5161  1.6951 -2.3215
 7644TIP3    H244348   1.676   4.347   2.044  0.4227 -0.2903 -0.3977
 7645TIP3   OH244349   2.035   4.768  15.890  0.1060  0.1066  0.1498
 7645TIP3    H144350   2.069   4.683  15.919 -1.2261 -0.7322 -0.6289
 7645TIP3    H244351   2.038   4.762  15.794 -2.6751 -0.2595  0.0058
 7646TIP3   OH244352   5.487   5.114  12.964 -0.0419  0.0466 -0.4421
 7646TIP3    H144353   5.577   5.103  12.932  1.0098 -0.2125  2.2817
 7646TIP3    H244354   5.481   5.207  12.986  0.5062 -0.3731  1.7125
 7647TIP3   OH244355   5.732   4.942   2.961 -0.5762 -0.2000 -0.4070
 7647TIP3    H144356   5.698   5.016   3.011 -0.6146 -0.5648  0.1181
 7647TIP3    H244357   5.755   4.877   3.027 -0.2991 -0.5580 -0.8470
 7648TIP3   OH244358   0.529   2.625   0.978  0.2146 -0.5549  0.4688
 7648TIP3    H144359   0.613   2.635   0.934 -0.5052 -2.6188 -1.6057
 7648TIP3    H244360   0.525   2.532   1.003 -1.2343 -0.3999  0.9519
 7649TIP3   OH244361   4.049   1.635   0.157 -0.4531 -0.4767  0.8294
 7649TIP3    H144362   4.013   1.628   0.069  0.3576  0.3284  0.4213
 7649TIP3    H244363   4.143   1.619   0.147 -0.4485 -1.0356  1.6499
 7650TIP3   OH244364   3.407   6.671  14.627 -0.0328 -0.3588 -0.0048
 7650TIP3    H144365   3.323   6.642  14.663 -0.1062  0.4537  0.4904
 7650TIP3    H244366   3.429   6.750  14.676  0.2833  0.2962 -1.1567
 7651TIP3   OH244367   1.802   1.970   1.921 -0.0622 -0.4531 -0.2215
 7651TIP3    H144368   1.740   1.898   1.910  0.1113 -0.9139  1.6449
 7651TIP3    H244369   1.867   1.938   1.983  1.0269  0.6965 -0.7149
 7652TIP3   OH244370   1.502   6.585  12.526  0.3676 -0.0006 -0.1117
 7652TIP3    H144371   1.461   6.621  12.448  0.2562  1.3401  0.5203
 7652TIP3    H244372   1.429   6.550  12.577  0.2016  0.7529  0.1892
 7653TIP3   OH244373   6.020   5.829   2.002 -0.1725 -0.7570  0.1705
 7653TIP3    H144374   5.973   5.752   1.969  1.1951 -1.4564 -0.2312
 7653TIP3    H244375   5.961   5.902   1.985 -1.9562 -1.8194  1.5103
 7654TIP3   OH244376   6.370   2.233  11.274  0.5968  0.1920 -0.3721
 7654TIP3    H144377   6.436   2.257  11.209 -0.5698  0.5802 -1.4726
 7654TIP3    H244378   6.286   2.248  11.229 -0.2368 -0.9333  0.7313
 7655TIP3   OH244379   6.206   3.239   2.789  0.4008  0.4410 -0.5457
 7655TIP3    H144380   6.156   3.257   2.709 -0.6286  0.7020  0.1380
 7655TIP3    H244381   6.140   3.213   2.853  1.1553  0.7332  0.3689
 7656TIP3   OH244382   5.754   0.537   0.820  0.2458  0.1511  0.0291
 7656TIP3    H144383   5.787   0.624   0.839  2.0854 -0.3952 -0.4585
 7656TIP3    H244384   5.670   0.552   0.776 -1.0184  1.5509  2.6673
 7657TIP3   OH244385   0.236   1.841  13.914 -0.5686 -0.4647 -0.0731
 7657TIP3    H144386   0.296   1.774  13.881 -1.0896 -0.3955 -1.2111
 7657TIP3    H244387   0.272   1.923  13.881  0.0448 -0.1573  1.2820
 7658TIP3   OH244388   5.046   5.014  14.765 -0.1535  0.1740  0.6202
 7658TIP3    H144389   5.058   4.991  14.858  1.9927  0.9540  0.5907
 7658TIP3    H244390   4.991   5.092  14.767 -0.8594 -0.3127  1.1579
 7659TIP3   OH244391   4.182   0.302   5.550  0.2278  0.0306 -0.1655
 7659TIP3    H144392   4.264   0.309   5.500  0.3395 -1.8901 -0.3556
 7659TIP3    H244393   4.114   0.292   5.484  0.2727 -1.6343 -0.0195
 7660TIP3   OH244394   4.857   1.816  11.324 -0.1510  0.3254  0.0740
 7660TIP3    H144395   4.802   1.839  11.399  0.4986  0.8667  0.3948
 7660TIP3    H244396   4.919   1.752  11.359  1.7948  2.4187  0.7032
 7661TIP3   OH244397   3.895   5.870  12.855  0.3086 -0.8254  0.2368
 7661TIP3    H144398   3.897   5.930  12.930  1.0022  0.0975 -0.4907
 7661TIP3    H244399   3.897   5.783  12.894  1.8615 -0.3627  1.3136
 7662TIP3   OH244400   3.601   4.318  15.017 -0.3509 -0.4953 -0.1905
 7662TIP3    H144401   3.552   4.353  14.942 -1.6387  1.4127  1.4267
 7662TIP3    H244402   3.632   4.233  14.987 -1.5950 -0.2173 -2.5674
 7663TIP3   OH244403   4.758   3.147  14.424  0.2607  0.5585 -0.3764
 7663TIP3    H144404   4.813   3.133  14.501 -3.0742  1.1186  2.3611
 7663TIP3    H244405   4.722   3.061  14.403  1.3308  0.3665 -1.5151
 7664TIP3   OH244406   1.826   5.626  17.268  0.2201  0.1631  0.1303
 7664TIP3    H144407   1.906   5.661  17.228 -0.1272  1.3778  0.4600
 7664TIP3    H244408   1.857   5.557  17.326  0.7766 -1.3879 -1.9081
 7665TIP3   OH244409   0.174   5.669   2.359  0.0245  0.0478 -0.5284
 7665TIP3    H144410   0.256   5.719   2.348 -1.1862  2.2098 -0.2345
 7665TIP3    H244411   0.115   5.705   2.293 -1.0779 -0.6056  0.0740
 7666TIP3   OH244412   0.710   4.976   2.149 -0.1530  0.2186  0.1528
 7666TIP3    H144413   0.680   4.939   2.233  0.4320  0.3109  0.4115
 7666TIP3    H244414   0.647   5.045   2.129 -0.7470 -0.3280  0.1182
 7667TIP3   OH244415   0.040   2.113   2.212 -0.3708  0.9449  0.3467
 7667TIP3    H144416  -0.006   2.031   2.229 -1.2988  1.0875 -1.3278
 7667TIP3    H244417   0.086   2.098   2.129  0.4981  1.6889  0.6806
 7668TIP3   OH244418   0.833   5.146   4.254  0.1434  0.6862 -0.3342
 7668TIP3    H144419   0.929   5.152   4.255  0.1956  0.0728 -0.9710
 7668TIP3    H244420   0.808   5.169   4.165 -0.4398  2.4951  0.2479
 7669TIP3   OH244421   6.443   1.057  12.856 -0.6264 -0.2162  0.0371
 7669TIP3    H144422   6.490   1.134  12.888  0.0793 -0.9422  0.8133
 7669TIP3    H244423   6.511   1.004  12.815 -1.2562 -0.0439 -1.2776
 7670TIP3   OH244424   6.003   1.426  11.536 -0.1017 -0.0040 -0.5565
 7670TIP3    H144425   5.966   1.424  11.448 -0.8740 -1.7330 -0.2242
 7670TIP3    H244426   5.961   1.354  11.582  0.0903  1.0050  1.3267
 7671TIP3   OH244427   6.470   2.357  14.775  0.0614  0.0352 -0.0594
 7671TIP3    H144428   6.518   2.320  14.701 -2.0231 -0.4123 -1.2740
 7671TIP3    H244429   6.434   2.282  14.821  0.5748  0.3577  0.9088
 7672TIP3   OH244430   4.803   6.648   1.242 -0.4107 -0.4060  0.1503
 7672TIP3    H144431   4.710   6.651   1.220 -0.2758  0.9573 -0.3326
 7672TIP3    H244432   4.839   6.728   1.204  0.9481 -0.8766  0.4059
 7673TIP3   OH244433   0.409   0.654  15.073 -0.4638 -0.1244 -0.6599
 7673TIP3    H144434   0.351   0.582  15.049 -1.8835  1.1091 -1.1017
 7673TIP3    H244435   0.446   0.628  15.157 -1.0466 -1.2893 -0.7388
 7674TIP3   OH244436   3.331   3.955   2.452  0.3758 -0.5407 -0.2500
 7674TIP3    H144437   3.256   4.000   2.412 -0.2573 -1.3684 -0.0410
 7674TIP3    H244438   3.319   3.863   2.427  0.5166 -0.9142  0.9770
 7675TIP3   OH244439   3.365   2.233  12.148 -0.5159  0.3596  0.2798
 7675TIP3    H144440   3.399   2.267  12.065  0.0681 -1.3559 -0.2151
 7675TIP3    H244441   3.405   2.289  12.214  1.8818 -0.4278 -0.4021
 7676TIP3   OH244442   0.357   4.381   3.076  0.3492  0.1720 -0.3849
 7676TIP3    H144443   0.314   4.441   3.138 -1.3803 -0.6646 -0.7201
 7676TIP3    H244444   0.376   4.435   3.000 -0.1623  0.5621 -0.2422
 7677TIP3   OH244445   1.929   3.101  15.465 -0.3038  0.4655  1.3664
 7677TIP3    H144446   1.837   3.073  15.463 -0.7139  1.7673  0.2711
 7677TIP3    H244447   1.929   3.184  15.416  1.1822  1.2777  2.6727
 7678TIP3   OH244448   1.388   5.405  14.846 -0.4718  0.5110 -0.6285
 7678TIP3    H144449   1.375   5.421  14.940  1.7046  0.3419 -0.2453
 7678TIP3    H244450   1.311   5.445  14.805 -0.3329  2.7482  1.0486
 7679TIP3   OH244451   3.837   4.510  12.143 -0.6261  0.1419  0.1422
 7679TIP3    H144452   3.851   4.564  12.065 -1.7442  0.4621  0.1463
 7679TIP3    H244453   3.859   4.421  12.116  3.3292  0.7712  0.6930
 7680TIP3   OH244454   1.399   1.524  14.350  0.2529  0.5407 -0.1278
 7680TIP3    H144455   1.333   1.590  14.374 -0.0996  0.9430 -2.0307
 7680TIP3    H244456   1.463   1.573  14.298  0.4745 -0.4403 -0.7892
 7681TIP3   OH244457   5.855   4.726   3.891  0.3683  0.2701  0.3045
 7681TIP3    H144458   5.875   4.731   3.797 -0.2086  1.2184  0.2163
 7681TIP3    H244459   5.790   4.795   3.905 -1.6926 -1.6994  0.8753
 7682TIP3   OH244460   5.312   1.661  16.299  0.4185 -0.1087 -0.1051
 7682TIP3    H144461   5.406   1.655  16.283  0.1455  0.3672 -2.1466
 7682TIP3    H244462   5.283   1.570  16.305  1.0844 -0.2510  1.1423
 7683TIP3   OH244463   4.758   2.331  12.817 -0.1443  0.9805  0.3019
 7683TIP3    H144464   4.766   2.320  12.911  2.2097  1.3611  0.2177
 7683TIP3    H244465   4.766   2.425  12.803  0.5200  0.8453 -0.3146
 7684TIP3   OH244466   4.107   3.774   1.951  0.5124 -0.2138  0.2664
 7684TIP3    H144467   4.017   3.754   1.928  0.7371 -0.1570 -0.6808
 7684TIP3    H244468   4.101   3.850   2.009 -0.0243 -0.0090 -0.0604
 7685TIP3   OH244469   0.844   5.267   2.314 -0.0017  0.2033 -0.0115
 7685TIP3    H144470   0.858   5.359   2.291 -1.2684 -0.0135 -1.8778
 7685TIP3    H244471   0.898   5.219   2.251  1.8146 -0.3703  1.8675
 7686TIP3   OH244472   2.695   0.525   3.719 -0.2875 -0.2970  0.1168
 7686TIP3    H144473   2.603   0.540   3.738 -0.7666 -1.6891 -0.9654
 7686TIP3    H244474   2.713   0.577   3.641 -0.0539  0.2333  0.5159
 7687TIP3   OH244475   6.162   1.756  17.169  0.1842  0.5666 -0.3617
 7687TIP3    H144476   6.127   1.666  17.171 -0.5928  0.8546 -0.4022
 7687TIP3    H244477   6.139   1.787  17.081  0.4896  0.7869 -0.3614
 7688TIP3   OH244478   2.700   4.037   1.675  0.1109  0.3103  0.1761
 7688TIP3    H144479   2.774   3.977   1.668 -0.2453 -0.0775 -0.3587
 7688TIP3    H244480   2.655   4.010   1.755 -0.4423 -0.6056 -0.4227
 7689TIP3   OH244481   3.592   0.515   1.555 -0.1627  0.0892 -0.5402
 7689TIP3    H144482   3.658   0.561   1.606 -1.4704  1.6874 -0.2030
 7689TIP3    H244483   3.528   0.484   1.619 -0.0463 -0.9465 -0.9051
 7690TIP3   OH244484   4.008   1.395   1.335  0.4519 -0.2471  0.2645
 7690TIP3    H144485   3.994   1.313   1.288  3.0612 -0.8300  0.3801
 7690TIP3    H244486   4.052   1.369   1.416  1.3689  1.2479  0.2828
 7691TIP3   OH244487   5.020   5.385   1.064 -0.1353 -0.1550  0.1590
 7691TIP3    H144488   5.090   5.450   1.052  0.6467 -1.1766 -1.0510
 7691TIP3    H244489   5.051   5.330   1.136  0.0107 -0.2311  0.0381
 7692TIP3   OH244490   2.154   6.714   1.797  0.2352 -0.1783  0.4050
 7692TIP3    H144491   2.058   6.715   1.804  0.2296  1.1063  0.3045
 7692TIP3    H244492   2.178   6.623   1.816 -1.2010 -1.2780 -2.4218
 7693TIP3   OH244493   5.018   3.398  14.972 -0.1454  0.1670  0.1981
 7693TIP3    H144494   5.076   3.397  14.895 -1.0916 -2.6768 -0.6173
 7693TIP3    H244495   4.964   3.476  14.960  1.2052  0.9924 -0.8226
 7694TIP3   OH244496   3.745   6.640  12.696  0.3319  0.3426  0.1236
 7694TIP3    H144497   3.790   6.582  12.758  0.9449  0.8075  0.1267
 7694TIP3    H244498   3.794   6.629  12.615 -1.5349 -1.6371 -0.8478
 7695TIP3   OH244499   4.200   4.503  16.400  0.1439 -0.5516  0.1419
 7695TIP3    H144500   4.181   4.551  16.480  0.9122 -0.6366  0.3828
 7695TIP3    H244501   4.222   4.415  16.429  0.1620 -0.6589 -0.1875
 7696TIP3   OH244502   1.991   4.344   5.955 -0.4363  0.6059  0.3790
 7696TIP3    H144503   2.035   4.261   5.970 -0.2173  0.6474 -0.0206
 7696TIP3    H244504   1.953   4.367   6.040  1.8599  1.4627  1.2540
 7697TIP3   OH244505   0.036   5.023   1.943  0.6187 -0.4728  0.1094
 7697TIP3    H144506   0.119   4.998   1.985  1.1909  0.3171 -0.5432
 7697TIP3    H244507  -0.030   4.981   1.998  1.3953 -0.3508  1.1899
 7698TIP3   OH244508   6.455   3.662  11.204  0.0388 -0.0576 -0.1668
 7698TIP3    H144509   6.402   3.739  11.184 -0.9520 -0.6645  0.0642
 7698TIP3    H244510   6.492   3.680  11.290 -1.0102 -0.2606  0.3413
 7699TIP3   OH244511   5.952   1.509  16.141 -0.6890 -0.3063  0.4147
 7699TIP3    H144512   6.033   1.484  16.186 -0.1188 -0.1376 -0.4935
 7699TIP3    H244513   5.938   1.601  16.164 -1.1641 -0.6062  1.3583
 7700TIP3   OH244514   5.705   4.842  14.868 -0.2185  0.3347  0.2161
 7700TIP3    H144515   5.778   4.869  14.812  1.7516 -1.8788  1.5023
 7700TIP3    H244516   5.672   4.761  14.829 -0.3958  0.0520  0.9196
 7701TIP3   OH244517   3.464   1.790  14.722  0.6836  0.2575  0.1601
 7701TIP3    H144518   3.502   1.866  14.677  0.7979  1.3910  2.0679
 7701TIP3    H244519   3.455   1.724  14.653  0.7664  1.9171 -1.5409
 7702TIP3   OH244520   3.671   4.180   1.839  0.0250  0.1128  0.0458
 7702TIP3    H144521   3.592   4.232   1.826 -0.5264 -0.7420 -0.0905
 7702TIP3    H244522   3.675   4.166   1.934 -1.0257 -1.3906 -0.0959
 7703TIP3   OH244523   2.581   1.722  15.956  0.0839 -0.4479 -0.2604
 7703TIP3    H144524   2.647   1.713  16.024 -0.5886  0.4655  0.5346
 7703TIP3    H244525   2.510   1.771  15.997 -0.5908 -0.3885 -1.4457
 7704TIP3   OH244526   1.647   3.538  11.436 -0.8051 -0.0290 -0.3714
 7704TIP3    H144527   1.565   3.581  11.413 -0.4755  2.0029  1.8389
 7704TIP3    H244528   1.715   3.602  11.415  0.0685 -0.9764 -0.5107
 7705TIP3   OH244529   3.617   4.024  14.891 -0.4296 -0.3576 -0.1504
 7705TIP3    H144530   3.631   3.949  14.834 -0.2443  0.3197 -1.0206
 7705TIP3    H244531   3.528   4.011  14.926  0.7487 -2.6461  2.3299
 7706TIP3   OH244532   6.383   3.414  15.362  0.0895 -0.3694 -0.8804
 7706TIP3    H144533   6.457   3.401  15.303  1.3212  0.7378  0.3365
 7706TIP3    H244534   6.384   3.508  15.381 -1.7229 -0.3016 -0.9138
 7707TIP3   OH244535   4.836   5.273   5.515  0.1251 -0.7268  0.1618
 7707TIP3    H144536   4.919   5.309   5.483 -0.2069  0.0774  0.1958
 7707TIP3    H244537   4.806   5.336   5.580  0.0037 -1.5566  0.9202
 7708TIP3   OH244538   2.822   1.105   2.115  0.2155 -0.4153  0.5052
 7708TIP3    H144539   2.728   1.118   2.103 -0.0373 -0.9871  1.7522
 7708TIP3    H244540   2.863   1.175   2.063 -0.9257  0.8544  1.2717
 7709TIP3   OH244541   3.305   2.388  14.238 -0.0121  0.0864 -0.6022
 7709TIP3    H144542   3.392   2.373  14.199 -0.4855 -0.0721 -1.6461
 7709TIP3    H244543   3.304   2.482  14.257  0.7110 -0.0694  0.2586
 7710TIP3   OH244544   0.491   3.316   5.762 -0.1612  0.5868 -0.2220
 7710TIP3    H144545   0.522   3.406   5.776  0.2132  0.7528 -1.9043
 7710TIP3    H244546   0.399   3.318   5.786 -0.0802  1.3486  0.0494
 7711TIP3   OH244547   3.576   5.823  13.658 -0.5405  0.4615  0.2346
 7711TIP3    H144548   3.538   5.895  13.608 -0.5988 -0.1741 -0.6585
 7711TIP3    H244549   3.644   5.787  13.601 -1.5545 -1.1782  0.0057
 7712TIP3   OH244550   0.338   3.621   6.826  0.2636  0.2524  0.0211
 7712TIP3    H144551   0.430   3.593   6.829  0.2214  0.0325 -0.6589
 7712TIP3    H244552   0.299   3.566   6.758 -0.5793 -0.2769  0.9092
 7713TIP3   OH244553   5.933   4.111  15.623 -0.1101  0.0669  0.3263
 7713TIP3    H144554   5.852   4.072  15.589  0.0591 -0.6514  0.7251
 7713TIP3    H244555   5.922   4.205  15.608 -1.0096 -0.0197  0.3596
 7714TIP3   OH244556   3.008   1.862   1.846 -0.3371 -0.6385  0.3670
 7714TIP3    H144557   3.030   1.905   1.763 -3.6051 -1.1189 -0.8732
 7714TIP3    H244558   2.992   1.771   1.822 -2.2504 -0.5867  1.3002
 7715TIP3   OH244559   0.243   6.606  15.175 -0.7392 -0.1821  0.0538
 7715TIP3    H144560   0.315   6.584  15.116 -0.8493  1.1455 -0.5972
 7715TIP3    H244561   0.236   6.530  15.233  0.1746 -0.9856 -0.8490
 7716TIP3   OH244562   3.583   5.088   1.450  0.0651  0.2906 -0.8349
 7716TIP3    H144563   3.592   5.080   1.545  2.0875  0.7640 -0.9425
 7716TIP3    H244564   3.598   4.999   1.417 -1.0931  0.0377 -0.6948
 7717TIP3   OH244565   4.418   1.715   1.518  0.1103  0.0127  0.1010
 7717TIP3    H144566   4.409   1.773   1.593  1.6990  0.7500 -0.2230
 7717TIP3    H244567   4.338   1.728   1.467 -1.8903 -1.8959  2.5113
 7718TIP3   OH244568   5.669   0.586   0.198 -0.2221 -0.3739  0.6469
 7718TIP3    H144569   5.732   0.544   0.139 -1.4004 -0.2173 -0.8030
 7718TIP3    H244570   5.595   0.608   0.141 -0.9752  0.7556  2.0098
 7719TIP3   OH244571   1.141   3.903  11.862  0.8593  0.3518  0.0177
 7719TIP3    H144572   1.156   3.981  11.808  0.4017  0.1129 -0.4636
 7719TIP3    H244573   1.053   3.915  11.898  0.4205 -0.3563 -0.7792
 7720TIP3   OH244574   5.834   4.916   0.863 -0.5304 -0.2761 -0.4149
 7720TIP3    H144575   5.812   4.988   0.805  0.2466 -1.2574 -1.9974
 7720TIP3    H244576   5.810   4.837   0.815  1.0054 -1.1602  0.1789
 7721TIP3   OH244577   6.430   6.522  13.674 -0.1357 -0.0397  0.2915
 7721TIP3    H144578   6.490   6.588  13.707  1.3590 -1.0138 -0.3511
 7721TIP3    H244579   6.430   6.453  13.740 -1.7116  0.5858  0.9767
 7722TIP3   OH244580   2.869   1.637   5.363 -0.4238 -0.0214  0.2729
 7722TIP3    H144581   2.875   1.712   5.304 -1.1188  0.1681  0.4302
 7722TIP3    H244582   2.780   1.603   5.350 -0.3269 -0.4412  0.6558
 7723TIP3   OH244583   3.858   3.226   2.490  0.3436 -0.3854  0.2659
 7723TIP3    H144584   3.792   3.278   2.445  1.0562  0.7282  0.4628
 7723TIP3    H244585   3.890   3.165   2.423  0.4144  0.3080 -0.3405
 7724TIP3   OH244586   1.387   4.401  16.711 -0.1351 -0.3383  0.5611
 7724TIP3    H144587   1.453   4.441  16.655  0.4441 -0.6969  0.9636
 7724TIP3    H244588   1.392   4.451  16.793 -2.4451  1.5589 -0.3678
 7725TIP3   OH244589   4.547   2.055  15.886 -0.4102  0.1637  0.0424
 7725TIP3    H144590   4.481   2.107  15.840  0.3490  0.3923 -0.8301
 7725TIP3    H244591   4.631   2.094  15.859  0.1824 -1.5108 -0.6588
 7726TIP3   OH244592   6.604   6.382  16.602 -0.1117  0.1562  0.3590
 7726TIP3    H144593   6.657   6.454  16.567 -1.2420 -0.0475 -1.9611
 7726TIP3    H244594   6.537   6.425  16.654  0.3608  0.6220  0.5999
 7727TIP3   OH244595   1.788   3.852   2.832  0.3792  0.4021 -0.0969
 7727TIP3    H144596   1.840   3.860   2.752  0.5357 -0.1804 -0.0584
 7727TIP3    H244597   1.747   3.937   2.843  1.7200  1.0430  0.1487
 7728TIP3   OH244598   0.733   4.355   3.079  0.0043 -0.2032 -0.4172
 7728TIP3    H144599   0.805   4.379   3.021  1.4332  2.3644  2.1466
 7728TIP3    H244600   0.655   4.394   3.039  0.7487  0.5222 -1.2051
 7729TIP3   OH244601   4.611   4.847  11.409  0.5275  0.7062  0.5717
 7729TIP3    H144602   4.572   4.875  11.326 -0.4569  0.1918  0.8508
 7729TIP3    H244603   4.669   4.919  11.433  0.3798  1.1217 -0.2633
 7730TIP3   OH244604   1.781   5.434  12.651  0.0093  0.4458 -0.0615
 7730TIP3    H144605   1.834   5.372  12.701 -0.0220  2.3114  2.5276
 7730TIP3    H244606   1.731   5.380  12.590  3.4125 -1.5567 -1.3291
 7731TIP3   OH244607   2.771   1.740  14.353 -0.1089  0.7602 -0.0125
 7731TIP3    H144608   2.770   1.822  14.402  1.0915  1.3611 -0.9179
 7731TIP3    H244609   2.742   1.765  14.265  0.1776  0.2067 -0.2669
 7732TIP3   OH244610   2.221   1.962  15.866  0.3099 -0.3047 -0.2497
 7732TIP3    H144611   2.128   1.953  15.844  0.1302 -0.6477  0.6222
 7732TIP3    H244612   2.263   1.891  15.818  0.0406 -0.4989 -0.2055
 7733TIP3   OH244613   2.679   5.533  15.786 -0.1502  0.4731  0.1739
 7733TIP3    H144614   2.747   5.524  15.852 -0.4154 -0.0283  0.3866
 7733TIP3    H244615   2.604   5.485  15.822 -0.4763  0.6638 -0.2415
 7734TIP3   OH244616   4.547   6.177  13.842 -0.8171 -0.1382  0.9543
 7734TIP3    H144617   4.580   6.183  13.752 -1.0711 -2.3839  0.6513
 7734TIP3    H244618   4.616   6.216  13.895  0.4937 -0.9961 -0.0414
 7735TIP3   OH244619   5.961   1.280  12.560 -0.0956 -0.1520  0.0896
 7735TIP3    H144620   6.028   1.333  12.603 -0.0218 -2.0994  2.6778
 7735TIP3    H244621   6.006   1.238  12.487  1.5403 -1.3099  1.6936
 7736TIP3   OH244622   4.625   6.467   5.127  0.0474  0.0495 -0.1873
 7736TIP3    H144623   4.707   6.515   5.139  1.3107 -2.1243  0.5099
 7736TIP3    H244624   4.557   6.528   5.154  1.6444  1.0148  1.9624
 7737TIP3   OH244625   4.013   4.815  11.989  0.1108  0.4434  0.0006
 7737TIP3    H144626   3.983   4.886  12.044 -0.3449  0.2983 -0.0546
 7737TIP3    H244627   4.049   4.750  12.050 -0.8439  0.0619  0.1840
 7738TIP3   OH244628   3.709   5.515  11.272 -0.8076 -0.2517  0.3893
 7738TIP3    H144629   3.640   5.571  11.236 -0.2042 -0.6729 -1.5159
 7738TIP3    H244630   3.785   5.573  11.279 -0.8729 -0.2159  0.8876
 7739TIP3   OH244631   4.781   5.888   0.364 -0.2244 -0.0848 -0.2105
 7739TIP3    H144632   4.842   5.952   0.400  0.7711 -1.0677 -0.1117
 7739TIP3    H244633   4.749   5.928   0.283 -2.6013  2.2246  1.6728
 7740TIP3   OH244634   1.413   1.487   5.750 -0.2754  0.4530 -0.0037
 7740TIP3    H144635   1.445   1.471   5.839  0.0118  2.1231  0.2218
 7740TIP3    H244636   1.432   1.579   5.734 -0.3128  0.1723 -1.8200
 7741TIP3   OH244637   5.554   6.292  12.384  0.2866 -0.2877  0.5934
 7741TIP3    H144638   5.505   6.262  12.308  0.8978 -1.5953  0.6935
 7741TIP3    H244639   5.531   6.384  12.393 -0.8023 -0.4533 -0.3849
 7742TIP3   OH244640   1.643   3.290  15.876 -0.0322 -0.3394  0.0434
 7742TIP3    H144641   1.601   3.375  15.892  1.0836  0.0616  1.0377
 7742TIP3    H244642   1.596   3.229  15.933 -0.2272 -0.2008  0.0322
 7743TIP3   OH244643   0.203   6.208  16.800 -0.2356 -1.0841 -0.4354
 7743TIP3    H144644   0.280   6.212  16.744  2.7071 -1.5293  3.1771
 7743TIP3    H244645   0.187   6.299  16.827  0.4004 -1.2111  0.4166
 7744TIP3   OH244646   0.691   4.735   4.671  0.8521  0.0767 -0.4492
 7744TIP3    H144647   0.596   4.742   4.683  1.0343  0.8896  0.7434
 7744TIP3    H244648   0.709   4.787   4.593  0.4452  1.0168  0.0566
 7745TIP3   OH244649   5.429   4.081  13.828  0.7951 -0.3117  0.0031
 7745TIP3    H144650   5.452   4.029  13.751  0.3272 -0.7883  0.1721
 7745TIP3    H244651   5.503   4.139  13.842  1.3316 -0.9395 -0.1968
 7746TIP3   OH244652   3.588   2.611   1.103  0.0993 -0.1557 -0.5840
 7746TIP3    H144653   3.580   2.653   1.189 -2.7452 -0.1536 -0.7746
 7746TIP3    H244654   3.539   2.667   1.044  3.0208  0.5263 -2.5948
 7747TIP3   OH244655   4.188   3.878  17.115 -0.3433 -0.1528 -0.5293
 7747TIP3    H144656   4.171   3.824  17.038 -0.6720 -1.2960  0.3127
 7747TIP3    H244657   4.118   3.855  17.176  2.6603 -3.2849  2.1759
 7748TIP3   OH244658   3.441   5.443  16.576  0.4646  0.2731 -0.2536
 7748TIP3    H144659   3.456   5.406  16.663  1.7995 -0.3592 -0.7280
 7748TIP3    H244660   3.354   5.484  16.582 -0.6113 -1.9761  0.6360
 7749TIP3   OH244661   5.338   3.412  14.704 -0.0677 -0.6652 -0.1022
 7749TIP3    H144662   5.265   3.473  14.696  0.1178 -0.4279 -0.0250
 7749TIP3    H244663   5.416   3.467  14.695  0.0974 -0.9876 -0.6805
 7750TIP3   OH244664   1.386   5.032   1.384 -0.1275  0.7300  0.3017
 7750TIP3    H144665   1.335   4.995   1.456 -1.3997 -0.4564 -1.1461
 7750TIP3    H244666   1.456   4.968   1.369 -1.5716 -0.5513 -1.3569
 7751TIP3   OH244667   0.638   4.901  14.411  0.0624 -0.0102  0.1552
 7751TIP3    H144668   0.588   4.978  14.437 -1.8346 -0.5778 -1.5444
 7751TIP3    H244669   0.584   4.859  14.344  0.6218 -3.2793  1.5756
 7752TIP3   OH244670   1.628   2.606   0.874 -0.1953  0.4241 -0.0434
 7752TIP3    H144671   1.720   2.583   0.867 -0.4550 -0.3803 -1.1484
 7752TIP3    H244672   1.591   2.543   0.937  0.0472  0.9206  0.6091
 7753TIP3   OH244673   2.360   4.559  13.081  0.1409  0.3309  0.2133
 7753TIP3    H144674   2.437   4.519  13.121  1.1088  1.9040  0.0437
 7753TIP3    H244675   2.331   4.624  13.144  0.1247  1.0640 -0.5273
 7754TIP3   OH244676   1.117   5.552   4.927  0.6759 -0.8614 -0.0223
 7754TIP3    H144677   1.042   5.497   4.950  0.1284  0.3139  1.1721
 7754TIP3    H244678   1.101   5.576   4.835 -1.5173  0.9444  0.7329
 7755TIP3   OH244679   4.863   3.819  12.005 -0.4476  0.4398 -0.1669
 7755TIP3    H144680   4.944   3.831  11.957  0.9351 -0.2253  1.8524
 7755TIP3    H244681   4.891   3.806  12.096 -2.7959 -0.1067  0.5501
 7756TIP3   OH244682   3.855   0.432   1.143 -0.5994  0.3582 -0.4183
 7756TIP3    H144683   3.797   0.419   1.067  0.0240  0.1311 -0.8622
 7756TIP3    H244684   3.795   0.443   1.217 -1.2155  0.3984 -0.9144
 7757TIP3   OH244685   2.884   5.480   1.178 -0.1914 -0.0229  0.1499
 7757TIP3    H144686   2.976   5.457   1.166 -0.7130 -0.9092 -2.9168
 7757TIP3    H244687   2.884   5.576   1.178  0.5714  0.0750 -2.5063
 7758TIP3   OH244688   0.990   5.213   3.872  0.1652  0.1034 -0.3434
 7758TIP3    H144689   0.963   5.240   3.784  1.0814 -0.3136 -0.7599
 7758TIP3    H244690   1.008   5.120   3.864  2.3304  0.4724 -0.2462
 7759TIP3   OH244691   2.063   4.148   4.358  0.3507 -0.2092 -0.9069
 7759TIP3    H144692   1.986   4.202   4.378  1.0033  0.3619  0.1187
 7759TIP3    H244693   2.071   4.152   4.263 -0.7172 -0.0395 -0.9998
 7760TIP3   OH244694   3.054   6.393   2.521  0.1768 -0.3676  0.4947
 7760TIP3    H144695   3.035   6.300   2.508 -3.1374  0.3885 -1.1468
 7760TIP3    H244696   3.094   6.421   2.439 -0.8666  0.0900  0.1378
 7761TIP3   OH244697   4.638   2.495  17.084 -0.4560 -0.1473 -0.6256
 7761TIP3    H144698   4.733   2.497  17.075 -0.5106 -0.5670 -1.3674
 7761TIP3    H244699   4.618   2.564  17.147  0.5168 -1.3944  1.1508
 7762TIP3   OH244700   1.130   2.037  10.825  0.2216 -0.0180 -0.2825
 7762TIP3    H144701   1.221   2.013  10.846 -0.2400 -0.2518  1.5892
 7762TIP3    H244702   1.092   1.958  10.787 -0.7526 -1.9647  4.1205
 7763TIP3   OH244703   2.428   5.755  12.167 -0.3663  0.7791 -0.2998
 7763TIP3    H144704   2.518   5.766  12.136  1.5477 -0.9324  3.8085
 7763TIP3    H244705   2.411   5.831  12.222 -0.3911 -0.0839  0.9324
 7764TIP3   OH244706   1.439   0.173  15.795  0.0694 -0.5104 -0.2700
 7764TIP3    H144707   1.497   0.170  15.871 -0.5732  3.1313  0.5343
 7764TIP3    H244708   1.465   0.097  15.742  2.5588 -1.4826  2.0902
 7765TIP3   OH244709   1.849   1.379   0.046 -0.2919  0.6023 -0.0682
 7765TIP3    H144710   1.758   1.368   0.073 -0.7111  1.3590 -1.1219
 7765TIP3    H244711   1.845   1.393  -0.048  1.0413 -0.8275 -0.3896
 7766TIP3   OH244712   3.324   2.947  15.431  0.1166 -0.3801  0.3014
 7766TIP3    H144713   3.238   2.986  15.444  0.2132  0.2050 -0.7431
 7766TIP3    H244714   3.305   2.858  15.401 -0.1160 -0.4411  0.6257
 7767TIP3   OH244715   0.020   0.826  17.010  0.1834  0.4311 -0.1184
 7767TIP3    H144716   0.065   0.750  17.047  0.0810  0.3734 -0.1111
 7767TIP3    H244717   0.078   0.855  16.939 -1.2940 -1.6878 -2.3874
 7768TIP3   OH244718   1.151   2.015  14.128 -0.3656 -0.1998  0.6533
 7768TIP3    H144719   1.108   1.980  14.049 -0.5119 -1.3369  1.2182
 7768TIP3    H244720   1.113   1.965  14.200  1.3709 -0.7621  1.2382
 7769TIP3   OH244721   4.601   1.174   6.590 -0.2464 -0.5055 -0.1430
 7769TIP3    H144722   4.628   1.115   6.659  3.4580  0.1737 -0.7943
 7769TIP3    H244723   4.620   1.262   6.624  1.2787 -0.1388 -1.7719
 7770TIP3   OH244724   3.436   0.614  16.763  0.2504  0.2573  0.2104
 7770TIP3    H144725   3.473   0.698  16.736  1.9462 -1.0602 -1.8313
 7770TIP3    H244726   3.506   0.573  16.814 -0.6272  0.0853  1.3329
 7771TIP3   OH244727   1.768   3.478   4.111 -0.2062 -0.8106 -0.0918
 7771TIP3    H144728   1.682   3.517   4.125 -0.2928 -1.0748  0.1151
 7771TIP3    H244729   1.804   3.525   4.036 -0.5291 -0.6971 -0.1746
 7772TIP3   OH244730   1.317   1.957   0.726 -0.0189 -0.0264  0.0745
 7772TIP3    H144731   1.345   1.920   0.809  1.7245  0.8184 -0.0854
 7772TIP3    H244732   1.230   1.993   0.744 -0.4206 -1.4009  1.0338
 7773TIP3   OH244733   3.078   6.296   0.773 -0.6033  0.2057  0.2436
 7773TIP3    H144734   2.987   6.326   0.773 -1.0403 -1.0888  0.2026
 7773TIP3    H244735   3.125   6.365   0.820 -1.7139  0.5282  0.9231
 7774TIP3   OH244736   2.875   3.909   0.540 -0.1767 -0.1578  0.1880
 7774TIP3    H144737   2.880   3.950   0.454 -1.8079  0.3425  0.3060
 7774TIP3    H244738   2.796   3.945   0.580  0.7435 -0.0740  2.0650
 7775TIP3   OH244739   5.527   0.965  13.317 -0.5960  0.2522  0.4396
 7775TIP3    H144740   5.537   1.038  13.256 -0.9657  0.2982  0.4338
 7775TIP3    H244741   5.617   0.944  13.344 -0.0308 -1.8201 -2.5225
 7776TIP3   OH244742   2.397   3.329   1.802  0.1742 -0.0904 -0.0838
 7776TIP3    H144743   2.456   3.362   1.734  1.7685 -0.5884  0.9930
 7776TIP3    H244744   2.400   3.234   1.791  0.1217 -0.1508  0.4346
 7777TIP3   OH244745   1.198   0.622  13.363 -0.0290  0.1322  0.7650
 7777TIP3    H144746   1.162   0.572  13.436  0.8954  0.5640  1.5335
 7777TIP3    H244747   1.276   0.574  13.336  0.2111  0.5200  0.7507
 7778TIP3   OH244748   5.286   6.358   0.746 -0.4331 -0.2314 -0.1917
 7778TIP3    H144749   5.223   6.424   0.718 -1.1327  0.4329  2.6534
 7778TIP3    H244750   5.342   6.403   0.810 -0.4718 -2.1410  1.2905
 7779TIP3   OH244751   3.790   5.424  15.658 -0.2942 -0.1431  0.0974
 7779TIP3    H144752   3.848   5.444  15.732 -2.1504  0.1749  1.5619
 7779TIP3    H244753   3.848   5.384  15.593  1.9383  2.0724  0.5633
 7780TIP3   OH244754   5.890   5.882   4.776 -0.2936 -0.1654 -0.8785
 7780TIP3    H144755   5.872   5.789   4.785 -0.5207  0.0299  1.3141
 7780TIP3    H244756   5.808   5.920   4.745 -1.1360 -0.3747  0.9507
 7781TIP3   OH244757   0.131   3.746   1.081  0.1656 -0.4707 -0.4860
 7781TIP3    H144758   0.086   3.718   1.160 -0.5816 -1.3267 -1.1919
 7781TIP3    H244759   0.073   3.811   1.041  0.5726  0.0127 -0.2989
 7782TIP3   OH244760   0.448   6.008  11.684  0.4375 -0.5450  0.6242
 7782TIP3    H144761   0.414   5.990  11.772  1.6390  0.5149  1.3433
 7782TIP3    H244762   0.391   6.077  11.650  0.8020  0.0299  1.1505
 7783TIP3   OH244763   0.581   5.043   0.114 -0.3918 -0.4132  0.2470
 7783TIP3    H144764   0.554   5.069   0.202  0.6303  1.6847  0.0124
 7783TIP3    H244765   0.521   5.088   0.056 -0.7230 -1.3570 -0.1642
 7784TIP3   OH244766   3.237   5.881   5.461  0.3583  0.4295  0.1512
 7784TIP3    H144767   3.325   5.848   5.442 -0.2833 -0.3524 -1.6990
 7784TIP3    H244768   3.192   5.879   5.376 -2.1616 -1.3547  1.4268
 7785TIP3   OH244769   2.974   3.117  11.009  0.3091  0.8619  0.3426
 7785TIP3    H144770   3.005   3.037  10.965 -2.9362 -0.3032 -0.0870
 7785TIP3    H244771   2.980   3.096  11.102  0.3914  0.5175  0.2624
 7786TIP3   OH244772   2.842   6.650  16.038  0.1930  0.1902 -0.3880
 7786TIP3    H144773   2.871   6.718  16.099 -0.7507 -0.5261  0.9192
 7786TIP3    H244774   2.790   6.696  15.973  1.4389  1.0108 -0.8351
 7787TIP3   OH244775   5.900   3.164  12.257  0.0238  0.9089  0.5239
 7787TIP3    H144776   5.875   3.080  12.219  1.4982 -0.1358  1.7222
 7787TIP3    H244777   5.821   3.217  12.255 -1.1600 -0.7987  0.4947
 7788TIP3   OH244778   3.587   0.433   5.652 -0.1709  0.2845 -0.1783
 7788TIP3    H144779   3.655   0.493   5.620  0.0314 -0.6846 -1.6604
 7788TIP3    H244780   3.526   0.425   5.579 -0.4405 -0.9516  0.1697
 7789TIP3   OH244781   1.143   6.413  13.759  0.5783 -0.4605  0.1417
 7789TIP3    H144782   1.072   6.428  13.697  1.2842 -1.5904 -0.9849
 7789TIP3    H244783   1.149   6.495  13.809  0.1658  0.5880 -1.4680
 7790TIP3   OH244784   0.493   5.228  14.239 -0.2777  0.3929 -0.7050
 7790TIP3    H144785   0.460   5.310  14.205 -0.2771  0.9290  0.5264
 7790TIP3    H244786   0.420   5.167  14.231 -0.0777  0.3321 -2.1948
 7791TIP3   OH244787   0.691   3.347  11.618 -0.4766 -0.1971 -0.4622
 7791TIP3    H144788   0.777   3.389  11.621  0.6159 -2.0525 -2.7674
 7791TIP3    H244789   0.650   3.382  11.539 -1.3999 -0.1663  0.0167
 7792TIP3   OH244790   2.931   3.639   0.506  0.0589  0.3774  0.0644
 7792TIP3    H144791   2.936   3.720   0.558  0.9173  0.4947 -0.1896
 7792TIP3    H244792   2.900   3.668   0.420 -0.4501  0.3172  0.2279
 7793TIP3   OH244793   3.373   6.237   2.637  0.0467  0.1833 -0.2849
 7793TIP3    H144794   3.431   6.192   2.698  0.8184  0.9941 -0.4149
 7793TIP3    H244795   3.295   6.257   2.688  0.2827 -0.0181  0.1567
 7794TIP3   OH244796   2.523   4.031   2.783 -0.4718  0.6053  0.4113
 7794TIP3    H144797   2.450   4.079   2.822  0.2040  0.2609  2.1915
 7794TIP3    H244798   2.497   3.939   2.788 -1.0601  0.6264 -1.4894
 7795TIP3   OH244799   5.304   5.673   0.642  0.0973 -0.4343  0.4696
 7795TIP3    H144800   5.278   5.647   0.730 -1.6211 -0.3210  0.0345
 7795TIP3    H244801   5.372   5.738   0.655  0.2991 -0.8597  1.6976
 7796TIP3   OH244802   2.004   5.756   2.838  0.0913 -0.3757 -0.1758
 7796TIP3    H144803   2.080   5.708   2.869 -1.1056 -1.1255  1.7560
 7796TIP3    H244804   1.985   5.718   2.752 -0.1603 -2.6265  0.8261
 7797TIP3   OH244805   1.518   1.243  14.295 -0.2440  0.0605  0.6608
 7797TIP3    H144806   1.591   1.304  14.311 -0.6748  1.7450 -2.7601
 7797TIP3    H244807   1.472   1.238  14.378  1.1016  2.7238  1.6974
 7798TIP3   OH244808   4.270   2.709  17.366 -0.9194  0.4037  0.4824
 7798TIP3    H144809   4.323   2.784  17.391  0.6497  0.1208 -1.7194
 7798TIP3    H244810   4.311   2.634  17.410  0.6795  0.1707 -1.2968
 7799TIP3   OH244811   4.912   2.864  14.134 -0.2288  0.1040  0.0856
 7799TIP3    H144812   4.965   2.921  14.189  1.8472 -0.3649 -1.3310
 7799TIP3    H244813   4.870   2.924  14.071 -1.2488  0.4475  1.0630
 7800TIP3   OH244814   2.616   4.637   0.407 -0.1270  0.5136  0.0142
 7800TIP3    H144815   2.549   4.696   0.442  1.7888  1.9587  1.4620
 7800TIP3    H244816   2.566   4.569   0.361 -2.7532 -0.0967  3.3453
 7801TIP3   OH244817   2.610   5.315  13.580 -0.1373  0.1206  0.3961
 7801TIP3    H144818   2.623   5.247  13.646  1.7410 -0.8227 -0.8714
 7801TIP3    H244819   2.516   5.336  13.586 -0.8351 -2.6635  0.7486
 7802TIP3   OH244820   0.750   3.268  14.850  0.0116 -0.2703 -0.0893
 7802TIP3    H144821   0.708   3.182  14.856  0.7433 -0.5814  0.8302
 7802TIP3    H244822   0.768   3.293  14.941  1.4573  0.0096 -0.4163
 7803TIP3   OH244823   0.127   6.538   6.684 -0.2944 -0.1518 -0.0198
 7803TIP3    H144824   0.097   6.450   6.708  0.2457 -1.1295 -2.5672
 7803TIP3    H244825   0.184   6.564   6.756 -0.9220 -1.6416  1.0781
 7804TIP3   OH244826   2.373   2.887  13.945  0.5260 -0.7740 -0.3556
 7804TIP3    H144827   2.452   2.938  13.926  0.4386 -1.0034 -1.3931
 7804TIP3    H244828   2.315   2.904  13.871 -0.5723 -0.3010  0.5740
 7805TIP3   OH244829   3.409   3.121   1.293  0.0633 -0.1177  0.5982
 7805TIP3    H144830   3.478   3.160   1.240 -0.2373  0.2427  0.4652
 7805TIP3    H244831   3.353   3.076   1.229 -0.6509  0.8437  0.5184
 7806TIP3   OH244832   4.081   0.782   0.116  0.2180 -0.7598  0.4901
 7806TIP3    H144833   4.117   0.870   0.113 -0.1329 -0.6436 -0.7696
 7806TIP3    H244834   4.040   0.776   0.202 -0.0179  0.4126  0.4735
 7807TIP3   OH244835   1.152   2.435  15.572 -0.0411 -0.6424 -0.0010
 7807TIP3    H144836   1.070   2.407  15.612 -0.9114  3.2303  1.3691
 7807TIP3    H244837   1.217   2.425  15.642 -0.4207  0.7898  0.6072
 7808TIP3   OH244838   3.917   3.788   0.390  0.5288  0.4987 -0.2719
 7808TIP3    H144839   3.899   3.725   0.320  0.5806  0.0019  0.1534
 7808TIP3    H244840   3.930   3.733   0.467 -0.0769  1.0721  0.2420
 7809TIP3   OH244841   4.859   4.837   5.774 -0.0189 -0.0016  0.0472
 7809TIP3    H144842   4.844   4.930   5.759 -1.3811 -0.0896  0.7281
 7809TIP3    H244843   4.896   4.833   5.862 -1.0462 -0.1768  0.4801
 7810TIP3   OH244844   4.290   0.735  15.053 -0.4103  0.2475 -0.3474
 7810TIP3    H144845   4.306   0.641  15.051 -2.2887 -0.1475  0.8306
 7810TIP3    H244846   4.364   0.772  15.101 -0.0518 -0.7222 -0.1369
 7811TIP3   OH244847   5.720   3.211   1.240 -0.4513 -0.3406  0.1137
 7811TIP3    H144848   5.723   3.267   1.162  4.2193 -2.1035 -1.3207
 7811TIP3    H244849   5.736   3.272   1.313  0.7839  0.7176 -0.9759
 7812TIP3   OH244850   5.300   3.423  17.201  0.6325 -0.2476 -0.2759
 7812TIP3    H144851   5.340   3.344  17.238  0.1033 -0.8581 -0.9537
 7812TIP3    H244852   5.246   3.390  17.129  1.3441  0.8459 -1.3522
 7813TIP3   OH244853   1.322   0.984   3.399  0.0465  0.1181  0.0021
 7813TIP3    H144854   1.361   0.968   3.485  0.2353 -0.8156 -0.2436
 7813TIP3    H244855   1.289   0.899   3.372 -1.0848  0.6449 -0.3418
 7814TIP3   OH244856   3.243   6.516   5.135  0.0961 -0.4232  0.1509
 7814TIP3    H144857   3.334   6.533   5.161 -0.1767  2.2798 -0.3379
 7814TIP3    H244858   3.194   6.590   5.171 -1.5963 -0.8153 -1.2410
 7815TIP3   OH244859   1.942   3.425  17.120  0.1012  0.6726 -0.4136
 7815TIP3    H144860   1.949   3.422  17.215 -2.8053  0.6563 -0.1155
 7815TIP3    H244861   2.000   3.356  17.089  1.0146  0.6090  1.3317
 7816TIP3   OH244862   4.323   6.521   3.501  0.2640  0.0341 -0.6947
 7816TIP3    H144863   4.374   6.478   3.432 -0.1699  1.1470 -1.7421
 7816TIP3    H244864   4.272   6.588   3.456 -0.3280  0.5478  0.6629
 7817TIP3   OH244865   2.494   1.364   3.693 -0.2894 -0.7934  0.0322
 7817TIP3    H144866   2.503   1.362   3.597  2.3505  0.5373  0.1679
 7817TIP3    H244867   2.527   1.279   3.722 -2.5598 -1.8580 -0.2150
 7818TIP3   OH244868   4.196   1.959  13.944 -0.4803  0.8748 -0.3960
 7818TIP3    H144869   4.193   2.042  13.991 -0.7671  1.0134 -0.6579
 7818TIP3    H244870   4.254   1.904  13.996 -0.8508  1.0048  0.1615
 7819TIP3   OH244871   4.063   3.088  16.050  0.0826  0.0834 -1.0125
 7819TIP3    H144872   4.060   3.050  16.138  1.2512 -0.8489 -1.3495
 7819TIP3    H244873   3.973   3.086  16.020 -0.2310 -0.2081 -0.0946
 7820TIP3   OH244874   4.970   5.551  16.750 -0.5343 -0.1216 -0.0837
 7820TIP3    H144875   5.012   5.470  16.779 -1.1636 -0.5863 -0.4288
 7820TIP3    H244876   5.028   5.587  16.684 -0.4840 -0.5442 -0.2681
 7821TIP3   OH244877   5.952   1.104  17.021  0.8936  0.2168 -0.0565
 7821TIP3    H144878   6.043   1.125  17.001  0.5107  1.0590 -1.0233
 7821TIP3    H244879   5.923   1.050  16.947  0.5835  0.0286  0.1999
 7822TIP3   OH244880   1.320   3.401  14.708  0.4923  0.1464 -0.1529
 7822TIP3    H144881   1.321   3.338  14.780  0.1195  0.9693  0.6021
 7822TIP3    H244882   1.289   3.351  14.632 -0.2691 -0.4489  0.5397
 7823TIP3   OH244883   1.237   6.290   4.877 -0.0940  0.0641 -0.2618
 7823TIP3    H144884   1.232   6.291   4.972 -0.8241  3.3462 -0.2394
 7823TIP3    H244885   1.330   6.293   4.858  0.1472 -2.1566  0.2338
 7824TIP3   OH244886   2.482   3.148  16.546  0.1471  0.0400 -0.0988
 7824TIP3    H144887   2.427   3.101  16.483 -2.1923 -0.8823  2.3991
 7824TIP3    H244888   2.420   3.184  16.609  2.2559  2.2177  0.8865
 7825TIP3   OH244889   0.810   6.323  13.647 -0.3070 -0.2618  0.1280
 7825TIP3    H144890   0.830   6.242  13.694  3.5613 -0.0271 -0.7651
 7825TIP3    H244891   0.768   6.294  13.566  1.4623 -1.4848 -0.4063
 7826TIP3   OH244892   6.135   4.016  15.377 -0.3336 -0.0179  0.3891
 7826TIP3    H144893   6.083   3.961  15.436  0.5235 -1.4771 -0.1690
 7826TIP3    H244894   6.164   4.089  15.432 -3.4938  1.2898  0.5642
 7827TIP3   OH244895   3.502   0.022  14.386 -0.3222  0.1881 -0.2405
 7827TIP3    H144896   3.515  -0.046  14.320 -2.0026  0.0367 -0.4784
 7827TIP3    H244897   3.481  -0.026  14.466 -0.4372  0.4073 -0.1399
 7828TIP3   OH244898   0.209   4.688   2.738 -0.4482  0.1130  0.2636
 7828TIP3    H144899   0.181   4.747   2.809 -1.7446 -0.0595 -0.0894
 7828TIP3    H244900   0.130   4.670   2.688  0.0768 -1.2985 -0.1200
 7829TIP3   OH244901   4.124   0.406   3.280 -0.1788  0.1583 -0.0457
 7829TIP3    H144902   4.208   0.412   3.325 -1.5299  1.2936  2.5341
 7829TIP3    H244903   4.124   0.479   3.218  0.3856  0.6602  0.5426
 7830TIP3   OH244904   5.402   4.779   0.443 -0.4723 -0.2264 -0.3452
 7830TIP3    H144905   5.327   4.724   0.465  0.6243 -1.3097  0.8237
 7830TIP3    H244906   5.364   4.857   0.403 -2.2240 -0.7120  0.3065
 7831TIP3   OH244907   2.216   0.956  10.913 -0.3890  0.0320  0.2849
 7831TIP3    H144908   2.232   0.925  11.002  0.8212  1.0916  0.4626
 7831TIP3    H244909   2.127   0.989  10.914 -0.6547 -0.6828  0.8849
 7832TIP3   OH244910   4.481   0.855   5.485 -0.0383  0.0117 -0.0645
 7832TIP3    H144911   4.535   0.927   5.452 -0.1832  0.1229 -0.0659
 7832TIP3    H244912   4.479   0.868   5.579  1.2459 -0.9255  0.1094
 7833TIP3   OH244913   2.777   4.852   3.347  0.1100  0.7301  0.1526
 7833TIP3    H144914   2.846   4.894   3.296  1.1984  0.0360  1.0132
 7833TIP3    H244915   2.714   4.923   3.364  0.5828  1.3664 -0.6655
 7834TIP3   OH244916   1.707   4.355   5.532  0.6096  0.0580 -0.4111
 7834TIP3    H144917   1.618   4.388   5.546 -0.0701 -1.7641 -0.1599
 7834TIP3    H244918   1.750   4.363   5.618 -0.2018 -1.4846  0.1838
 7835TIP3   OH244919   4.561   0.488  15.277  0.3373  0.3332 -0.2997
 7835TIP3    H144920   4.556   0.583  15.290 -1.9230  0.2426 -0.1890
 7835TIP3    H244921   4.491   0.452  15.332  0.0807 -1.2624 -1.5730
 7836TIP3   OH244922   4.064   6.636  12.005 -0.4347 -0.1967 -0.4067
 7836TIP3    H144923   4.001   6.598  12.066 -0.8761  0.3775 -0.5028
 7836TIP3    H244924   4.017   6.644  11.922  0.0903 -0.7473 -0.7617
 7837TIP3   OH244925   4.853   1.411   5.499 -0.2731  0.3860  0.0518
 7837TIP3    H144926   4.933   1.444   5.539 -0.1605  1.0663 -0.7202
 7837TIP3    H244927   4.820   1.347   5.562  0.1995  1.0194  0.9736
 7838TIP3   OH244928   3.491   1.466   3.256  0.0798 -0.5071 -0.1780
 7838TIP3    H144929   3.562   1.439   3.314  0.6783  0.9479 -0.2166
 7838TIP3    H244930   3.412   1.434   3.299  0.5997 -0.4206  0.8674
 7839TIP3   OH244931   5.495   1.904   0.849 -0.4360 -0.5640 -0.7206
 7839TIP3    H144932   5.531   1.933   0.766 -0.8767 -0.3675 -0.8459
 7839TIP3    H244933   5.503   1.980   0.907  0.5598 -0.9307 -0.3538
 7840TIP3   OH244934   5.660   6.033  14.262  0.5045  0.2686 -0.2209
 7840TIP3    H144935   5.616   6.097  14.206 -0.4235 -0.0125  0.1667
 7840TIP3    H244936   5.618   5.950  14.242  0.4692  0.0869  0.5607
 7841TIP3   OH244937   2.519   6.346  14.148 -0.1844 -0.1776  0.0185
 7841TIP3    H144938   2.613   6.339  14.164 -0.1941 -0.3428  0.0089
 7841TIP3    H244939   2.510   6.421  14.089 -0.3209  1.6011  2.1873
 7842TIP3   OH244940   1.964   5.641   3.508 -1.0478  0.2258  0.2359
 7842TIP3    H144941   1.936   5.731   3.492 -0.1241  0.2731 -1.3542
 7842TIP3    H244942   1.923   5.590   3.438 -0.1455 -0.2755  0.0495
 7843TIP3   OH244943   4.968   5.379   4.195  0.2684  0.4040  0.1997
 7843TIP3    H144944   4.939   5.302   4.145  0.4580  1.1079 -1.0563
 7843TIP3    H244945   4.892   5.437   4.195  0.5728  0.8092 -0.1039
 7844TIP3   OH244946   4.543   6.318  12.077  0.3313 -0.1547  0.0566
 7844TIP3    H144947   4.489   6.377  12.025  0.2312  0.2310  0.5994
 7844TIP3    H244948   4.615   6.372  12.109  0.5651 -0.4641  0.0630
 7845TIP3   OH244949   6.201   0.675   5.190 -0.0250 -0.4054  0.1298
 7845TIP3    H144950   6.122   0.623   5.201  0.7037 -0.9848  4.6254
 7845TIP3    H244951   6.267   0.613   5.161 -0.7959 -0.1967 -2.2769
 7846TIP3   OH244952   0.983   6.196  15.807  0.0694  0.1032  0.1619
 7846TIP3    H144953   0.918   6.142  15.762  0.2462  0.3747 -0.4385
 7846TIP3    H244954   1.036   6.134  15.858 -0.5592 -0.1333  0.5327
 7847TIP3   OH244955   0.803   1.119   2.563  0.0045  0.0381  0.0420
 7847TIP3    H144956   0.745   1.194   2.578 -1.6231 -1.2001  0.1027
 7847TIP3    H244957   0.868   1.152   2.500 -0.3763  1.6324  0.4255
 7848TIP3   OH244958   1.827   0.419   4.235  0.1274  0.1572  0.5550
 7848TIP3    H144959   1.917   0.388   4.245  0.3591  0.9871  1.1459
 7848TIP3    H244960   1.817   0.484   4.305 -1.7177 -1.6586  2.0893
 7849TIP3   OH244961   2.683   2.757   3.274 -0.4284  0.3427 -0.5703
 7849TIP3    H144962   2.734   2.676   3.269  0.6747  0.8605  1.0985
 7849TIP3    H244963   2.599   2.729   3.310  0.2302  0.0067  0.7855
 7850TIP3   OH244964   0.288   5.900   0.509 -0.0760 -0.1655  0.3926
 7850TIP3    H144965   0.332   5.830   0.461 -1.5988 -0.7682 -0.1779
 7850TIP3    H244966   0.310   5.979   0.461  1.4754 -0.2418  0.9087
 7851TIP3   OH244967   1.095   0.936   0.303  0.7946 -0.3603 -0.2849
 7851TIP3    H144968   1.109   0.848   0.336 -0.6140 -1.0736 -1.4891
 7851TIP3    H244969   1.179   0.962   0.265  1.1250 -1.3007 -0.2058
 7852TIP3   OH244970   3.462   1.096  12.795 -0.5668  0.4474  0.0516
 7852TIP3    H144971   3.460   1.057  12.708 -0.5082  1.2269 -0.3085
 7852TIP3    H244972   3.522   1.041  12.845 -1.2065 -0.4695 -0.1660
 7853TIP3   OH244973   4.914   3.797   5.371 -0.4473  0.0682 -0.1095
 7853TIP3    H144974   4.872   3.780   5.455 -2.9421  0.2043 -1.2442
 7853TIP3    H244975   4.903   3.892   5.358 -1.5715 -0.1940 -1.2840
 7854TIP3   OH244976   0.668   6.600  14.280 -0.4511  0.3416 -0.6761
 7854TIP3    H144977   0.719   6.677  14.255  0.1744 -0.5987 -2.4769
 7854TIP3    H244978   0.578   6.620  14.253 -0.3650  0.5975 -0.7743
 7855TIP3   OH244979   4.876   1.897   2.598 -0.3852  0.0199 -1.0932
 7855TIP3    H144980   4.800   1.858   2.642  0.1506  0.0790 -0.0748
 7855TIP3    H244981   4.839   1.945   2.524 -1.2815 -0.4616 -0.9704
 7856TIP3   OH244982   2.801   4.834   4.206 -0.4706  0.7894 -0.1942
 7856TIP3    H144983   2.810   4.866   4.296 -1.5823  0.7513 -0.0553
 7856TIP3    H244984   2.821   4.741   4.211 -3.2204  0.1321  0.5890
 7857TIP3   OH244985   6.350   1.403  16.464  0.2372 -0.0167  0.4366
 7857TIP3    H144986   6.298   1.328  16.493 -1.0318  0.1674 -1.2094
 7857TIP3    H244987   6.349   1.463  16.538 -0.8879 -0.5612  0.8881
 7858TIP3   OH244988   4.147   5.407   0.480 -0.4638  0.3209 -0.2398
 7858TIP3    H144989   4.213   5.475   0.495  0.8643 -0.9765 -0.0264
 7858TIP3    H244990   4.065   5.446   0.511 -0.0177  2.3359 -1.3942
 7859TIP3   OH244991   4.190   6.325   4.049 -0.4779 -0.0688 -0.3675
 7859TIP3    H144992   4.274   6.370   4.043 -0.9127  0.8700  0.2726
 7859TIP3    H244993   4.165   6.308   3.958  1.1437 -1.8320 -0.5437
 7860TIP3   OH244994   0.286   4.856   3.237  0.6740  0.0645 -0.4550
 7860TIP3    H144995   0.338   4.802   3.296  1.5294  0.3462 -0.9486
 7860TIP3    H244996   0.207   4.876   3.288  1.4565  0.4228  0.6660
 7861TIP3   OH244997   2.710   6.107  15.977 -0.0041  0.4817  0.4915
 7861TIP3    H144998   2.641   6.091  16.042  0.6037  0.2114  1.0899
 7861TIP3    H244999   2.711   6.202  15.966 -1.1786  0.4187 -0.3266
 7862TIP3   OH245000   6.732   1.884   5.133 -0.4234  0.4292  0.2349
 7862TIP3    H145001   6.776   1.817   5.185 -1.4100 -1.0986 -0.8149
 7862TIP3    H245002   6.642   1.852   5.123 -1.2160  2.4292  0.5654
 7863TIP3   OH245003   1.295   2.150   1.092  0.1862 -0.0713  0.3824
 7863TIP3    H145004   1.269   2.125   1.181  2.4856  2.3485  1.8703
 7863TIP3    H245005   1.328   2.068   1.053 -0.6888 -1.1371  1.7842
 7864TIP3   OH245006   6.077   1.412  12.785 -0.4657  0.1705 -0.1981
 7864TIP3    H145007   6.110   1.333  12.827 -0.9875  0.6865  1.2315
 7864TIP3    H245008   6.017   1.450  12.849  1.2316  2.7699 -0.0054
 7865TIP3   OH245009   4.733   6.274  12.460 -0.4978  0.1984 -0.2354
 7865TIP3    H145010   4.698   6.363  12.466  1.3262  1.1033 -1.7944
 7865TIP3    H245011   4.702   6.242  12.375  0.7572  0.2511 -0.7273
 7866TIP3   OH245012   0.170   4.779   5.021  0.5963 -0.2063 -0.9751
 7866TIP3    H145013   0.232   4.847   4.994 -0.7557  1.5923  0.2575
 7866TIP3    H245014   0.215   4.733   5.093  0.4157  1.2859  0.1251
 7867TIP3   OH245015   6.637   3.165  11.821 -0.3969  0.4254  0.1887
 7867TIP3    H145016   6.548   3.175  11.855 -0.9761 -0.0508 -1.1122
 7867TIP3    H245017   6.625   3.130  11.732  1.0907  0.2878  0.0145
 7868TIP3   OH245018   2.768   1.626  11.475 -0.0636 -0.2603 -0.4345
 7868TIP3    H145019   2.819   1.664  11.547 -0.0096  1.3357 -1.2729
 7868TIP3    H245020   2.678   1.654  11.493  0.1034  1.1249 -1.5337
 7869TIP3   OH245021   6.590   2.115   0.302 -0.4177 -0.2207  0.6012
 7869TIP3    H145022   6.517   2.162   0.262  0.1798 -0.0279 -0.3080
 7869TIP3    H245023   6.653   2.184   0.325 -0.5328 -0.3803  1.4159
 7870TIP3   OH245024   6.394   4.939  16.251 -0.1129 -0.3840  0.5398
 7870TIP3    H145025   6.359   4.918  16.164 -0.2219  0.3635  0.3963
 7870TIP3    H245026   6.485   4.908  16.248 -0.0872 -0.2767  0.1240
 7871TIP3   OH245027   2.138   2.603  11.972  0.4927 -0.5160 -0.1514
 7871TIP3    H145028   2.188   2.558  11.904 -0.7683 -3.0568  0.4680
 7871TIP3    H245029   2.204   2.642  12.029  2.0009 -4.4029  1.0946
 7872TIP3   OH245030   2.251   0.593  10.911  0.4760  0.5562  0.1733
 7872TIP3    H145031   2.292   0.511  10.938  0.2644  0.3912 -0.0061
 7872TIP3    H245032   2.281   0.606  10.821  0.1501  0.4428  0.0476
 7873TIP3   OH245033   4.370   2.298  14.342  0.2940 -0.3942 -0.0582
 7873TIP3    H145034   4.301   2.345  14.390  1.1955 -0.1426  1.0322
 7873TIP3    H245035   4.451   2.325  14.385  1.0580 -0.8976 -1.1495
 7874TIP3   OH245036   3.735   3.360  13.423  0.0282  0.0870  0.8832
 7874TIP3    H145037   3.721   3.373  13.517 -1.6302  2.0808  0.4604
 7874TIP3    H245038   3.646   3.357  13.386  0.6383  0.6308 -0.7338
 7875TIP3   OH245039   2.433   5.630   3.506  0.5153 -0.6836 -0.3054
 7875TIP3    H145040   2.397   5.547   3.474  0.3516 -1.1913  1.0796
 7875TIP3    H245041   2.423   5.691   3.434 -0.6264 -1.5296 -0.8892
 7876TIP3   OH245042   1.609   6.343   0.679 -0.2356  0.0499 -0.3155
 7876TIP3    H145043   1.614   6.336   0.774  0.4859 -0.9492 -0.4091
 7876TIP3    H245044   1.516   6.334   0.659 -0.1477 -2.4019  0.1388
 7877TIP3   OH245045   1.345   2.386   5.798 -0.1338  0.5555  0.4174
 7877TIP3    H145046   1.265   2.352   5.837  1.2671 -0.8412  2.3024
 7877TIP3    H245047   1.409   2.315   5.810  1.2166  1.3299 -1.6629
 7878TIP3   OH245048   4.586   0.730   0.735 -0.4351  0.3747  0.1243
 7878TIP3    H145049   4.526   0.665   0.699  0.9185 -1.1193  0.4635
 7878TIP3    H245050   4.625   0.771   0.658 -0.3817 -0.1016 -0.1059
 7879TIP3   OH245051   3.881   4.871   2.015  0.3597  0.4748 -0.6307
 7879TIP3    H145052   3.848   4.805   1.954 -1.1388  0.8691 -0.2857
 7879TIP3    H245053   3.856   4.955   1.976  1.1039  0.7938 -0.4271
 7880TIP3   OH245054   3.929   5.577  13.309  0.1443 -0.1247 -0.5140
 7880TIP3    H145055   3.987   5.608  13.240 -0.5966 -0.5091 -1.3299
 7880TIP3    H245056   3.859   5.531  13.262  0.0588 -1.1067  0.5344
 7881TIP3   OH245057   1.224   4.826  12.163  0.1788  0.9099 -0.0905
 7881TIP3    H145058   1.168   4.807  12.239  0.5879  0.6722  0.1611
 7881TIP3    H245059   1.251   4.739  12.132  0.4862  1.0257 -0.1460
 7882TIP3   OH245060   6.399   2.723  11.199 -0.2207  0.3699 -0.1376
 7882TIP3    H145061   6.430   2.653  11.257 -0.7187 -0.2035 -0.5480
 7882TIP3    H245062   6.386   2.798  11.257  0.9802  0.3340  0.1915
 7883TIP3   OH245063   2.574   3.081   1.390 -0.9536  0.3615 -0.4175
 7883TIP3    H145064   2.558   3.156   1.448 -0.5618  1.1594 -1.3004
 7883TIP3    H245065   2.623   3.019   1.444 -0.6162  1.0684  0.1223
 7884TIP3   OH245066   4.797   4.827   5.013  0.2124  0.1433 -0.3526
 7884TIP3    H145067   4.856   4.901   5.026  2.1324 -0.9850 -2.0046
 7884TIP3    H245068   4.834   4.757   5.066 -0.0907 -0.3799 -0.8263
 7885TIP3   OH245069   2.464   4.122   5.188 -0.1487  0.0309  0.1644
 7885TIP3    H145070   2.402   4.188   5.157  0.7490  0.3876 -0.9195
 7885TIP3    H245071   2.447   4.045   5.133 -1.3209 -0.7614  1.5463
 7886TIP3   OH245072   1.771   2.862  15.332 -0.4405 -0.9509  0.5497
 7886TIP3    H145073   1.744   2.810  15.407 -0.2170 -1.0275  0.5771
 7886TIP3    H245074   1.722   2.944  15.341 -1.0277 -1.2691  0.3376
 7887TIP3   OH245075   1.943   2.314   3.844  0.0703 -0.5425  0.3224
 7887TIP3    H145076   2.029   2.328   3.805  0.3022  1.2789  1.3967
 7887TIP3    H245077   1.961   2.269   3.927 -0.0551 -0.5878  0.3256
 7888TIP3   OH245078   1.656   0.357   2.208 -0.0854  0.1878  0.5628
 7888TIP3    H145079   1.697   0.305   2.139 -0.5555  1.0960 -0.4309
 7888TIP3    H245080   1.728   0.407   2.246  0.0467  0.3180  0.1483
 7889TIP3   OH245081   5.931   6.698   3.913 -0.0295 -0.0840  0.0944
 7889TIP3    H145082   5.906   6.606   3.900 -0.4848 -0.1209  1.0805
 7889TIP3    H245083   5.895   6.744   3.838  0.6144 -0.7810 -0.6607
 7890TIP3   OH245084   4.110   3.390  14.983  0.0070  0.4767  0.4136
 7890TIP3    H145085   4.135   3.444  15.058 -1.6003  1.0775  0.5716
 7890TIP3    H245086   4.164   3.312  14.990 -0.8108  0.0236  2.8483
 7891TIP3   OH245087   6.698   4.106   6.727 -0.2246 -0.1386 -0.1323
 7891TIP3    H145088   6.617   4.056   6.720 -0.4401  0.1477  0.2514
 7891TIP3    H245089   6.702   4.157   6.646  0.2205 -1.0931 -0.7273
 7892TIP3   OH245090   1.194   0.282  15.794 -0.2040 -0.2768 -0.2605
 7892TIP3    H145091   1.170   0.291  15.887 -0.7288 -0.9720 -0.3168
 7892TIP3    H245092   1.288   0.264  15.795 -0.0310  0.6121  0.0827
 7893TIP3   OH245093   0.661   1.656  16.699  0.5135 -0.1899  0.2798
 7893TIP3    H145094   0.593   1.589  16.699  2.1685 -1.9585  0.4545
 7893TIP3    H245095   0.743   1.607  16.695  1.7892  1.8873 -2.9692
 7894TIP3   OH245096   6.462   3.782   4.398 -0.2435  0.1885  0.2559
 7894TIP3    H145097   6.395   3.850   4.403 -2.0030 -1.4585  0.3727
 7894TIP3    H245098   6.497   3.776   4.487  1.4862  2.3482 -0.2100
 7895TIP3   OH245099   1.899   4.455   0.217  0.4514 -0.2477 -0.0631
 7895TIP3    H145100   1.919   4.362   0.227 -0.5868 -0.4204  0.5855
 7895TIP3    H245101   1.961   4.500   0.275  0.9869 -0.5218 -0.4141
 7896TIP3   OH245102   0.865   1.528  17.082 -0.0225  0.3580  0.2996
 7896TIP3    H145103   0.876   1.464  17.153  3.4919  0.0681 -0.2978
 7896TIP3    H245104   0.804   1.486  17.021 -1.1463 -0.4858  1.9402
 7897TIP3   OH245105   1.395   5.017  13.045  0.4425 -0.0981  0.2404
 7897TIP3    H145106   1.318   5.035  12.992  0.1640  0.6040  0.8620
 7897TIP3    H245107   1.467   5.060  12.998  0.7690 -2.0261 -1.1481
 7898TIP3   OH245108   0.361   0.768  16.743 -0.2699  0.0863  0.2514
 7898TIP3    H145109   0.270   0.775  16.714 -0.6014  1.0116  1.4288
 7898TIP3    H245110   0.355   0.738  16.834  0.4767  2.0334  1.0061
 7899TIP3   OH245111   1.684   5.973   1.639  1.0947  0.6193  0.0639
 7899TIP3    H145112   1.588   5.967   1.637  1.1341 -2.0305  1.0137
 7899TIP3    H245113   1.704   5.995   1.730  1.3509 -1.6010  0.6202
 7900TIP3   OH245114   0.482   4.152   1.055  0.3371 -0.9343  0.2507
 7900TIP3    H145115   0.467   4.226   0.996  0.1728  0.0820  1.5240
 7900TIP3    H245116   0.428   4.082   1.018 -1.0880  0.1759  0.1108
 7901TIP3   OH245117   2.947   1.808  12.183 -0.3994  0.1087 -0.1812
 7901TIP3    H145118   3.005   1.737  12.212 -1.8829 -1.7889 -1.6393
 7901TIP3    H245119   2.859   1.773  12.193 -1.1279  0.9503 -2.8090
 7902TIP3   OH245120   2.854   2.408   1.710 -0.4533 -0.4325  0.2706
 7902TIP3    H145121   2.806   2.376   1.786 -0.6349 -0.8376 -0.0182
 7902TIP3    H245122   2.802   2.381   1.634 -1.3510  1.7141  0.0460
 7903TIP3   OH245123   5.873   1.856   0.238 -0.0947  0.4142 -0.0187
 7903TIP3    H145124   5.796   1.874   0.293 -0.9374  0.0605 -1.0444
 7903TIP3    H245125   5.878   1.932   0.180  1.0713  1.0103  0.8116
 7904TIP3   OH245126   0.910   4.096   5.564  0.2663 -0.2450  0.3554
 7904TIP3    H145127   0.862   4.045   5.499  1.2913  1.3402 -1.7433
 7904TIP3    H245128   0.881   4.186   5.550 -0.0434  0.0679  2.6559
 7905TIP3   OH245129   6.192   0.941  15.038  0.3781 -0.4448 -0.5823
 7905TIP3    H145130   6.121   0.896  14.992  0.6538 -0.9914 -0.4697
 7905TIP3    H245131   6.182   1.033  15.012 -0.9957 -0.3335  0.2245
 7906TIP3   OH245132   1.498   5.430   1.634  0.1696  0.0884  0.2896
 7906TIP3    H145133   1.565   5.484   1.591 -1.0990  1.0257 -0.5598
 7906TIP3    H245134   1.488   5.354   1.576 -0.6236  0.7279 -0.4315
 7907TIP3   OH245135   6.276   4.085   6.247  0.3151 -0.5789  0.1607
 7907TIP3    H145136   6.200   4.140   6.227  0.8190  0.1478  0.1984
 7907TIP3    H245137   6.242   4.017   6.306 -0.2930 -0.2378  0.2119
 7908TIP3   OH245138   2.506   6.314   3.806 -0.5856  0.4447  0.3777
 7908TIP3    H145139   2.427   6.295   3.857 -1.8532  3.2975 -0.2849
 7908TIP3    H245140   2.505   6.250   3.735 -2.1812  0.2217  0.5563
 7909TIP3   OH245141   5.252   2.770  14.362 -0.2412 -0.0616 -0.1211
 7909TIP3    H145142   5.233   2.736  14.450  1.2886 -1.2724 -0.2051
 7909TIP3    H245143   5.232   2.697  14.303  2.6991 -0.8417 -0.3460
 7910TIP3   OH245144   6.750   0.764   0.120 -0.1432  0.7635  0.2399
 7910TIP3    H145145   6.721   0.701   0.185 -0.2181  1.6979  1.1496
 7910TIP3    H245146   6.669   0.803   0.087 -0.1317 -0.0764 -0.8146
 7911TIP3   OH245147   4.318   4.854   0.790  0.4320 -0.3263 -0.1891
 7911TIP3    H145148   4.383   4.850   0.720 -1.2172  1.2856 -1.9446
 7911TIP3    H245149   4.254   4.786   0.768  1.0029 -1.2836  1.0062
 7912TIP3   OH245150   6.436   1.914   2.991  0.0022 -0.3569 -0.2393
 7912TIP3    H145151   6.425   1.883   3.081 -0.5299  0.9924  0.1879
 7912TIP3    H245152   6.479   1.999   3.000  0.9684 -0.7098 -1.3348
 7913TIP3   OH245153   3.346   4.715   5.485 -0.2471 -0.6237 -0.0331
 7913TIP3    H145154   3.401   4.688   5.412 -3.7032  0.1589 -3.1964
 7913TIP3    H245155   3.289   4.640   5.502 -0.6754 -0.1582  0.6744
 7914TIP3   OH245156   6.295   2.190  16.039 -0.1351  0.0979  0.0657
 7914TIP3    H145157   6.254   2.201  15.954 -0.5181 -1.6507 -0.0109
 7914TIP3    H245158   6.239   2.128  16.086  0.5806  0.2918  1.2315
 7915TIP3   OH245159   1.766   6.659  15.769 -0.0638  0.4612 -0.2425
 7915TIP3    H145160   1.804   6.708  15.842 -0.8979  1.7390 -0.6340
 7915TIP3    H245161   1.679   6.697  15.757 -0.5197 -0.7386 -0.9516
 7916TIP3   OH245162   3.935   4.502  14.452 -0.5494 -0.0201 -0.2783
 7916TIP3    H145163   4.006   4.545  14.499 -0.0121  0.0362 -1.1264
 7916TIP3    H245164   3.905   4.433  14.512 -0.4036  0.5480  0.4589
 7917TIP3   OH245165   4.053   6.687  11.253  0.2092  0.3209  0.3117
 7917TIP3    H145166   4.051   6.778  11.282  0.6589  0.2322  0.6291
 7917TIP3    H245167   4.005   6.687  11.170  1.4879  1.1247 -0.4519
 7918TIP3   OH245168   2.777   6.719   4.779 -0.2025  0.0481  0.4168
 7918TIP3    H145169   2.815   6.693   4.863  0.7687  0.2916  0.0686
 7918TIP3    H245170   2.746   6.636   4.741 -0.4815 -0.0874  0.9238
 7919TIP3   OH245171   3.760   3.788  16.623 -0.5825 -0.1558 -0.3931
 7919TIP3    H145172   3.829   3.748  16.570  1.1449  1.3423  0.6427
 7919TIP3    H245173   3.806   3.836  16.691 -2.5822  2.3326 -0.6511
 7920TIP3   OH245174   5.487   0.668   1.105 -0.2892  0.5083  0.0457
 7920TIP3    H145175   5.443   0.588   1.077 -0.1250  0.2451  0.5226
 7920TIP3    H245176   5.430   0.739   1.076 -0.5947  0.2024 -0.0985
 7921TIP3   OH245177   5.279   0.783  15.475 -0.4569 -0.1008 -0.2581
 7921TIP3    H145178   5.238   0.813  15.556 -1.7322 -0.5494 -0.7111
 7921TIP3    H245179   5.208   0.744  15.425  0.7514 -2.2440 -0.4788
 7922TIP3   OH245180   5.221   5.342   5.204 -0.2625 -0.1176  0.8462
 7922TIP3    H145181   5.186   5.391   5.130  0.2601 -0.1856  0.5509
 7922TIP3    H245182   5.316   5.349   5.195 -0.1231 -2.2650  0.0499
 7923TIP3   OH245183   3.956   0.139   6.199  0.4604  0.2101  0.3696
 7923TIP3    H145184   4.004   0.185   6.268 -0.8205  1.4008  0.5081
 7923TIP3    H245185   3.959   0.198   6.124  0.5052 -0.3809 -0.1034
 7924TIP3   OH245186   1.252   4.019  14.261  0.6750  0.3772  0.2120
 7924TIP3    H145187   1.205   4.096  14.294 -0.2746 -0.3721  0.6817
 7924TIP3    H245188   1.235   4.019  14.166  1.3234  1.1614  0.0913
 7925TIP3   OH245189   1.943   0.450   2.077  0.3895 -0.2542 -0.3756
 7925TIP3    H145190   2.001   0.377   2.101  0.2365 -0.3110 -0.1742
 7925TIP3    H245191   1.993   0.529   2.099 -0.4086 -0.2784  1.8605
 7926TIP3   OH245192   5.197   4.811  16.716 -0.0052  0.1690  0.6242
 7926TIP3    H145193   5.140   4.741  16.749 -1.8549  0.9953 -0.6813
 7926TIP3    H245194   5.199   4.875  16.788  0.6487 -0.6106  1.3198
 7927TIP3   OH245195   6.457   3.030   4.756 -0.0054 -1.1200  0.3108
 7927TIP3    H145196   6.428   3.071   4.674  1.3080 -1.0355 -0.1292
 7927TIP3    H245197   6.452   2.936   4.739 -0.5171 -1.1204  0.4304
 7928TIP3   OH245198   4.320   5.744   5.671  0.0335  0.3774  0.2946
 7928TIP3    H145199   4.340   5.828   5.631 -0.3473  0.4114  0.1655
 7928TIP3    H245200   4.261   5.701   5.608 -1.3124  0.7971  1.2137
 7929TIP3   OH245201   3.539   3.116   2.376 -0.0329  1.3535 -0.3388
 7929TIP3    H145202   3.599   3.181   2.339  0.0798  0.8165 -1.1339
 7929TIP3    H245203   3.533   3.138   2.469  1.1660  1.5890 -0.3082
 7930TIP3   OH245204   2.388   1.011   5.975 -0.3448 -0.1396 -0.3251
 7930TIP3    H145205   2.320   0.945   5.983 -1.2932  0.9823  2.1207
 7930TIP3    H245206   2.346   1.083   5.929  0.5283 -0.9651 -2.5234
 7931TIP3   OH245207   4.116   6.698   2.887  0.3192 -0.1700 -0.0074
 7931TIP3    H145208   4.155   6.762   2.947  0.3539  0.2386 -0.4554
 7931TIP3    H245209   4.040   6.664   2.934  1.3667 -1.2145  1.0136
 7932TIP3   OH245210   6.573   2.697  11.564  0.2513  0.0144 -0.1086
 7932TIP3    H145211   6.516   2.771  11.547  0.7728  0.4647  0.0822
 7932TIP3    H245212   6.656   2.720  11.522  0.4425 -0.4267  0.0136
 7933TIP3   OH245213   3.963   0.432  16.822  0.4131 -0.0416 -0.4770
 7933TIP3    H145214   3.939   0.479  16.743  0.4139 -0.6236 -0.8263
 7933TIP3    H245215   3.926   0.485  16.893 -0.7934 -0.2203 -0.9345
 7934TIP3   OH245216   5.832   3.023  15.788  0.4453  0.9761 -0.0885
 7934TIP3    H145217   5.917   2.984  15.771 -0.0769  0.5832 -2.0164
 7934TIP3    H245218   5.823   3.020  15.884  3.1698  2.3416  0.3148
 7935TIP3   OH245219   6.250   0.700  14.228  0.0691  0.3204  0.3143
 7935TIP3    H145220   6.201   0.756  14.289  0.1233  0.8760 -0.1500
 7935TIP3    H245221   6.216   0.612  14.245  0.4372  0.3800  1.5049
 7936TIP3   OH245222   4.422   5.256  16.981  0.6334  0.0145  0.6007
 7936TIP3    H145223   4.417   5.301  17.065 -0.0492 -0.2823  0.7244
 7936TIP3    H245224   4.412   5.163  17.003  1.6353 -0.1762  0.3072
 7937TIP3   OH245225   1.764   4.138  10.896  0.1279  0.2912 -0.5187
 7937TIP3    H145226   1.775   4.212  10.836 -1.0932  0.0369 -1.0836
 7937TIP3    H245227   1.675   4.149  10.931 -0.5514 -1.5565 -1.5466
 7938TIP3   OH245228   0.686   1.445  12.421  0.1939 -0.5715  0.6545
 7938TIP3    H145229   0.599   1.460  12.383  1.8281 -0.4431 -3.4682
 7938TIP3    H245230   0.677   1.363  12.470 -2.0313 -1.0171 -0.3861
 7939TIP3   OH245231   2.591   4.857  16.160 -0.0743 -0.5559  0.2281
 7939TIP3    H145232   2.555   4.804  16.230 -0.0010  0.4058  1.0110
 7939TIP3    H245233   2.676   4.886  16.192 -0.2984  0.4005  0.0170
 7940TIP3   OH245234   2.372   3.404  11.865 -0.4966  0.2277 -0.2643
 7940TIP3    H145235   2.306   3.350  11.821 -1.6511  1.7561 -0.4610
 7940TIP3    H245236   2.336   3.492  11.865  0.5334  0.7002  1.6877
 7941TIP3   OH245237   3.293   5.300   1.678 -0.0426 -1.0738  0.2917
 7941TIP3    H145238   3.388   5.301   1.668  0.0214 -0.4601  0.8378
 7941TIP3    H245239   3.259   5.306   1.589  0.4384 -0.5364  0.1368
 7942TIP3   OH245240   2.313   2.310   0.678  0.4957 -0.7291  0.1367
 7942TIP3    H145241   2.311   2.215   0.692 -1.3856 -0.8368 -0.4708
 7942TIP3    H245242   2.335   2.347   0.763 -0.1413 -1.6792  0.7328
 7943TIP3   OH245243   0.208   3.667   0.308 -0.3598 -0.0355  0.1357
 7943TIP3    H145244   0.301   3.654   0.325  0.2671  0.6336 -2.3869
 7943TIP3    H245245   0.199   3.761   0.293 -1.2834 -0.2075 -0.4881
 7944TIP3   OH245246   2.398   4.895  12.280 -0.5773 -0.2774  0.1354
 7944TIP3    H145247   2.458   4.858  12.345  0.7590 -0.8607 -1.3507
 7944TIP3    H245248   2.323   4.836  12.281 -0.6517 -0.1744  1.2621
 7945TIP3   OH245249   1.631   6.685  14.417  0.1559 -0.1948  0.2583
 7945TIP3    H145250   1.649   6.741  14.342 -3.1019  1.3007  0.4478
 7945TIP3    H245251   1.627   6.596  14.380  1.1448  0.1694 -0.8015
 7946TIP3   OH245252   0.133   3.506  11.634  0.2691 -0.4414 -1.0428
 7946TIP3    H145253   0.147   3.414  11.614  0.2352 -0.6396 -0.1528
 7946TIP3    H245254   0.043   3.511  11.667  0.1085 -0.0110 -1.5090
 7947TIP3   OH245255   1.182   2.520   4.801 -0.3191  0.8260 -0.3319
 7947TIP3    H145256   1.233   2.601   4.806  0.6283  0.1976  0.6879
 7947TIP3    H245257   1.128   2.520   4.881  0.7759 -0.2159  0.4539
 7948TIP3   OH245258   6.751   5.373   2.058  0.2328 -0.1454 -0.0641
 7948TIP3    H145259   6.807   5.340   2.129 -0.5076 -0.9301  0.1705
 7948TIP3    H245260   6.769   5.467   2.056  0.9562 -0.2560  0.5473
 7949TIP3   OH245261   3.559   5.696   1.274  0.0503 -0.1706  0.5566
 7949TIP3    H145262   3.511   5.649   1.206 -0.7540  3.7012 -1.8663
 7949TIP3    H245263   3.651   5.682   1.253 -0.1886  0.7663 -1.3303
 7950TIP3   OH245264   0.245   5.377  11.839  0.1376  0.1705  0.5082
 7950TIP3    H145265   0.245   5.296  11.891 -2.0553  0.6964  1.4463
 7950TIP3    H245266   0.175   5.363  11.775  0.7415  0.7635 -0.2909
 7951TIP3   OH245267   2.203   5.485   1.251 -0.3079  0.3069  0.0772
 7951TIP3    H145268   2.257   5.418   1.294 -0.6033  0.2124  0.3057
 7951TIP3    H245269   2.261   5.560   1.242 -0.1106  0.1772  0.2432
 7952TIP3   OH245270   3.510   4.938   5.357  0.2885 -0.0524 -0.2063
 7952TIP3    H145271   3.562   4.907   5.431  1.3241  1.1579 -0.4067
 7952TIP3    H245272   3.565   5.002   5.313 -0.3546 -0.6519 -1.9803
 7953TIP3   OH245273   6.154   0.572  17.264  0.0658  0.3382 -0.4813
 7953TIP3    H145274   6.146   0.478  17.280  2.3881  0.3333  1.1728
 7953TIP3    H245275   6.212   0.578  17.188 -1.1818  0.4745 -1.4587
 7954TIP3   OH245276   4.482   5.142  14.788  0.1031  0.1629 -0.6871
 7954TIP3    H145277   4.573   5.160  14.765  0.5849 -0.4412  0.6624
 7954TIP3    H245278   4.487   5.084  14.864 -1.4107  1.5375  0.5379
 7955TIP3   OH245279   0.551   3.458  13.130  0.5751 -0.3383  0.7549
 7955TIP3    H145280   0.640   3.434  13.106  1.0301  2.2861 -0.6060
 7955TIP3    H245281   0.496   3.400  13.078  1.5474 -0.0002 -0.7266
 7956TIP3   OH245282   6.673   2.477   1.274  0.0870 -0.6578 -0.0879
 7956TIP3    H145283   6.722   2.424   1.211 -1.2543  0.2209 -1.9637
 7956TIP3    H245284   6.582   2.449   1.263 -0.6093  1.6914 -0.8434
 7957TIP3   OH245285   4.512   6.491  13.583 -0.2147 -0.3256 -0.4411
 7957TIP3    H145286   4.594   6.504  13.535 -0.7695  0.1419 -1.2937
 7957TIP3    H245287   4.444   6.499  13.516 -0.9742 -0.4400  0.3001
 7958TIP3   OH245288   2.479   1.174  17.304  0.2726 -0.2228  0.0668
 7958TIP3    H145289   2.501   1.102  17.364  1.6616  0.0157 -0.1292
 7958TIP3    H245290   2.447   1.130  17.225  1.0979 -0.6349 -0.0469
 7959TIP3   OH245291   6.284   1.319   3.580  0.0317  0.1016  0.5540
 7959TIP3    H145292   6.237   1.300   3.661 -0.3918  1.0669  0.5461
 7959TIP3    H245293   6.377   1.310   3.603 -0.0699  0.8210  1.2598
 7960TIP3   OH245294   2.418   1.250   0.738 -0.7301 -0.2694 -0.8450
 7960TIP3    H145295   2.514   1.252   0.736 -0.7071  1.5196 -0.1604
 7960TIP3    H245296   2.392   1.298   0.659 -1.0158  0.5962 -0.2417
 7961TIP3   OH245297   1.162   3.593  11.186 -0.0042 -0.2105 -0.2113
 7961TIP3    H145298   1.125   3.560  11.104  0.1114  0.0805 -0.3824
 7961TIP3    H245299   1.226   3.526  11.212  0.6123  0.1370 -0.8335
 7962TIP3   OH245300   3.168   0.827  11.806 -0.4394 -0.3787 -0.0254
 7962TIP3    H145301   3.084   0.874  11.807 -0.3713 -0.2605  0.1892
 7962TIP3    H245302   3.198   0.834  11.715  0.8560  2.2850  0.5270
 7963TIP3   OH245303   0.442   0.397  16.827  0.1164 -0.1654  0.4500
 7963TIP3    H145304   0.488   0.475  16.857  0.9367 -0.0420 -1.0002
 7963TIP3    H245305   0.510   0.332  16.815 -0.2856 -0.4810 -0.2075
 7964TIP3   OH245306   3.811   3.240  15.259  0.6155 -0.0215 -0.1982
 7964TIP3    H145307   3.725   3.265  15.293 -0.7925  1.1035 -4.0766
 7964TIP3    H245308   3.871   3.306  15.295 -0.9109  1.6582 -0.6163
 7965TIP3   OH245309   0.401   3.209  13.061  0.4153 -0.8061 -0.8207
 7965TIP3    H145310   0.306   3.208  13.052  0.3471 -0.8698 -0.1336
 7965TIP3    H245311   0.417   3.182  13.151  0.9406  2.1390  0.0819
 7966TIP3   OH245312   1.097   4.210   5.961 -0.4875  0.3103  0.4279
 7966TIP3    H145313   1.012   4.200   5.918 -0.2798 -0.0083  0.0874
 7966TIP3    H245314   1.154   4.147   5.917 -0.1512  0.3081  0.8558
 7967TIP3   OH245315   6.003   6.065   5.802 -0.2571 -0.3850  0.0048
 7967TIP3    H145316   5.933   6.054   5.866 -0.2841  1.4295  0.3339
 7967TIP3    H245317   5.961   6.108   5.728  0.1984 -0.6885 -0.4376
 7968TIP3   OH245318   6.515   4.315  11.556  0.8393 -0.0021  0.0408
 7968TIP3    H145319   6.422   4.321  11.534  0.8417 -2.0058 -0.7023
 7968TIP3    H245320   6.528   4.382  11.622 -1.5336 -0.7835  1.4204
 7969TIP3   OH245321   1.396   1.732  15.040  0.2777 -0.2391 -0.1376
 7969TIP3    H145322   1.412   1.737  15.134  1.2491 -1.1059 -0.2395
 7969TIP3    H245323   1.392   1.638  15.021 -2.5291 -0.1147 -0.5623
 7970TIP3   OH245324   4.990   1.937   0.397 -0.1141 -0.2276  0.1661
 7970TIP3    H145325   4.999   2.033   0.395  0.7604 -0.3038  0.1710
 7970TIP3    H245326   5.069   1.906   0.441  0.4022 -1.0481 -1.2772
 7971TIP3   OH245327   4.642   6.498  14.478  0.1411  0.0929  0.0976
 7971TIP3    H145328   4.698   6.510  14.554  0.4875  2.5899 -0.4680
 7971TIP3    H245329   4.563   6.548  14.497 -0.4763 -0.6171 -0.5188
 7972TIP3   OH245330   6.371   0.222   3.479  0.1854 -0.0029  0.3490
 7972TIP3    H145331   6.296   0.179   3.521  0.7834 -0.7843  0.6345
 7972TIP3    H245332   6.351   0.218   3.385  0.4689 -1.3835  0.3325
 7973TIP3   OH245333   5.615   4.739  15.581 -0.4104  0.1345 -0.5089
 7973TIP3    H145334   5.569   4.789  15.514  0.1685  0.7867 -0.4238
 7973TIP3    H245335   5.611   4.648  15.550 -0.5536  0.3657 -1.1837
 7974TIP3   OH245336   3.600   6.419  11.948 -0.4273  0.1410 -0.5679
 7974TIP3    H145337   3.618   6.325  11.953  0.1011  0.1072 -2.2828
 7974TIP3    H245338   3.663   6.459  12.007 -1.0362 -0.6006  0.6193
 7975TIP3   OH245339   5.481   5.358  14.938 -0.8032 -0.1736 -0.1827
 7975TIP3    H145340   5.548   5.341  14.871 -0.6254  0.3135 -0.1356
 7975TIP3    H245341   5.411   5.296  14.919 -1.9480  1.6510 -2.4469
 7976TIP3   OH245342   3.584   0.289   2.745 -0.0251  0.2144 -0.3378
 7976TIP3    H145343   3.536   0.214   2.709  0.5708 -1.3268  1.8685
 7976TIP3    H245344   3.518   0.357   2.757 -1.0513 -0.7819 -0.2044
 7977TIP3   OH245345   3.244   4.425   4.349 -0.0266  0.2341  0.0920
 7977TIP3    H145346   3.299   4.365   4.399 -0.1292 -0.8061 -1.0030
 7977TIP3    H245347   3.203   4.370   4.282 -1.8070  1.1318  0.3978
 7978TIP3   OH245348   3.470   6.722   1.638  0.1057 -0.1306  0.7945
 7978TIP3    H145349   3.530   6.795   1.653 -0.3587  0.2557  0.8034
 7978TIP3    H245350   3.481   6.665   1.714  0.6724 -0.2148  0.6544
 7979TIP3   OH245351   2.102   5.311   2.969 -0.1249 -0.0067  0.4061
 7979TIP3    H145352   2.145   5.274   3.047  1.2821  0.0382 -0.3137
 7979TIP3    H245353   2.009   5.312   2.991  0.0775 -1.5038  1.4633
 7980TIP3   OH245354   3.526   2.061  13.485 -0.1558 -0.4480 -0.2236
 7980TIP3    H145355   3.479   2.105  13.557 -0.9433 -0.3392 -0.7923
 7980TIP3    H245356   3.601   2.118  13.467 -0.1828 -0.2650  0.2403
 7981TIP3   OH245357   1.421   3.921   6.337 -0.8405 -0.7209  0.6527
 7981TIP3    H145358   1.335   3.931   6.378 -0.4310  0.8512  1.2062
 7981TIP3    H245359   1.434   4.003   6.289  0.9593 -0.2638  1.8091
 7982TIP3   OH245360   4.738   5.435   5.726  0.0004 -0.2485 -0.0362
 7982TIP3    H145361   4.665   5.479   5.770 -0.6440  0.4071 -1.6417
 7982TIP3    H245362   4.809   5.436   5.790 -0.5147  1.7043  0.5832
 7983TIP3   OH245363   3.109   5.317   3.661 -0.1508 -0.3775  0.4641
 7983TIP3    H145364   3.165   5.312   3.583  0.0565 -2.9146  0.6624
 7983TIP3    H245365   3.024   5.342   3.627  0.4986  1.0043 -0.2099
 7984TIP3   OH245366   1.011   3.562  10.695  0.3011 -0.8189  0.5992
 7984TIP3    H145367   1.089   3.532  10.648  1.2609  1.8355  0.3216
 7984TIP3    H245368   0.938   3.522  10.649  1.4007 -1.4270 -0.6862
 7985TIP3   OH245369   2.560   4.864  16.551  0.0806 -0.4720  0.0367
 7985TIP3    H145370   2.650   4.834  16.538 -0.1179 -0.8331 -0.5570
 7985TIP3    H245371   2.511   4.824  16.479 -0.4985 -0.0288  0.1783
 7986TIP3   OH245372   2.789   3.475  12.579 -0.1468 -0.0766 -0.0905
 7986TIP3    H145373   2.794   3.382  12.598 -0.1369 -0.3772 -1.4190
 7986TIP3    H245374   2.715   3.484  12.519  0.5055  0.5896 -0.8391
 7987TIP3   OH245375   1.584   3.910  13.099 -0.6722  0.1533  0.3562
 7987TIP3    H145376   1.517   3.867  13.152  0.5584 -2.7796 -0.2761
 7987TIP3    H245377   1.619   3.979  13.156 -2.8346  0.4518  1.4107
 7988TIP3   OH245378   2.543   5.098  11.163 -0.2859 -0.0411 -0.2267
 7988TIP3    H145379   2.514   5.095  11.254  1.0655 -0.8613  0.2091
 7988TIP3    H245380   2.540   5.191  11.139 -1.6056  0.0700  0.3196
 7989TIP3   OH245381   3.745   2.519  13.723 -0.0945 -0.1254  0.1954
 7989TIP3    H145382   3.714   2.487  13.638 -1.2496 -1.7852  1.1779
 7989TIP3    H245383   3.761   2.612  13.709  0.7217 -0.5350 -2.0876
 7990TIP3   OH245384   5.571   6.554  15.678 -0.4464 -0.2753 -0.3541
 7990TIP3    H145385   5.646   6.535  15.621 -0.0721 -0.5920  0.2387
 7990TIP3    H245386   5.510   6.602  15.621  1.1918  2.0913 -0.2634
 7991TIP3   OH245387   2.502   0.795  11.436  0.5310  0.1123 -0.1991
 7991TIP3    H145388   2.450   0.719  11.410 -1.7504  0.7137  2.1236
 7991TIP3    H245389   2.549   0.767  11.514 -0.1462  0.9631  0.5401
 7992TIP3   OH245390   0.081   1.758  11.167 -1.1915 -0.0144 -0.4272
 7992TIP3    H145391   0.031   1.682  11.137  0.3019 -1.1874 -0.0529
 7992TIP3    H245392   0.155   1.763  11.107 -0.2784  0.0012  0.6756
 7993TIP3   OH245393   1.720   3.951   5.957  0.0257  1.1021  0.5541
 7993TIP3    H145394   1.748   3.916   5.872 -2.2009 -1.7505  0.8207
 7993TIP3    H245395   1.672   4.031   5.936 -0.5103  0.4257 -0.9486
 7994TIP3   OH245396   2.388   0.458  16.306  0.3168 -0.1605  0.0890
 7994TIP3    H145397   2.324   0.525  16.328  1.2391  0.6563  0.3982
 7994TIP3    H245398   2.395   0.404  16.385 -0.0285 -0.2919  0.0326
 7995TIP3   OH245399   4.959   2.497   0.344 -0.7625 -0.4156  1.2147
 7995TIP3    H145400   4.872   2.528   0.320 -0.8129 -1.3355  0.1159
 7995TIP3    H245401   4.970   2.524   0.435 -1.2702  1.7325  0.6885
 7996TIP3   OH245402   6.264   0.625   0.411 -0.3261  0.5379  0.2033
 7996TIP3    H145403   6.318   0.699   0.384 -2.4555  0.9641 -3.5326
 7996TIP3    H245404   6.324   0.550   0.410  1.1186  1.6424  0.6826
 7997TIP3   OH245405   5.887   0.403  12.417  0.9327 -0.2845 -0.2577
 7997TIP3    H145406   5.892   0.487  12.462  2.7661  0.9942 -2.5740
 7997TIP3    H245407   5.800   0.369  12.439 -0.2803  2.6693  0.0372
 7998TIP3   OH245408   3.479   1.581   5.967 -0.2583  0.2671 -0.4705
 7998TIP3    H145409   3.545   1.576   6.036  0.1945 -0.0671 -0.9212
 7998TIP3    H245410   3.418   1.510   5.988 -0.3306  0.4032 -0.2080
 7999TIP3   OH245411   0.968   3.486   5.562  0.2245  0.5277  0.2950
 7999TIP3    H145412   0.952   3.490   5.656  0.9827  1.4596  0.3974
 7999TIP3    H245413   0.891   3.528   5.523 -1.8449 -2.9115  0.2423
 8000TIP3   OH245414   1.836   2.082  14.074  0.5494  0.1200  0.1569
 8000TIP3    H145415   1.919   2.042  14.098  0.6538 -0.2827 -0.8471
 8000TIP3    H245416   1.830   2.160  14.129  1.7283  0.3198  0.0203
 8001TIP3   OH245417   6.062   5.339   4.059 -0.2168 -0.4772 -0.4125
 8001TIP3    H145418   6.115   5.259   4.056 -1.7286 -1.4794 -2.4983
 8001TIP3    H245419   6.020   5.343   3.973 -0.7011  2.2457 -0.1259
 8002TIP3   OH245420   3.134   6.488  10.696  0.0061 -0.4725  0.2020
 8002TIP3    H145421   3.145   6.406  10.744 -1.6042 -0.0492  1.3753
 8002TIP3    H245422   3.214   6.495  10.643 -0.5070 -3.5769 -1.2078
 8003TIP3   OH245423   2.847   2.053  16.609  0.2808 -0.6235  0.6135
 8003TIP3    H145424   2.881   2.142  16.612 -0.1863 -0.4575  1.0285
 8003TIP3    H245425   2.852   2.022  16.699 -2.7271  0.2038  1.1968
 8004TIP3   OH245426   4.089   6.243   4.762  1.1535  0.1492 -1.0011
 8004TIP3    H145427   4.167   6.298   4.753  0.8484  0.4783 -1.7786
 8004TIP3    H245428   4.016   6.305   4.764  1.0132  0.0355  2.3347
 8005TIP3   OH245429   6.455   2.751  13.469  0.1753 -0.6581  0.5500
 8005TIP3    H145430   6.475   2.661  13.444  0.5461 -0.1979 -0.8727
 8005TIP3    H245431   6.395   2.782  13.402  3.2793  1.4757 -1.5076
 8006TIP3   OH245432   6.754   3.585   1.655 -0.3807 -1.0304 -0.2066
 8006TIP3    H145433   6.759   3.596   1.750 -0.3464 -0.8183 -0.2326
 8006TIP3    H245434   6.829   3.633   1.621  0.0216 -1.7102 -0.2987
 8007TIP3   OH245435   5.533   4.833  11.943  0.0385 -0.4183  0.1193
 8007TIP3    H145436   5.534   4.887  12.022  0.6073  0.4309 -0.4376
 8007TIP3    H245437   5.478   4.882  11.882 -0.9565 -1.4086  0.2104
 8008TIP3   OH245438   4.280   0.438  16.041 -0.2142 -0.5433 -0.1431
 8008TIP3    H145439   4.327   0.376  15.984 -1.4225 -0.4672 -1.2819
 8008TIP3    H245440   4.348   0.494  16.077  0.8747 -2.2613  0.5907
 8009TIP3   OH245441   3.015   6.305   6.025 -0.6226 -0.3021  0.0938
 8009TIP3    H145442   2.948   6.353   5.976 -0.0001 -1.2393 -1.7719
 8009TIP3    H245443   3.043   6.366   6.094 -0.3505  1.7520 -1.7309
 8010TIP3   OH245444   2.254   3.813  13.569  0.1170 -0.1288 -0.0993
 8010TIP3    H145445   2.221   3.902  13.556 -1.4679 -0.8376 -1.1682
 8010TIP3    H245446   2.236   3.794  13.662 -0.0735  0.4481 -0.0178
 8011TIP3   OH245447   3.158   0.608   1.476  0.2371  0.2797  0.4476
 8011TIP3    H145448   3.152   0.529   1.530  1.3968  0.2958  0.6305
 8011TIP3    H245449   3.079   0.657   1.496 -0.3584 -0.7019  0.5487
 8012TIP3   OH245450   6.042   6.014   3.344 -0.2803 -0.5040  0.4152
 8012TIP3    H145451   6.046   6.050   3.433 -0.7678  2.6431 -0.6992
 8012TIP3    H245452   5.976   5.945   3.350 -1.3435  0.5555  2.2600
 8013TIP3   OH245453   1.168   4.021  11.328 -0.0803 -0.1513 -0.0919
 8013TIP3    H145454   1.246   4.033  11.275  0.1178 -0.0146  0.2281
 8013TIP3    H245455   1.099   4.069  11.281  0.5184  1.6559  0.7664
 8014TIP3   OH245456   0.159   6.555  12.902 -0.0234  0.7273 -0.0650
 8014TIP3    H145457   0.075   6.564  12.947 -1.0147 -0.6249 -1.5459
 8014TIP3    H245458   0.219   6.520  12.969 -1.2477 -0.4773  0.4442
 8015TIP3   OH245459   1.654   1.750   1.005  0.2428 -0.3870  0.3227
 8015TIP3    H145460   1.686   1.666   1.038 -0.6783 -0.0285  2.2757
 8015TIP3    H245461   1.691   1.815   1.065  0.7905  0.6074 -1.0500
 8016TIP3   OH245462   0.193   2.684  11.665  0.9258  0.3029  0.0348
 8016TIP3    H145463   0.140   2.697  11.586  0.8395  2.4005  0.3635
 8016TIP3    H245464   0.169   2.757  11.722  2.8936  0.3284  0.9229
 8017TIP3   OH245465   3.237   1.218  14.808  0.1487  0.7185  0.1888
 8017TIP3    H145466   3.275   1.298  14.843 -0.5362  1.7151 -1.2596
 8017TIP3    H245467   3.142   1.230  14.816  0.0420 -0.1476  0.3674
 8018TIP3   OH245468   2.766   1.273  14.127  0.0832 -0.6595 -0.0056
 8018TIP3    H145469   2.749   1.288  14.034 -1.0167 -2.8662 -0.2195
 8018TIP3    H245470   2.710   1.199  14.151  1.2864 -0.9860  2.1143
 8019TIP3   OH245471   6.460   2.882  12.707  0.3024  0.0243  0.2526
 8019TIP3    H145472   6.512   2.903  12.784  1.2454 -1.4116  0.0581
 8019TIP3    H245473   6.412   2.962  12.687  0.6859  0.6735  1.8181
 8020TIP3   OH245474   5.387   2.273   3.875 -0.7800 -0.4247 -0.5780
 8020TIP3    H145475   5.342   2.264   3.960 -0.2577 -2.1959 -0.4508
 8020TIP3    H245476   5.316   2.286   3.812 -1.3540 -1.3707 -0.1493
 8021TIP3   OH245477   3.072   0.139   2.124 -0.9161 -0.1100 -0.0668
 8021TIP3    H145478   3.147   0.095   2.084 -0.6149  0.2187  0.1252
 8021TIP3    H245479   3.079   0.230   2.095 -1.9285 -0.3293 -1.0229
 8022TIP3   OH245480   5.063   4.344  12.196  0.1574 -0.4947  0.4448
 8022TIP3    H145481   5.121   4.288  12.247  1.9269  0.4835 -0.3746
 8022TIP3    H245482   5.118   4.375  12.123 -0.9163  1.7448  0.4985
 8023TIP3   OH245483   5.082   5.213   6.306  0.1860  0.0801  0.3675
 8023TIP3    H145484   5.136   5.136   6.323  0.8556  0.3512 -0.4914
 8023TIP3    H245485   5.138   5.287   6.329  0.1630  0.3621 -0.4654
 8024TIP3   OH245486   0.789   0.471  12.926 -0.1823 -0.0230  0.0062
 8024TIP3    H145487   0.745   0.409  12.867  0.4840 -0.1605 -0.3596
 8024TIP3    H245488   0.727   0.543  12.935 -0.4168 -0.1287 -0.6526
 8025TIP3   OH245489   1.288   1.057   0.138  0.5310 -0.2807 -0.0131
 8025TIP3    H145490   1.250   1.140   0.166  1.7248  0.1335  0.4181
 8025TIP3    H245491   1.238   1.033   0.060  0.3149  0.9420 -0.2641
 8026TIP3   OH245492   1.790   3.397  16.221 -0.0190 -0.4525  0.4249
 8026TIP3    H145493   1.833   3.414  16.138  2.6588  0.1739  1.8281
 8026TIP3    H245494   1.814   3.307  16.243 -0.2475 -0.4263  0.7979
 8027TIP3   OH245495   0.873   0.551  16.962  0.6956  0.2456  0.0908
 8027TIP3    H145496   0.955   0.600  16.957  0.4768  0.4815 -1.5117
 8027TIP3    H245497   0.893   0.467  16.921  0.6255 -0.4386  1.3931
 8028TIP3   OH245498   4.898   6.337  14.791 -0.0685 -0.0916  0.6560
 8028TIP3    H145499   4.877   6.244  14.782  0.4324 -0.0811 -0.9716
 8028TIP3    H245500   4.812   6.380  14.797 -0.4103 -0.4807 -0.9578
 8029TIP3   OH245501   1.201   1.951  13.606  0.1376 -0.2276  0.0740
 8029TIP3    H145502   1.163   1.999  13.532 -0.2956 -0.7140 -0.0208
 8029TIP3    H245503   1.127   1.933  13.664  0.5178  0.3913  0.7702
 8030TIP3   OH245504   4.147   6.081   2.754  0.5823  0.6693 -0.0032
 8030TIP3    H145505   4.150   5.987   2.768 -3.6630  0.3102  0.0036
 8030TIP3    H245506   4.215   6.098   2.689  0.1985 -2.8049 -1.5800
 8031TIP3   OH245507   2.103   3.627  11.248 -0.1130  1.0351 -0.4154
 8031TIP3    H145508   2.145   3.711  11.226 -1.8440  1.1638 -4.1354
 8031TIP3    H245509   2.152   3.562  11.198 -2.1268  0.7445 -2.1542
 8032TIP3   OH245510   1.783   0.943   4.480 -0.6335 -0.0861 -0.0106
 8032TIP3    H145511   1.718   0.997   4.524 -0.5317  0.1483 -0.1501
 8032TIP3    H245512   1.827   1.002   4.418  0.2761 -0.0519  0.6547
 8033TIP3   OH245513   0.027   1.415   3.318 -0.4330 -0.3121 -0.1628
 8033TIP3    H145514   0.029   1.328   3.358  3.2422  0.4410  1.8036
 8033TIP3    H245515   0.046   1.475   3.391 -0.7070  1.9174 -1.8179
 8034TIP3   OH245516   3.099   4.206   3.860  0.8981 -0.0723 -0.3259
 8034TIP3    H145517   3.164   4.183   3.794 -2.4771  0.7641 -4.3769
 8034TIP3    H245518   3.055   4.123   3.880  2.9987 -0.6645  2.5166
 8035TIP3   OH245519   2.064   0.750  11.620  0.1449 -0.1019  0.3031
 8035TIP3    H145520   2.031   0.681  11.562  2.6402  0.8386 -2.4788
 8035TIP3    H245521   2.104   0.702  11.693  0.2645 -1.5563 -0.6660
 8036TIP3   OH245522   2.352   0.606   6.357 -0.2244  0.0639 -0.5524
 8036TIP3    H145523   2.435   0.630   6.316  0.2463 -0.3900  0.1125
 8036TIP3    H245524   2.299   0.686   6.354 -0.9794 -0.4116 -3.8037
 8037TIP3   OH245525   2.058   4.349  16.275  0.2371  0.4535  0.1049
 8037TIP3    H145526   1.992   4.418  16.265 -0.1791 -0.1809 -2.0487
 8037TIP3    H245527   2.018   4.272  16.236  1.2946 -0.6346  1.0922
 8038TIP3   OH245528   0.357   1.070  11.787  0.0200 -0.3791  0.0161
 8038TIP3    H145529   0.327   1.092  11.875 -1.2144  1.6450 -0.8336
 8038TIP3    H245530   0.278   1.077  11.732  1.0592  0.0612 -1.4937
 8039TIP3   OH245531   3.988   4.751   0.562 -0.5045  0.2368 -0.4062
 8039TIP3    H145532   3.905   4.770   0.606 -1.3742  0.0720 -1.9160
 8039TIP3    H245533   4.054   4.791   0.618 -1.7040  1.5417  0.1402
 8040TIP3   OH245534   4.458   2.973   3.860  0.5634  0.3310 -0.0100
 8040TIP3    H145535   4.415   3.030   3.796 -0.2630 -3.3003 -3.0590
 8040TIP3    H245536   4.523   2.925   3.809  1.5371 -1.1291  2.4281
 8041TIP3   OH245537   6.619   4.422  16.866 -0.6382 -0.2130  0.1613
 8041TIP3    H145538   6.594   4.425  16.773  0.7238 -1.3435 -0.2549
 8041TIP3    H245539   6.604   4.512  16.896 -0.8371  0.2474 -1.2123
 8042TIP3   OH245540   1.289   1.839   0.322  0.2706  0.0329  0.3615
 8042TIP3    H145541   1.373   1.818   0.283 -0.6966 -0.9130 -1.3361
 8042TIP3    H245542   1.240   1.757   0.319 -0.8667  0.6669  0.9156
 8043TIP3   OH245543   1.868   1.426  11.696  0.3608 -0.5582 -0.2909
 8043TIP3    H145544   1.913   1.398  11.775  0.6581 -1.8589 -0.8975
 8043TIP3    H245545   1.802   1.359  11.680  0.1745 -0.2115 -1.0418
 8044TIP3   OH245546   0.413   6.760  11.597  0.3937  0.0654  0.2409
 8044TIP3    H145547   0.323   6.747  11.568  0.2081  1.8461 -0.0637
 8044TIP3    H245548   0.434   6.681  11.647 -1.2391 -0.4822  0.0970
 8045TIP3   OH245549   1.468   4.587  13.783  0.3351 -0.3042  0.1804
 8045TIP3    H145550   1.457   4.655  13.717  0.4173  0.9069  1.3719
 8045TIP3    H245551   1.547   4.613  13.831 -0.9094  0.0916  2.1477
 8046TIP3   OH245552   6.337   5.194  12.176 -0.0214 -0.0306 -0.8349
 8046TIP3    H145553   6.428   5.210  12.203  0.0750 -2.2375  0.4068
 8046TIP3    H245554   6.310   5.118  12.228 -2.5880  0.5416 -1.2161
 8047TIP3   OH245555   2.415   1.867  10.492 -0.3199 -0.3009  0.3724
 8047TIP3    H145556   2.348   1.932  10.472 -0.0255  0.5241  1.8817
 8047TIP3    H245557   2.376   1.813  10.560  0.6933  0.5331  1.6713
 8048TIP3   OH245558   0.858   0.863   3.340 -0.4306  0.5242 -0.1701
 8048TIP3    H145559   0.894   0.795   3.283 -1.5890 -2.3368  2.2466
 8048TIP3    H245560   0.764   0.865   3.318 -0.8387 -0.4188  1.3421
 8049TIP3   OH245561   4.061   0.729  11.114 -0.1166  0.5189 -0.0882
 8049TIP3    H145562   3.984   0.690  11.155  0.3526 -1.4380 -0.9791
 8049TIP3    H245563   4.048   0.716  11.020  1.2325  0.2469 -0.2633
 8050TIP3   OH245564   2.618   5.193   0.796  0.5719  0.2380  0.2365
 8050TIP3    H145565   2.650   5.253   0.863 -1.5505  0.3144  1.2748
 8050TIP3    H245566   2.538   5.234   0.763 -1.2155 -2.1209  1.3073
 8051TIP3   OH245567   2.204   4.197  13.405 -0.0454  0.0267 -0.2173
 8051TIP3    H145568   2.181   4.108  13.381 -0.5950  0.1641 -0.2119
 8051TIP3    H245569   2.294   4.191  13.436 -0.6911 -0.8640  1.6007
 8052TIP3   OH245570   5.205   4.878   4.031 -0.7688 -0.2090 -0.5533
 8052TIP3    H145571   5.190   4.837   4.116  0.4448  0.8228  0.2118
 8052TIP3    H245572   5.119   4.883   3.990 -1.2031 -1.7835  0.1037
 8053TIP3   OH245573   6.598   1.090   0.318 -0.5484 -0.1785  0.5690
 8053TIP3    H145574   6.671   1.041   0.356  0.4599 -0.0585 -1.1170
 8053TIP3    H245575   6.612   1.086   0.223 -2.6869 -0.0499  0.1862
 8054TIP3   OH245576   4.295   3.828   3.866  0.2668  0.1066  0.4053
 8054TIP3    H145577   4.329   3.745   3.900 -0.5480 -0.8086 -0.9401
 8054TIP3    H245578   4.285   3.883   3.944  1.7738 -0.6884  1.2101
 8055TIP3   OH245579   3.516   6.402   6.206 -0.1013 -0.0492  0.2319
 8055TIP3    H145580   3.550   6.314   6.220  1.3010  0.2399 -1.1586
 8055TIP3    H245581   3.436   6.390   6.154 -1.1338 -0.5999  1.8650
 8056TIP3   OH245582   0.532   1.185  16.094 -0.3999 -0.2717  0.3602
 8056TIP3    H145583   0.502   1.095  16.112  1.0019 -0.5986  1.1676
 8056TIP3    H245584   0.455   1.228  16.058 -1.4737 -1.4423  1.1504
 8057TIP3   OH245585   2.368   0.629  17.260 -0.0548  0.2351  0.1406
 8057TIP3    H145586   2.355   0.620  17.354 -0.8347  0.6730  0.0777
 8057TIP3    H245587   2.400   0.543  17.232  0.6311  0.2414  0.8721
 8058TIP3   OH245588   4.956   4.671  12.613 -0.0354 -0.3346  0.7110
 8058TIP3    H145589   5.012   4.622  12.553 -1.4756 -1.9794  0.6269
 8058TIP3    H245590   5.006   4.675  12.695 -0.2057 -2.8464  1.0218
 8059TIP3   OH245591   0.645   4.847  15.225 -0.1433 -0.3033  0.3573
 8059TIP3    H145592   0.589   4.918  15.191  0.8126  1.4532  2.2268
 8059TIP3    H245593   0.688   4.811  15.147 -2.7696 -0.7970 -0.9754
 8060TIP3   OH245594   5.612   2.542  10.739 -0.3842 -0.1083 -0.3991
 8060TIP3    H145595   5.593   2.449  10.751  1.0313 -0.2789  0.9292
 8060TIP3    H245596   5.591   2.560  10.647 -0.1665 -1.8680 -0.8209
 8061TIP3   OH245597   1.551   2.744   1.153  0.1141  0.0088 -0.1570
 8061TIP3    H145598   1.589   2.767   1.237 -1.4072  1.8829  0.0929
 8061TIP3    H245599   1.594   2.802   1.090 -1.3044  1.2144 -0.0663
 8062TIP3   OH245600   1.457   5.928  16.692  0.2911  0.5394  0.5888
 8062TIP3    H145601   1.495   5.935  16.780  0.1953  1.6197  0.5617
 8062TIP3    H245602   1.380   5.873  16.703  1.8730 -1.7934  0.6328
 8063TIP3   OH245603   0.075   2.740   0.450  0.1552  0.5698  0.3548
 8063TIP3    H145604   0.152   2.789   0.478  1.9154 -2.8302  2.1514
 8063TIP3    H245605   0.020   2.734   0.528  0.0427 -0.3756  0.2156
 8064TIP3   OH245606   2.784   3.285  13.060  0.3235 -0.0215 -0.7478
 8064TIP3    H145607   2.735   3.365  13.081  0.5114 -0.1062  0.0412
 8064TIP3    H245608   2.723   3.233  13.008  0.0723  0.4790 -0.9637
 8065TIP3   OH245609   0.065   5.985  17.365  0.3695  0.0414  0.2729
 8065TIP3    H145610  -0.029   6.004  17.362  0.5832  1.4360  1.3351
 8065TIP3    H245611   0.070   5.890  17.357 -1.0463  0.0288 -1.0753
 8066TIP3   OH245612   3.651   3.238   6.131 -0.3539 -0.4229  0.9425
 8066TIP3    H145613   3.654   3.261   6.038 -2.5973  0.1605  0.9454
 8066TIP3    H245614   3.730   3.187   6.146  1.5701  1.9304 -0.5779
 8067TIP3   OH245615   5.180   3.682  17.131 -0.3248 -0.1123 -0.1079
 8067TIP3    H145616   5.177   3.756  17.192 -0.1055 -0.0621 -0.1545
 8067TIP3    H245617   5.200   3.606  17.186  1.6002  0.1948 -0.3210
 8068TIP3   OH245618   5.007   2.031   0.665  0.0653 -0.3491 -0.0546
 8068TIP3    H145619   5.079   1.975   0.692 -1.1169 -1.4687  0.9268
 8068TIP3    H245620   4.980   2.076   0.745 -1.6649 -1.5544  0.0883
 8069TIP3   OH245621   0.892   3.398   0.187 -0.6359 -0.6647 -0.5627
 8069TIP3    H145622   0.812   3.378   0.139 -0.2597 -1.4127 -0.9008
 8069TIP3    H245623   0.875   3.482   0.229 -1.1813 -0.2737 -1.5474
 8070TIP3   OH245624   6.448   0.040  17.032 -0.1067 -0.2563 -0.0842
 8070TIP3    H145625   6.420  -0.048  17.058  1.1657 -0.0477  2.3405
 8070TIP3    H245626   6.408   0.098  17.097  2.4549  0.4453  0.9881
 8071TIP3   OH245627   6.714   2.827   3.466  0.2683  0.1603 -0.0441
 8071TIP3    H145628   6.741   2.865   3.550 -0.0565  1.3403 -0.4586
 8071TIP3    H245629   6.713   2.732   3.483 -3.4757  0.4268  2.4659
 8072TIP3   OH245630   0.374   0.207  13.559  0.1598 -0.1703 -0.3959
 8072TIP3    H145631   0.323   0.127  13.572  0.8085 -0.8883 -1.9463
 8072TIP3    H245632   0.311   0.278  13.572 -0.4298 -0.9052  1.0217
 8073TIP3   OH245633   5.962   3.402  13.660  0.2860 -0.1140  0.8345
 8073TIP3    H145634   5.889   3.464  13.663 -0.1833 -0.6925  1.7028
 8073TIP3    H245635   5.980   3.380  13.751  2.2361  0.7748  0.7039
 8074TIP3   OH245636   0.493   0.885  17.029 -0.0953 -0.8093  0.1501
 8074TIP3    H145637   0.439   0.876  17.108 -1.3570  0.1249 -0.5579
 8074TIP3    H245638   0.496   0.796  16.993  2.2719 -1.7202  2.2835
 8075TIP3   OH245639   6.034   3.032   3.387 -0.6458 -0.4232  0.3121
 8075TIP3    H145640   6.090   2.981   3.329 -0.5883 -0.7984  0.6911
 8075TIP3    H245641   6.082   3.114   3.402 -0.6819 -0.3076 -0.1987
 8076TIP3   OH245642   2.699   0.273  16.395  0.4323 -0.0026  0.1365
 8076TIP3    H145643   2.716   0.330  16.469  1.0588  1.4380 -1.0678
 8076TIP3    H245644   2.654   0.328  16.331 -1.0033 -1.4758 -0.1882
 8077TIP3   OH245645   4.161   6.395  13.733 -0.3468  0.2108 -0.2174
 8077TIP3    H145646   4.236   6.410  13.790 -0.6644 -1.0307  0.5453
 8077TIP3    H245647   4.124   6.483  13.720  0.7721  0.7362  0.0102
 8078TIP3   OH245648   6.377   0.244  13.704 -0.5731 -0.5600 -0.6510
 8078TIP3    H145649   6.374   0.322  13.759  0.6392  0.8781 -2.5232
 8078TIP3    H245650   6.304   0.191  13.735 -1.5707  1.3850  0.5534
 8079TIP3   OH245651   4.175   4.634  13.090  0.5122  0.3713  0.7287
 8079TIP3    H145652   4.087   4.636  13.055  1.3577  0.6147 -1.5221
 8079TIP3    H245653   4.214   4.716  13.061  2.6546 -1.3501 -1.7557
 8080TIP3   OH245654   3.879   2.006   1.015 -0.5790 -0.0474  0.0913
 8080TIP3    H145655   3.802   2.039   0.968  1.1112  0.7553 -2.3310
 8080TIP3    H245656   3.890   2.066   1.089 -2.7989 -0.7984  1.1232
 8081TIP3   OH245657   4.317   2.877  11.388 -0.1302 -0.2527 -0.1042
 8081TIP3    H145658   4.379   2.947  11.409  1.6740 -1.7374 -0.2484
 8081TIP3    H245659   4.291   2.896  11.297  0.6818 -0.0084 -0.2966
 8082TIP3   OH245660   2.489   1.021  12.383  0.2195 -0.0589 -0.3911
 8082TIP3    H145661   2.465   0.931  12.361  1.7266 -0.0082 -2.5506
 8082TIP3    H245662   2.407   1.071  12.373 -0.3953 -1.0034 -0.1985
 8083TIP3   OH245663   1.088   1.564  14.161 -0.0185 -0.1631  0.0660
 8083TIP3    H145664   1.000   1.563  14.199  0.1321 -0.5866  0.4015
 8083TIP3    H245665   1.146   1.584  14.234  0.2338 -0.5862 -0.0186
 8084TIP3   OH245666   5.237   6.366   1.594 -0.3989  0.2546  0.2054
 8084TIP3    H145667   5.296   6.299   1.559  1.8483  2.6197 -0.8392
 8084TIP3    H245668   5.242   6.353   1.689 -2.0222 -2.5473  0.0298
 8085TIP3   OH245669   4.564   4.229  16.851  0.3099  0.1554 -0.4877
 8085TIP3    H145670   4.504   4.155  16.850  0.6980 -0.3528  2.4352
 8085TIP3    H245671   4.509   4.305  16.835 -0.8371 -0.4589  0.3373
 8086TIP3   OH245672   6.334   5.975  13.541 -0.1483 -0.3816  0.0341
 8086TIP3    H145673   6.366   5.917  13.472 -0.9626 -0.3939 -0.3448
 8086TIP3    H245674   6.408   6.032  13.561  0.5888 -1.3755  0.2395
 8087TIP3   OH245675   3.194   5.551  15.974  0.8253  0.0660 -0.5478
 8087TIP3    H145676   3.246   5.574  15.897  1.1855  1.4789  0.0869
 8087TIP3    H245677   3.209   5.457  15.985  1.0043 -0.1070 -2.0123
 8088TIP3   OH245678   4.677   0.259   4.250  0.3810 -0.4458 -0.6865
 8088TIP3    H145679   4.585   0.249   4.225  0.0092 -2.0104  1.0771
 8088TIP3    H245680   4.695   0.352   4.238 -1.4052 -0.1150 -1.1344
 8089TIP3   OH245681   2.537   5.752   3.014  0.3679 -0.2341  0.0052
 8089TIP3    H145682   2.587   5.694   2.956 -1.2608 -1.0729 -0.6047
 8089TIP3    H245683   2.579   5.838   3.003  1.9494 -0.9820 -0.1278
 8090TIP3   OH245684   6.109   3.413  13.908  0.2946  0.1322 -0.0899
 8090TIP3    H145685   6.158   3.405  13.990  0.2475 -0.7795 -0.1303
 8090TIP3    H245686   6.098   3.507  13.895  0.5489  0.2992  0.8043
 8091TIP3   OH245687   1.945   2.525  16.087  0.7695  0.0624  1.1278
 8091TIP3    H145688   1.938   2.436  16.121 -1.6735 -0.4403 -0.4759
 8091TIP3    H245689   1.892   2.578  16.147 -0.5378 -0.1907  0.2320
 8092TIP3   OH245690   3.750   5.839   3.157 -0.2603  0.5864 -0.0049
 8092TIP3    H145691   3.782   5.749   3.153 -2.0533 -0.0912 -0.0442
 8092TIP3    H245692   3.788   5.882   3.081 -0.4746 -0.5286 -0.7683
 8093TIP3   OH245693   2.688   3.918  14.535 -0.0339 -0.1766  0.0621
 8093TIP3    H145694   2.678   3.838  14.585 -0.7592  1.9458  3.6702
 8093TIP3    H245695   2.600   3.938  14.503 -0.5408  0.6934  1.8747
 8094TIP3   OH245696   3.695   5.368   6.278  0.1712 -0.1392  0.3813
 8094TIP3    H145697   3.789   5.351   6.284  0.1832  0.0992  0.9236
 8094TIP3    H245698   3.670   5.394   6.366 -0.5109 -0.7487  0.3764
 8095TIP3   OH245699   0.188   6.729   2.541  0.4813  0.7913  0.3276
 8095TIP3    H145700   0.171   6.671   2.615 -0.5266 -0.4826 -0.8281
 8095TIP3    H245701   0.105   6.773   2.525 -0.1816 -1.0362 -1.7155
 8096TIP3   OH245702   4.869   0.813   1.635 -0.0748 -0.0311 -0.1571
 8096TIP3    H145703   4.873   0.764   1.553 -0.7963  0.1344 -0.2998
 8096TIP3    H245704   4.839   0.749   1.700 -0.6620  0.1279 -0.2687
 8097TIP3   OH245705   4.490   2.318  11.418 -0.6070  0.6886 -0.0998
 8097TIP3    H145706   4.450   2.232  11.412  0.4104  0.0485  1.4565
 8097TIP3    H245707   4.451   2.357  11.496  0.3822  0.7952  0.3701
 8098TIP3   OH245708   5.673   4.093   1.833 -0.0279 -0.0500 -0.1459
 8098TIP3    H145709   5.705   4.020   1.780 -1.6976  0.7096 -2.3740
 8098TIP3    H245710   5.687   4.170   1.777 -0.3879  1.0357  1.2060
 8099TIP3   OH245711   4.925   5.088  16.919  0.1001 -0.1937  0.1737
 8099TIP3    H145712   4.864   5.035  16.971 -1.7242  1.1321 -0.5223
 8099TIP3    H245713   4.916   5.176  16.954  0.7682  0.2333 -0.7126
 8100TIP3   OH245714   0.805   4.298  13.630  0.4919 -0.5317  0.0358
 8100TIP3    H145715   0.749   4.228  13.665 -1.3790  0.3210 -1.0866
 8100TIP3    H245716   0.765   4.379  13.662  1.1715  0.1106 -0.6950
 8101TIP3   OH245717   3.536   1.109  15.821  0.3850 -0.3255 -0.1695
 8101TIP3    H145718   3.456   1.088  15.870 -0.7281  0.8285 -1.4129
 8101TIP3    H245719   3.603   1.120  15.889 -0.2979 -2.0512  0.8482
 8102TIP3   OH245720   4.219   2.446   0.361 -0.2515  0.2404  0.0439
 8102TIP3    H145721   4.145   2.401   0.320 -0.7912  1.7446 -0.6904
 8102TIP3    H245722   4.201   2.444   0.455 -0.7753 -0.1645 -0.0652
 8103TIP3   OH245723   0.325   1.331  16.026  0.2250 -0.2515  0.1318
 8103TIP3    H145724   0.272   1.258  15.993  0.0136 -0.8842  1.7827
 8103TIP3    H245725   0.262   1.400  16.045  0.1588 -0.4533  0.6610
 8104TIP3   OH245726   1.311   1.019   5.121 -0.3327  0.1796 -0.3015
 8104TIP3    H145727   1.315   0.945   5.181 -0.0496 -0.4148 -1.0269
 8104TIP3    H245728   1.302   1.096   5.177 -0.6105 -0.4008  0.4659
 8105TIP3   OH245729   5.664   5.841  16.008  0.9056  1.1563 -0.2376
 8105TIP3    H145730   5.697   5.923  15.973 -0.8202  1.3053 -1.6336
 8105TIP3    H245731   5.670   5.779  15.936 -0.3586  0.7868 -0.0491
 8106TIP3   OH245732   0.692   2.148  16.706  0.1474  0.1562 -0.3358
 8106TIP3    H145733   0.702   2.064  16.750 -0.1529  1.7267  3.0794
 8106TIP3    H245734   0.759   2.204  16.746  0.2525  1.6157 -2.3918
 8107TIP3   OH245735   4.257   6.358   3.122  0.0435 -0.4613 -0.2190
 8107TIP3    H145736   4.267   6.371   3.028  0.3998 -1.6092 -0.3469
 8107TIP3    H245737   4.189   6.421   3.148 -0.7382 -0.7995 -1.4004
 8108TIP3   OH245738   3.848   1.789   3.595  0.0314 -0.3069 -0.4439
 8108TIP3    H145739   3.909   1.862   3.598  0.6699 -0.8039 -0.9961
 8108TIP3    H245740   3.821   1.776   3.686  0.1399  0.4145 -0.3035
 8109TIP3   OH245741   1.232   3.073   3.514 -0.3512  0.3187  0.4394
 8109TIP3    H145742   1.289   3.006   3.551  0.2628  1.1199  0.9646
 8109TIP3    H245743   1.216   3.043   3.424  1.9753  0.7278 -0.1648
 8110TIP3   OH245744   5.487   5.531   3.921 -0.3582 -0.3870 -0.3819
 8110TIP3    H145745   5.447   5.573   3.845  0.8482 -1.0321 -1.4212
 8110TIP3    H245746   5.574   5.569   3.927 -0.6874  0.2005  1.1685
 8111TIP3   OH245747   4.104   5.152  16.605 -0.2936 -0.4406 -0.3565
 8111TIP3    H145748   4.131   5.240  16.630 -0.0200 -0.3299 -1.0237
 8111TIP3    H245749   4.184   5.100  16.611  0.1384 -0.1075 -2.3547
 8112TIP3   OH245750   4.681   5.403  15.004  0.1095 -0.4119 -0.6625
 8112TIP3    H145751   4.721   5.380  15.088 -2.0814 -0.9145  0.3295
 8112TIP3    H245752   4.693   5.325  14.950 -0.0346 -0.7836 -0.1707
 8113TIP3   OH245753   3.254   4.914  13.061  0.0070 -0.2304  0.6486
 8113TIP3    H145754   3.235   4.827  13.025 -1.3528 -0.2798  1.4392
 8113TIP3    H245755   3.197   4.973  13.012  1.5651  0.3984 -0.5219
 8114TIP3   OH245756   3.385   4.087   0.639  0.1359 -0.3379 -0.0438
 8114TIP3    H145757   3.427   4.168   0.611 -0.5876  0.3002  0.6576
 8114TIP3    H245758   3.435   4.017   0.596  1.5987  0.4018  0.3889
 8115TIP3   OH245759   2.190   2.492  15.237 -0.5194  0.0769  0.3194
 8115TIP3    H145760   2.283   2.474  15.225 -0.1956  1.4065  0.5877
 8115TIP3    H245761   2.146   2.409  15.219  0.6587 -0.3824 -0.5656
 8116TIP3   OH245762   3.756   4.718  11.939  0.0437 -0.0840  0.0935
 8116TIP3    H145763   3.731   4.789  11.879 -1.3299  0.4401  1.2134
 8116TIP3    H245764   3.837   4.749  11.979  0.8826 -0.3618 -1.3092
 8117TIP3   OH245765   4.332   6.500  12.887 -0.5095  0.3416  0.0588
 8117TIP3    H145766   4.270   6.555  12.935 -0.7667 -0.5636  0.8166
 8117TIP3    H245767   4.414   6.549  12.886 -0.9431  1.0736  0.0133
 8118TIP3   OH245768   6.350   1.823  14.539 -0.4603 -0.0942 -0.0645
 8118TIP3    H145769   6.294   1.837  14.463 -0.9639 -1.8388 -0.0629
 8118TIP3    H245770   6.309   1.873  14.609 -2.1438 -1.4145 -0.0379
 8119TIP3   OH245771   1.658   4.179  15.602  0.8662  0.5605 -0.3406
 8119TIP3    H145772   1.671   4.274  15.594  0.1885  0.6236 -0.7304
 8119TIP3    H245773   1.747   4.143  15.605  1.1492  1.2851  0.8528
 8120TIP3   OH245774   1.335   4.681  12.933  0.0080  0.5077 -0.3542
 8120TIP3    H145775   1.394   4.658  13.005 -0.4690  1.1838  0.2692
 8120TIP3    H245776   1.393   4.712  12.864  0.3762  2.5329  0.7526
 8121TIP3   OH245777   1.196   5.676   5.999  0.2254  0.3402 -0.1312
 8121TIP3    H145778   1.160   5.614   6.062  3.3203  0.7380  2.2481
 8121TIP3    H245779   1.150   5.758   6.017  0.8240  0.3574  1.4366
 8122TIP3   OH245780   0.471   5.365   4.922 -0.3716  0.7244 -0.0532
 8122TIP3    H145781   0.456   5.323   5.007 -1.6398  2.4670  0.6305
 8122TIP3    H245782   0.402   5.330   4.865 -0.4802  0.7288  0.0749
 8123TIP3   OH245783   0.397   0.565  14.794 -0.2881  0.1833 -0.5750
 8123TIP3    H145784   0.421   0.646  14.749 -1.7754  0.9255 -0.0874
 8123TIP3    H245785   0.433   0.575  14.882 -1.8669  1.0568 -0.0100
 8124TIP3   OH245786   1.506   0.479   1.485  0.1617  0.0750 -0.0736
 8124TIP3    H145787   1.516   0.471   1.390  2.6792  2.6967 -0.1607
 8124TIP3    H245788   1.532   0.394   1.520  1.0854 -0.3199 -1.6618
 8125TIP3   OH245789   2.730   1.550  13.538 -0.3362 -0.6064 -0.9147
 8125TIP3    H145790   2.707   1.641  13.555 -1.2979 -0.8708 -0.7291
 8125TIP3    H245791   2.682   1.500  13.605  3.8036 -0.9877  2.1082
 8126TIP3   OH245792   0.237   2.850   3.027 -0.3304 -1.2919  0.2663
 8126TIP3    H145793   0.268   2.850   3.117  2.3712  1.4671 -0.4927
 8126TIP3    H245794   0.181   2.928   3.021 -0.1835 -1.2417 -0.5297
 8127TIP3   OH245795   4.951   5.825  17.025  0.0927  0.3951 -0.2934
 8127TIP3    H145796   5.003   5.905  17.035 -1.3765  1.6578 -1.8926
 8127TIP3    H245797   4.996   5.775  16.957 -0.0919  0.9200 -0.8182
 8128TIP3   OH245798   5.116   2.434   6.069  0.4668  0.2410 -0.2871
 8128TIP3    H145799   5.184   2.368   6.054 -1.1607 -2.1390  1.9514
 8128TIP3    H245800   5.143   2.479   6.148  0.6368  1.0273 -0.7803
 8129TIP3   OH245801   6.184   3.275   3.465  0.1667  0.1925  0.2104
 8129TIP3    H145802   6.120   3.289   3.534  0.2143  0.6514  0.1618
 8129TIP3    H245803   6.177   3.353   3.409  0.1789 -0.1369 -0.2576
 8130TIP3   OH245804   0.808   5.725   4.234 -0.2718 -0.4172 -0.6261
 8130TIP3    H145805   0.804   5.630   4.249  0.4078 -0.3711 -0.1198
 8130TIP3    H245806   0.787   5.735   4.141 -0.0235 -1.0922 -0.7615
 8131TIP3   OH245807   6.139   5.723   5.792 -0.3966 -0.3699 -0.0963
 8131TIP3    H145808   6.085   5.745   5.868  0.5880  1.9661  0.0030
 8131TIP3    H245809   6.084   5.664   5.740 -2.7218  1.1984  0.4317
 8132TIP3   OH245810   6.685   1.318  16.640 -0.1609 -0.1516  0.1981
 8132TIP3    H145811   6.778   1.314  16.662  0.0831  0.4688 -0.6505
 8132TIP3    H245812   6.678   1.264  16.561 -0.3398  0.5406 -0.2680
 8133TIP3   OH245813   0.883   5.798  15.792  0.0451  0.0563  0.3240
 8133TIP3    H145814   0.809   5.738  15.802 -2.4149  2.7084 -0.6593
 8133TIP3    H245815   0.895   5.835  15.880  0.1330 -0.2740  0.4542
 8134TIP3   OH245816   6.463   0.793  12.227 -0.0604 -0.3135  0.2254
 8134TIP3    H145817   6.395   0.801  12.161 -0.6087  0.7239  0.8945
 8134TIP3    H245818   6.443   0.860  12.291  0.9021 -0.7904  1.0645
 8135TIP3   OH245819   1.468   6.746  15.262  0.0875  0.2828 -0.0106
 8135TIP3    H145820   1.389   6.693  15.270 -1.1607  2.0667 -0.0991
 8135TIP3    H245821   1.494   6.737  15.170  1.0133 -1.6600  0.4006
 8136TIP3   OH245822   5.913   2.091   0.078 -0.0999 -0.2681  0.3246
 8136TIP3    H145823   5.819   2.101   0.067 -0.1619 -1.0598  0.1030
 8136TIP3    H245824   5.946   2.070  -0.009 -0.0757 -2.5573  0.8295
 8137TIP3   OH245825   5.469   2.042   5.515 -0.3463  0.1957  0.8221
 8137TIP3    H145826   5.374   2.041   5.506 -0.1892 -1.2202 -1.6517
 8137TIP3    H245827   5.495   1.950   5.506  1.3567  0.7461 -0.3146
 8138TIP3   OH245828   5.313   2.339   1.644  0.1698  0.2679 -0.0296
 8138TIP3    H145829   5.358   2.358   1.562  0.5292 -1.5077 -0.2658
 8138TIP3    H245830   5.223   2.318   1.617 -0.1306  1.1684  0.2039
 8139TIP3   OH245831   2.208   3.231  14.615 -0.3445 -0.5563  0.2406
 8139TIP3    H145832   2.260   3.291  14.562  0.0111 -0.5809  0.5569
 8139TIP3    H245833   2.142   3.197  14.555  0.1379 -0.6887 -0.2192
 8140TIP3   OH245834   6.580   5.771  14.853  0.6509  0.3577  0.0424
 8140TIP3    H145835   6.612   5.690  14.812  1.5766 -0.1387  1.6651
 8140TIP3    H245836   6.607   5.841  14.793  1.1348 -0.4035 -0.6521
 8141TIP3   OH245837   2.400   5.994   6.718 -0.0464 -0.1910  0.2134
 8141TIP3    H145838   2.315   5.996   6.675 -0.4017  0.8677  0.9425
 8141TIP3    H245839   2.421   6.086   6.734  0.3302 -0.5295  1.8081
 8142TIP3   OH245840   2.947   1.708  16.589 -0.0730 -0.0325 -0.7742
 8142TIP3    H145841   2.973   1.760  16.665  0.1536 -1.4467  0.1515
 8142TIP3    H245842   3.030   1.680  16.549 -0.1861  0.8787 -1.6980
 8143TIP3   OH245843   2.994   5.729   1.167 -0.3155 -0.3778  0.0825
 8143TIP3    H145844   2.960   5.802   1.220  1.3610  0.7244 -0.2716
 8143TIP3    H245845   3.081   5.712   1.203 -0.9466 -2.7484  0.6315
 8144TIP3   OH245846   6.232   1.377   5.202 -0.4692 -0.0211 -0.1705
 8144TIP3    H145847   6.217   1.282   5.200 -0.8684 -0.0132  1.4826
 8144TIP3    H245848   6.293   1.390   5.275  0.7728  0.8703 -1.3168
 8145TIP3   OH245849   3.633   0.441  14.391  0.0284 -0.2867 -0.7937
 8145TIP3    H145850   3.719   0.431  14.432  0.0029 -1.4771 -0.9859
 8145TIP3    H245851   3.621   0.360  14.341 -2.0347 -1.0818  0.8177
 8146TIP3   OH245852   3.713   5.666  16.869  0.0260 -0.2344 -0.0429
 8146TIP3    H145853   3.739   5.678  16.960 -1.0914  0.9851  0.1494
 8146TIP3    H245854   3.717   5.572  16.855 -1.4573 -0.6382  1.8070
 8147TIP3   OH245855   1.008   1.936   5.005  0.4307  0.5583 -0.5581
 8147TIP3    H145856   1.030   1.930   4.913 -2.2124  0.7454 -1.3019
 8147TIP3    H245857   1.088   1.965   5.048  2.0038 -0.5233 -2.6204
 8148TIP3   OH245858   0.705   6.501  12.868 -0.2551  0.4716  0.6127
 8148TIP3    H145859   0.777   6.476  12.927 -1.1754  0.7034  1.8937
 8148TIP3    H245860   0.684   6.591  12.893 -0.0545  0.9066 -0.7344
 8149TIP3   OH245861   2.221   6.160  17.060  0.2291 -0.3966  0.2853
 8149TIP3    H145862   2.187   6.100  16.993 -0.1966 -0.4976  0.5881
 8149TIP3    H245863   2.155   6.228  17.067  0.5381 -0.0857  0.2082
 8150TIP3   OH245864   1.273   2.534  15.062 -0.0368  0.6191  0.2342
 8150TIP3    H145865   1.199   2.572  15.108 -0.9253 -2.3225  1.4728
 8150TIP3    H245866   1.350   2.572  15.104 -0.8520 -0.0467  2.4476
 8151TIP3   OH245867   0.866   2.639   4.794 -0.2466 -0.0046 -0.1316
 8151TIP3    H145868   0.835   2.583   4.723  1.5114 -1.2689  0.0341
 8151TIP3    H245869   0.838   2.595   4.873 -0.0315  0.0782 -0.0090
 8152TIP3   OH245870   0.909   4.418   5.622 -0.6133 -0.8758  0.3538
 8152TIP3    H145871   0.970   4.485   5.652  0.0751 -1.1666 -0.3880
 8152TIP3    H245872   0.836   4.468   5.585  0.3866 -0.5137 -1.1966
 8153TIP3   OH245873   5.027   1.777  11.958  0.0236 -0.7534 -0.0886
 8153TIP3    H145874   5.116   1.804  11.940 -0.3558  0.2589 -0.5312
 8153TIP3    H245875   4.989   1.758  11.872  0.9243 -5.0896  0.2561
 8154TIP3   OH245876   1.779   5.148  12.267  0.0160  0.5109 -0.3619
 8154TIP3    H145877   1.685   5.134  12.263  0.2126 -0.7838 -1.6794
 8154TIP3    H245878   1.817   5.060  12.253  1.4334  0.6596  1.9468
 8155TIP3   OH245879   6.354   5.742   5.553 -0.3079  0.2138 -0.3224
 8155TIP3    H145880   6.388   5.791   5.628  0.0891  1.1155 -1.0780
 8155TIP3    H245881   6.409   5.664   5.548 -0.9026 -0.3156  0.8504
 8156TIP3   OH245882   1.358   0.752  15.472 -0.0708  0.8889 -0.2209
 8156TIP3    H145883   1.328   0.840  15.495 -0.0722  0.7361  0.3652
 8156TIP3    H245884   1.314   0.733  15.389 -2.8978  0.0582  1.3183
 8157TIP3   OH245885   1.528   6.702  14.994 -0.5514 -0.1451  0.6847
 8157TIP3    H145886   1.621   6.697  14.970 -0.4738  1.0195  0.6790
 8157TIP3    H245887   1.489   6.623  14.956  0.0692  0.3138 -0.9894
 8158TIP3   OH245888   0.761   2.900  14.877 -0.4088  0.0610  0.3725
 8158TIP3    H145889   0.764   2.967  14.945 -1.2488 -0.2740  0.7619
 8158TIP3    H245890   0.788   2.820  14.922  0.0612  0.0365  0.0478
 8159TIP3   OH245891   4.760   4.479  14.750 -0.5789 -0.1283 -0.4319
 8159TIP3    H145892   4.832   4.514  14.804 -0.8087  1.4879 -1.1399
 8159TIP3    H245893   4.725   4.407  14.803  1.7429 -1.2101 -0.1976
 8160TIP3   OH245894   2.730   5.961   1.009  0.3905 -0.0679 -0.0793
 8160TIP3    H145895   2.674   5.961   1.087  0.0706  1.2801 -0.2800
 8160TIP3    H245896   2.818   5.949   1.044  0.1141 -0.9035  0.3561
 8161TIP3   OH245897   0.694   4.394  13.396  0.2143  0.3606  0.3904
 8161TIP3    H145898   0.708   4.350  13.313 -0.7026 -0.0944  0.4706
 8161TIP3    H245899   0.762   4.358  13.454  1.5396  1.4518 -0.4197
 8162TIP3   OH245900   1.849   2.725  13.987 -0.1873 -0.3022  0.2727
 8162TIP3    H145901   1.785   2.769  13.932 -1.3380  0.2850  1.9843
 8162TIP3    H245902   1.801   2.650  14.023  0.4645 -0.5518  0.6331
 8163TIP3   OH245903   5.263   2.484   4.826 -0.1297 -0.5332 -0.1090
 8163TIP3    H145904   5.304   2.440   4.751  1.6412 -0.2313  0.6382
 8163TIP3    H245905   5.176   2.509   4.794  0.4998 -0.5942 -1.9970
 8164TIP3   OH245906   2.949   0.135  12.368  0.1059 -0.1947  0.0992
 8164TIP3    H145907   2.920   0.208  12.423  0.6108 -0.0162  0.1294
 8164TIP3    H245908   2.892   0.062  12.392 -1.2896  0.5312 -0.8421
 8165TIP3   OH245909   4.510   5.208   0.088 -0.1085  0.2882 -0.4380
 8165TIP3    H145910   4.488   5.129   0.137 -0.1819 -0.4921 -1.7029
 8165TIP3    H245911   4.473   5.279   0.141 -0.8974 -0.5880  0.2218
 8166TIP3   OH245912   6.424   4.434  15.319  0.0535  0.5853  0.0037
 8166TIP3    H145913   6.373   4.428  15.238  1.3964  2.1603 -1.0372
 8166TIP3    H245914   6.463   4.348  15.329 -0.9594  0.0579 -0.4372
 8167TIP3   OH245915   5.872   3.588  15.125  0.3786 -0.4347  0.0821
 8167TIP3    H145916   5.945   3.541  15.165 -0.8011 -1.6939  0.8772
 8167TIP3    H245917   5.804   3.588  15.192 -1.3935 -1.9065 -1.5828
 8168TIP3   OH245918   4.150   1.060   2.864 -0.0250  0.2508  0.5470
 8168TIP3    H145919   4.169   1.136   2.919 -0.9959  1.0020 -0.1140
 8168TIP3    H245920   4.056   1.047   2.873  0.2523 -1.4764  1.3644
 8169TIP3   OH245921   2.024   1.694  11.816  0.9865 -0.2858 -0.1800
 8169TIP3    H145922   2.029   1.767  11.878 -0.2822 -1.4818  1.3928
 8169TIP3    H245923   2.110   1.692  11.774  0.9926  2.2276 -0.4387
 8170TIP3   OH245924   1.025   1.966   0.334  0.8542  0.6270 -0.3693
 8170TIP3    H145925   1.085   1.895   0.360  1.2558 -0.0654 -2.9109
 8170TIP3    H245926   1.077   2.046   0.346  0.6587  0.4846  1.8020
 8171TIP3   OH245927   1.878   5.114   4.342  0.4803 -0.2355 -0.3107
 8171TIP3    H145928   1.818   5.132   4.415 -0.4560  0.2869 -1.1771
 8171TIP3    H245929   1.955   5.169   4.360 -0.8452  2.0295 -1.0430
 8172TIP3   OH245930   3.627   6.214  14.893 -0.0157 -0.0580 -0.0129
 8172TIP3    H145931   3.573   6.183  14.820  0.0830  2.0467 -1.0531
 8172TIP3    H245932   3.565   6.249  14.957 -0.0126 -0.1595  0.0457
 8173TIP3   OH245933   5.323   4.517   1.727 -0.1741 -0.0498 -0.5542
 8173TIP3    H145934   5.305   4.578   1.655 -0.5307 -2.3251 -2.5438
 8173TIP3    H245935   5.245   4.463   1.733  0.4837 -0.9211  0.4746
 8174TIP3   OH245936   3.462   4.863   0.631  0.0894  0.5398  0.0343
 8174TIP3    H145937   3.454   4.767   0.625  0.0101  0.5635 -0.2846
 8174TIP3    H245938   3.373   4.894   0.613 -0.3451  0.6060  2.0656
 8175TIP3   OH245939   0.054   6.463  14.762 -0.2927  0.1172  0.4111
 8175TIP3    H145940   0.146   6.451  14.787 -0.8488  0.0147  2.6102
 8175TIP3    H245941   0.025   6.539  14.812 -0.5195  2.4891 -2.9679
 8176TIP3   OH245942   3.085   6.417  16.853 -0.3551  0.2664  0.0276
 8176TIP3    H145943   3.045   6.402  16.767  2.3415 -0.0301 -1.2768
 8176TIP3    H245944   3.165   6.466  16.834 -0.1448  1.0238  2.5040
 8177TIP3   OH245945   2.008   1.036  11.601  0.3305  0.7227 -0.1444
 8177TIP3    H145946   2.057   0.955  11.586  3.9252  2.6677 -0.0040
 8177TIP3    H245947   2.033   1.063  11.689 -0.9522  1.8878 -0.1123
 8178TIP3   OH245948   6.105   2.274  16.421  0.1772 -0.0916  0.2079
 8178TIP3    H145949   6.130   2.333  16.350  0.0622 -1.0205 -0.6182
 8178TIP3    H245950   6.104   2.187  16.381  1.0927 -0.7768  1.5712
 8179TIP3   OH245951   1.338   5.859  15.867 -0.3437  0.3920 -0.0539
 8179TIP3    H145952   1.357   5.946  15.902 -1.2390  1.3953 -1.9368
 8179TIP3    H245953   1.282   5.819  15.933 -0.8417  1.6783  0.3420
 8180TIP3   OH245954   0.323   2.577   4.969 -0.6161  0.1806  0.2369
 8180TIP3    H145955   0.261   2.505   4.980 -1.6388  1.0386  0.3658
 8180TIP3    H245956   0.337   2.610   5.058 -0.4952  0.3967  0.1390
 8181TIP3   OH245957   6.332   6.139   5.220 -0.0894  0.1951  0.2544
 8181TIP3    H145958   6.330   6.130   5.315 -1.6034  3.6176  0.7069
 8181TIP3    H245959   6.267   6.076   5.189  1.6233 -2.1863  1.2243
 8182TIP3   OH245960   3.610   5.966   2.060  0.3754 -0.1414 -0.1630
 8182TIP3    H145961   3.569   5.931   2.139 -1.2411  0.2664 -0.7826
 8182TIP3    H245962   3.544   6.025   2.023  1.4904  0.4524 -1.2819
 8183TIP3   OH245963   1.968   2.611  13.741  0.0375 -0.2850 -0.0011
 8183TIP3    H145964   2.005   2.689  13.698 -0.6723 -0.0652 -0.2190
 8183TIP3    H245965   1.985   2.626  13.835 -0.7489  0.4921  0.0277
 8184TIP3   OH245966   3.807   1.254   4.990  0.0311  0.1739 -0.1496
 8184TIP3    H145967   3.890   1.240   4.944 -0.5056 -0.6254 -0.8801
 8184TIP3    H245968   3.740   1.240   4.924 -0.6788  1.9342  0.1437
 8185TIP3   OH245969   4.624   1.225  11.824  0.2617 -0.3175  0.9328
 8185TIP3    H145970   4.531   1.250  11.825  0.7550  1.7213  0.2628
 8185TIP3    H245971   4.636   1.182  11.740  0.3128  1.1744  0.1499
 8186TIP3   OH245972   6.446   5.392  10.748  0.1595  0.9855  0.0555
 8186TIP3    H145973   6.528   5.345  10.763 -0.7614 -0.0215  2.3567
 8186TIP3    H245974   6.391   5.330  10.700  0.0102  0.8222  0.4288
 8187TIP3   OH245975   2.612   2.322   0.315 -0.0472  0.2284 -0.9782
 8187TIP3    H145976   2.646   2.239   0.348  1.1179  1.3446  0.8235
 8187TIP3    H245977   2.519   2.306   0.301 -0.4096 -0.7377  1.8110
 8188TIP3   OH245978   4.375   5.633   5.189  0.2678 -0.3758 -0.2997
 8188TIP3    H145979   4.418   5.547   5.185  2.9415  0.8697 -1.1254
 8188TIP3    H245980   4.349   5.650   5.098 -1.8847 -0.9835  0.1446
 8189TIP3   OH245981   3.944   2.923  13.093 -0.2237 -0.7742  0.1479
 8189TIP3    H145982   3.906   2.967  13.170  1.1562 -0.1974  0.5331
 8189TIP3    H245983   3.873   2.870  13.059 -1.9744  1.6479 -0.2727
 8190TIP3   OH245984   4.567   1.369   2.616 -0.3881 -0.3317  0.2645
 8190TIP3    H145985   4.645   1.359   2.562 -0.2731  2.0077 -0.0956
 8190TIP3    H245986   4.517   1.439   2.574 -2.6276 -1.6560  0.5872
 8191TIP3   OH245987   4.285   3.442   3.397  0.5502 -0.6961  0.2995
 8191TIP3    H145988   4.300   3.480   3.484 -1.1595 -1.3339  0.8960
 8191TIP3    H245989   4.288   3.517   3.338 -2.0598  0.3684  1.3783
 8192TIP3   OH245990   2.258   3.081  17.304 -0.1964 -0.3714  0.4104
 8192TIP3    H145991   2.302   3.153  17.351 -0.5869  0.6657 -0.7481
 8192TIP3    H245992   2.329   3.027  17.271  0.0884 -1.1803  2.2274
 8193TIP3   OH245993   6.021   1.750  16.610  0.1881 -0.3442  0.0619
 8193TIP3    H145994   6.004   1.838  16.577  1.5479  0.5337  1.5014
 8193TIP3    H245995   5.976   1.747  16.695 -0.4973 -1.3366 -0.3159
 8194TIP3   OH245996   6.089   4.259  14.405 -0.5518  0.0141 -0.4673
 8194TIP3    H145997   6.143   4.300  14.337 -0.8324 -0.2655 -0.8643
 8194TIP3    H245998   6.151   4.233  14.473 -0.1800 -0.3205 -0.9280
 8195TIP3   OH245999   5.217   6.231  16.867  0.0125 -0.3098 -0.4593
 8195TIP3    H146000   5.205   6.153  16.814  0.7668 -1.2223  0.6608
 8195TIP3    H246001   5.139   6.284  16.851 -0.5722 -1.3535 -1.1353
 8196TIP3   OH246002   4.159   6.117  13.007  0.7814  0.9418  0.8293
 8196TIP3    H146003   4.238   6.169  13.020  1.3487 -0.1768  1.9648
 8196TIP3    H246004   4.140   6.078  13.092  0.2902 -0.5877  0.0713
 8197TIP3   OH246005   0.532   6.158  14.802  0.0019 -0.2073  0.1367
 8197TIP3    H146006   0.600   6.201  14.854  1.7626 -0.0656 -2.1060
 8197TIP3    H246007   0.456   6.215  14.810  0.4089  0.1511  1.9353
 8198TIP3   OH246008   5.616   1.433   5.605  0.0922 -0.3166  0.2116
 8198TIP3    H146009   5.705   1.468   5.614 -0.5527  1.5914 -0.3653
 8198TIP3    H246010   5.606   1.416   5.512  0.7378 -3.1833  0.5834
 8199TIP3   OH246011   3.110   2.794  14.162  0.5497 -0.5538  0.1153
 8199TIP3    H146012   3.074   2.719  14.210  1.2949  0.3870  2.3043
 8199TIP3    H246013   3.113   2.765  14.071  0.4704 -3.0544  0.8173
 8200TIP3   OH246014   4.998   1.854   0.129 -0.1122 -0.6569 -0.2716
 8200TIP3    H146015   5.052   1.838   0.207 -2.8492 -4.8511  1.0634
 8200TIP3    H246016   5.047   1.813   0.058  0.5724 -0.2369 -0.0626
 8201TIP3   OH246017   1.822   1.098  14.261 -0.2807  0.8649 -0.3419
 8201TIP3    H146018   1.739   1.051  14.250  0.4493 -0.1798 -1.7236
 8201TIP3    H246019   1.817   1.134  14.349 -1.7492 -0.0922  0.0118
 8202TIP3   OH246020   5.294   3.897   0.995  0.1693  0.2544  0.3708
 8202TIP3    H146021   5.372   3.858   0.956 -1.5387  0.0422 -3.2934
 8202TIP3    H246022   5.324   3.980   1.033  2.3180 -0.3165  0.0153
 8203TIP3   OH246023   6.240   1.955   0.524 -0.0639 -0.0847 -0.3811
 8203TIP3    H146024   6.252   1.937   0.431  2.2587  0.3771 -0.2244
 8203TIP3    H246025   6.190   2.037   0.527  0.6269  0.3838 -1.2423
 8204TIP3   OH246026   4.297   1.089   3.459 -0.1650  0.7090 -0.2592
 8204TIP3    H146027   4.379   1.046   3.434  0.3153 -0.1660  2.4377
 8204TIP3    H246028   4.305   1.178   3.424  0.9741  0.0259 -1.8416
 8205TIP3   OH246029   6.357   3.444   6.644 -0.5815  0.1041 -0.6120
 8205TIP3    H146030   6.411   3.368   6.622  2.1908  0.8558  2.7304
 8205TIP3    H246031   6.419   3.517   6.650 -2.1225  1.3582  1.9084
 8206TIP3   OH246032   2.422   0.361   0.253 -0.3939 -0.4833 -0.0522
 8206TIP3    H146033   2.488   0.358   0.184  2.2725  0.6284  2.2409
 8206TIP3    H246034   2.350   0.411   0.215  0.6927 -0.4099 -2.2038
 8207TIP3   OH246035   1.966   0.304   6.043  0.0330  0.2651 -0.2044
 8207TIP3    H146036   2.059   0.289   6.063  0.1601  1.1429 -0.1083
 8207TIP3    H246037   1.963   0.393   6.008 -0.8487  0.4486  0.3098
 8208TIP3   OH246038   1.828   0.055   3.658  0.0302  0.3534  0.0305
 8208TIP3    H146039   1.836  -0.038   3.679  1.9205  0.7391  1.2526
 8208TIP3    H246040   1.744   0.081   3.697 -0.4429 -0.7918 -0.1850
 8209TIP3   OH246041   2.402   4.541   4.076 -1.1237 -0.1219  0.8561
 8209TIP3    H146042   2.474   4.559   4.016 -1.1329  0.4567  1.0140
 8209TIP3    H246043   2.431   4.465   4.127 -1.2996 -0.9178 -0.1784
 8210TIP3   OH246044   6.179   5.165   3.220  0.0063 -0.2790  0.0836
 8210TIP3    H146045   6.123   5.090   3.200  1.4835 -1.0796 -1.2327
 8210TIP3    H246046   6.197   5.156   3.314 -1.6556 -0.2452  0.4406
 8211TIP3   OH246047   2.454   5.957  12.381  0.6583 -0.4680  0.6321
 8211TIP3    H146048   2.514   6.015  12.335 -0.8795  1.6106  1.1146
 8211TIP3    H246049   2.471   5.973  12.474  0.7228 -1.3628  0.7869
 8212TIP3   OH246050   1.224   5.791   3.298 -0.2129 -0.2655 -0.0616
 8212TIP3    H146051   1.297   5.847   3.324  1.3089 -1.4642 -1.5718
 8212TIP3    H246052   1.162   5.851   3.256  0.0268  0.7106  0.9330
 8213TIP3   OH246053   3.058   4.746   6.692 -0.0734 -0.0125 -0.0994
 8213TIP3    H146054   3.141   4.741   6.740  0.4182 -0.8652 -1.0219
 8213TIP3    H246055   2.991   4.740   6.761  0.6161 -0.6913  0.5404
 8214TIP3   OH246056   5.446   0.590   0.750 -0.5343  0.8386 -0.1810
 8214TIP3    H146057   5.366   0.590   0.698 -2.1566 -3.5540  1.7796
 8214TIP3    H246058   5.419   0.626   0.835  0.2816  1.7699 -0.3136
 8215TIP3   OH246059   0.622   1.185   1.728  0.5265 -0.0387  0.3107
 8215TIP3    H146060   0.642   1.245   1.800 -0.7089 -0.7103  1.2383
 8215TIP3    H246061   0.538   1.215   1.694  0.1391 -0.9328  0.4591
 8216TIP3   OH246062   0.907   3.356   1.437 -0.5387 -0.0807  0.4264
 8216TIP3    H146063   0.899   3.273   1.484 -2.2116 -1.1664 -1.5834
 8216TIP3    H246064   0.995   3.353   1.397 -1.2475 -1.8231 -1.1447
 8217TIP3   OH246065   1.038   5.805   4.378 -0.7087 -0.5006 -0.0200
 8217TIP3    H146066   0.963   5.792   4.319 -0.3944  0.0934 -0.5661
 8217TIP3    H246067   1.009   5.876   4.436 -0.1979  0.4806 -0.9171
 8218TIP3   OH246068   0.151   0.154   5.444 -0.1779  0.0196  0.4064
 8218TIP3    H146069   0.070   0.117   5.479  0.4217  0.1297  1.9899
 8218TIP3    H246070   0.219   0.095   5.476  0.4892  0.7360  0.3241
 8219TIP3   OH246071   5.244   0.995  10.799  0.2776 -0.4381  0.0014
 8219TIP3    H146072   5.234   1.071  10.740 -0.1153  0.7135  1.4823
 8219TIP3    H246073   5.337   0.996  10.823  0.6918 -1.5893 -1.4279
 8220TIP3   OH246074   4.056   2.669  15.946  0.1004  0.2110 -0.1821
 8220TIP3    H146075   4.080   2.760  15.961 -1.5779  0.8970 -1.4617
 8220TIP3    H246076   4.003   2.645  16.021  0.4333  0.3071  0.0889
 8221TIP3   OH246077   0.971   6.344   0.865  0.0777  0.6759 -0.3321
 8221TIP3    H146078   0.991   6.308   0.778 -0.3035  0.0509 -0.1683
 8221TIP3    H246079   0.979   6.269   0.924  0.5024  1.1392  0.1977
 8222TIP3   OH246080   5.863   1.737  10.998 -0.8250 -0.1153 -0.1717
 8222TIP3    H146081   5.919   1.757  10.922  0.5765 -1.8325  0.3179
 8222TIP3    H246082   5.806   1.667  10.967  0.2070 -1.2965  0.4751
 8223TIP3   OH246083   2.583   2.067  12.918  0.4821 -0.5663  0.5146
 8223TIP3    H146084   2.657   2.099  12.867  0.8310 -0.6465  0.9585
 8223TIP3    H246085   2.598   1.973  12.927  0.0505 -0.6700  0.1648
 8224TIP3   OH246086   2.080   0.669   3.718 -0.2192 -0.6231 -0.2078
 8224TIP3    H146087   2.115   0.756   3.740  0.0850 -0.1622 -2.2228
 8224TIP3    H246088   2.039   0.638   3.798 -1.6729  2.0493  0.2271
 8225TIP3   OH246089   5.582   0.051   5.617 -0.2767 -0.3377 -0.0063
 8225TIP3    H146090   5.527   0.129   5.620  0.4008  0.1071  1.9343
 8225TIP3    H246091   5.546  -0.007   5.683  0.3002 -0.9362 -0.2014
 8226TIP3   OH246092   2.604   5.404   3.880  0.0001  0.6169 -0.3534
 8226TIP3    H146093   2.593   5.319   3.836 -1.4089  0.9139 -0.6129
 8226TIP3    H246094   2.619   5.380   3.972  2.6983  0.0059 -0.8710
 8227TIP3   OH246095   2.317   1.515   0.403 -0.1842  0.0901  0.5061
 8227TIP3    H146096   2.366   1.561   0.334 -2.7477  0.9707 -0.8492
 8227TIP3    H246097   2.373   1.523   0.481  2.1659  0.2969 -1.0884
 8228TIP3   OH246098   4.429   1.632   2.543 -0.1470  0.6398 -0.1215
 8228TIP3    H146099   4.396   1.646   2.454 -1.7262 -0.1916  0.2807
 8228TIP3    H246100   4.380   1.695   2.597 -0.4270  0.0209  0.3670
 8229TIP3   OH246101   4.280   6.227   3.372  0.0817 -0.1849 -0.0280
 8229TIP3    H146102   4.185   6.224   3.365  0.0882  0.6157 -0.6499
 8229TIP3    H246103   4.310   6.254   3.285  0.8665 -0.3037  0.1961
 8230TIP3   OH246104   6.225   5.267  16.554  0.2113  0.3852 -0.8080
 8230TIP3    H146105   6.274   5.347  16.533 -0.1124  0.6901 -0.4422
 8230TIP3    H246106   6.291   5.205  16.585  0.4641  0.5222 -1.0765
 8231TIP3   OH246107   2.935   2.623   4.790 -0.1504  0.6264  0.2651
 8231TIP3    H146108   3.011   2.628   4.849  1.5792 -1.8383 -1.5746
 8231TIP3    H246109   2.911   2.531   4.789 -0.9428  0.7952 -1.8655
 8232TIP3   OH246110   4.492   2.684   1.245  0.1849 -0.7877  0.2942
 8232TIP3    H146111   4.436   2.755   1.277  1.4425  0.6576 -0.5752
 8232TIP3    H246112   4.453   2.660   1.161  0.6122 -0.0574 -0.1246
 8233TIP3   OH246113   1.273   0.959  11.958  0.8927 -0.1350  0.2341
 8233TIP3    H146114   1.255   1.011  12.037  0.5809  1.4798 -0.8485
 8233TIP3    H246115   1.187   0.927  11.931  0.6304  1.3411 -0.7715
 8234TIP3   OH246116   3.964   6.272   5.491 -0.4295  0.0717  0.3638
 8234TIP3    H146117   3.985   6.193   5.441 -0.8451  0.7624 -0.9619
 8234TIP3    H246118   4.045   6.323   5.490 -0.7377  0.5793 -0.6053
 8235TIP3   OH246119   4.348   2.379  12.659 -0.0270 -0.9711  0.1699
 8235TIP3    H146120   4.411   2.377  12.588 -0.6440 -0.4449 -0.4130
 8235TIP3    H246121   4.385   2.439  12.723  0.2823 -1.0225  0.0374
 8236TIP3   OH246122   5.675   3.674  16.997 -0.3686 -0.3708 -0.0661
 8236TIP3    H146123   5.626   3.717  16.926 -1.6522 -0.9507  0.4364
 8236TIP3    H246124   5.609   3.653  17.062  0.7608 -0.0761  1.2155
 8237TIP3   OH246125   3.552   2.668  13.985 -0.1150  0.0114 -0.3290
 8237TIP3    H146126   3.581   2.677  14.076  1.2091 -2.7995 -0.3657
 8237TIP3    H246127   3.608   2.600  13.948 -3.1181 -1.7568 -2.0801
 8238TIP3   OH246128   6.626   4.625  11.456 -0.0137 -0.0304  0.3550
 8238TIP3    H146129   6.692   4.578  11.507  0.5595  0.1159 -0.2481
 8238TIP3    H246130   6.616   4.573  11.376  0.7880  0.9776 -0.4214
 8239TIP3   OH246131   6.533   2.170   2.900 -0.4635 -0.0354 -0.1676
 8239TIP3    H146132   6.454   2.217   2.873 -1.0302 -0.5858  0.4963
 8239TIP3    H246133   6.552   2.112   2.826 -1.2507 -0.5949  0.0529
 8240TIP3   OH246134   5.146   2.481   0.164 -0.5435  0.3156  0.3550
 8240TIP3    H146135   5.196   2.410   0.204  1.2034  1.0524 -0.4024
 8240TIP3    H246136   5.078   2.502   0.227  0.5192 -0.2971  1.7457
 8241TIP3   OH246137   0.903   3.875   4.574 -0.1381 -0.1688 -0.5343
 8241TIP3    H146138   0.889   3.955   4.524 -1.1688 -0.0654 -0.0950
 8241TIP3    H246139   0.820   3.828   4.570  0.0664 -0.6301  0.2429
 8242TIP3   OH246140   2.913   5.109  13.755 -0.0842 -0.4776  0.4823
 8242TIP3    H146141   2.818   5.104  13.755 -0.1167 -0.0463 -0.2637
 8242TIP3    H246142   2.937   5.134  13.844 -0.6820 -0.3577  0.6075
 8243TIP3   OH246143   4.073   3.527  13.900 -0.0563  0.0404  0.8339
 8243TIP3    H146144   4.159   3.498  13.868  0.7826  1.3423  1.8272
 8243TIP3    H246145   4.064   3.616  13.865 -0.3894  0.4126  1.8490
 8244TIP3   OH246146   2.145   1.053   6.528  0.6904 -0.1783 -0.2635
 8244TIP3    H146147   2.185   1.133   6.561  1.5138 -0.2870 -0.9663
 8244TIP3    H246148   2.160   1.055   6.433 -0.4040 -0.5452 -0.4672
 8245TIP3   OH246149   0.607   4.309   2.593 -0.2206  0.3239 -0.0895
 8245TIP3    H146150   0.536   4.364   2.559  0.8819  1.8711 -0.0155
 8245TIP3    H246151   0.656   4.281   2.516 -0.7321 -0.5153 -0.1203
 8246TIP3   OH246152   4.851   3.808  13.917  0.2883  0.2394  0.0970
 8246TIP3    H146153   4.863   3.895  13.956 -1.1869  0.5079 -0.0074
 8246TIP3    H246154   4.904   3.811  13.837  1.7927  0.3516  1.0670
 8247TIP3   OH246155   3.470   2.366   3.355 -0.4556  0.1006 -1.3391
 8247TIP3    H146156   3.458   2.446   3.407 -2.5640 -0.3190 -1.0908
 8247TIP3    H246157   3.492   2.397   3.268  1.5604  0.8567 -0.6074
 8248TIP3   OH246158   0.284   2.045  14.255  0.2502  0.0269 -0.0588
 8248TIP3    H146159   0.340   2.012  14.325  0.1027  0.7882  0.4334
 8248TIP3    H246160   0.338   2.041  14.176  0.1918 -1.4754 -0.0384
 8249TIP3   OH246161   1.245   0.944  11.436  0.0480  0.0679 -0.0537
 8249TIP3    H146162   1.273   0.935  11.345 -0.7150  1.5021 -0.4562
 8249TIP3    H246163   1.172   0.882  11.445  1.0647 -1.1529  0.0265
 8250TIP3   OH246164   2.044   1.036   0.183 -0.3630  0.1885  0.2414
 8250TIP3    H146165   1.959   1.052   0.225 -0.6539  0.1194 -0.3234
 8250TIP3    H246166   2.082   1.123   0.172 -0.9732  0.3287 -0.7887
 8251TIP3   OH246167   4.224   3.265  15.859 -0.9364 -0.0592 -0.1866
 8251TIP3    H146168   4.210   3.218  15.777  0.1999 -0.8086  0.0143
 8251TIP3    H246169   4.215   3.197  15.926 -2.4971  0.6681  0.3745
 8252TIP3   OH246170   4.470   3.091  11.499  0.1539 -0.1812  0.0437
 8252TIP3    H146171   4.546   3.054  11.543  1.0625 -0.5187 -1.7279
 8252TIP3    H246172   4.494   3.182  11.481 -0.2813  0.0035  0.3731
 8253TIP3   OH246173   1.256   2.604  14.095 -0.2838  0.1735  0.1482
 8253TIP3    H146174   1.280   2.687  14.135 -0.2866  0.7112 -0.9320
 8253TIP3    H246175   1.322   2.589  14.028 -0.7219 -0.3050 -0.1883
 8254TIP3   OH246176   4.019   0.357   3.776  0.2580 -0.4346 -0.5048
 8254TIP3    H146177   3.967   0.361   3.695 -0.0827  2.1420 -0.2216
 8254TIP3    H246178   4.049   0.446   3.790  0.1776 -0.7648  2.3234
 8255TIP3   OH246179   5.209   1.310  12.764 -0.1060  0.3554  0.3251
 8255TIP3    H146180   5.209   1.324  12.858 -0.3222  0.3255  0.3296
 8255TIP3    H246181   5.148   1.375  12.729 -1.3648 -0.7535  0.3754
 8256TIP3   OH246182   1.118   3.009   0.167 -0.7453  0.0884  0.4691
 8256TIP3    H146183   1.113   3.077   0.234  1.2078  0.0162  0.7666
 8256TIP3    H246184   1.135   3.056   0.086  0.3301  0.0002  0.6290
 8257TIP3   OH246185   3.153   6.077  15.625  0.1648 -0.2598 -0.2746
 8257TIP3    H146186   3.143   6.034  15.710  0.9668 -1.5013 -0.7789
 8257TIP3    H246187   3.123   6.011  15.561  2.2400 -0.4572 -1.1224
 8258TIP3   OH246188   4.408   5.961  16.276  0.3182  0.3863 -0.2176
 8258TIP3    H146189   4.397   5.874  16.314 -0.5512  0.2089 -0.8402
 8258TIP3    H246190   4.447   6.014  16.347 -0.6019 -0.1067  0.6772
 8259TIP3   OH246191   1.965   3.528   1.318  0.0843  0.4399 -0.3972
 8259TIP3    H146192   1.990   3.561   1.405 -1.6320  0.1998  0.2246
 8259TIP3    H246193   1.919   3.602   1.277 -1.5941 -0.3255  0.0307
 8260TIP3   OH246194   6.148   0.375  11.205 -0.2308  0.0640 -0.9490
 8260TIP3    H146195   6.175   0.410  11.291 -1.1115 -1.1859 -0.1436
 8260TIP3    H246196   6.220   0.399  11.147 -0.2306  2.1504 -0.1931
 8261TIP3   OH246197   0.977   3.448  14.310  0.2985  0.3123  0.1039
 8261TIP3    H146198   1.058   3.445  14.260  0.5099  0.6960  0.4238
 8261TIP3    H246199   0.974   3.364  14.356  0.1584  0.0025 -0.4548
 8262TIP3   OH246200   3.635   5.825   0.980 -0.2276  0.3388  0.0892
 8262TIP3    H146201   3.546   5.855   0.997 -0.5793 -0.0398 -1.0042
 8262TIP3    H246202   3.624   5.735   0.947  0.7119 -0.5289  2.0070
 8263TIP3   OH246203   4.436   5.628  17.061 -0.4542  0.2957 -0.1809
 8263TIP3    H146204   4.451   5.717  17.095 -0.7348  0.5333 -0.6643
 8263TIP3    H246205   4.380   5.587  17.127  0.9688 -0.0801  0.8596
 8264TIP3   OH246206   0.375   2.477   2.079  0.2457  0.5942  0.1223
 8264TIP3    H146207   0.446   2.474   2.016  0.5244  0.6907  0.4251
 8264TIP3    H246208   0.359   2.571   2.091  1.5425  0.6659  1.6676
 8265TIP3   OH246209   6.532   1.542   2.364  0.2186 -0.1382 -0.2572
 8265TIP3    H146210   6.576   1.457   2.371 -1.0297 -0.6565  2.5862
 8265TIP3    H246211   6.511   1.566   2.454 -1.0390  2.3766 -1.1276
 8266TIP3   OH246212   4.260   5.125  16.291 -0.0946  0.1516 -0.3306
 8266TIP3    H146213   4.215   5.209  16.304 -0.9479 -0.1787 -1.0416
 8266TIP3    H246214   4.194   5.059  16.309  0.7886 -0.4104  1.0155
 8267TIP3   OH246215   0.878   0.761  11.751 -0.2028  0.5220  0.0217
 8267TIP3    H146216   0.839   0.777  11.837  0.9585  1.0988  0.4630
 8267TIP3    H246217   0.851   0.672  11.729  2.1423 -0.9945  2.5226
 8268TIP3   OH246218   3.296   2.472   5.689 -0.1469  0.2980 -0.3038
 8268TIP3    H146219   3.374   2.487   5.742 -0.3852 -0.6719  0.3483
 8268TIP3    H246220   3.312   2.522   5.608  1.7148 -0.8763 -0.7200
 8269TIP3   OH246221   6.730   2.089   3.243 -0.0396 -0.4540 -0.2403
 8269TIP3    H146222   6.740   2.024   3.313 -2.5309 -1.7270 -0.9235
 8269TIP3    H246223   6.750   2.040   3.163 -1.2820 -0.2468 -0.7080
 8270TIP3   OH246224   6.493   3.981  11.431 -0.1138  0.3387  0.6216
 8270TIP3    H146225   6.563   4.025  11.480  1.1345  0.2633 -1.0062
 8270TIP3    H246226   6.467   4.044  11.364 -1.1629  0.1098  0.8024
 8271TIP3   OH246227   2.547   1.483   1.949 -0.6452  0.2782 -0.0845
 8271TIP3    H146228   2.579   1.486   1.859  0.8974  0.6893  0.4337
 8271TIP3    H246229   2.465   1.532   1.947 -0.8306 -0.0479 -1.3287
 8272TIP3   OH246230   1.487   3.685   2.629  0.2861  0.4173  0.4437
 8272TIP3    H146231   1.540   3.669   2.707 -0.0171 -0.8649  0.4046
 8272TIP3    H246232   1.433   3.607   2.620  0.0784  0.6858 -0.8553
 8273TIP3   OH246233   0.798   1.254   5.235  0.2325 -0.2893 -0.1120
 8273TIP3    H146234   0.728   1.192   5.252  0.0020  0.3570  1.4899
 8273TIP3    H246235   0.860   1.206   5.180 -1.2186 -1.0136 -1.1844
 8274TIP3   OH246236   1.626   0.577  11.820  0.2768 -0.1256 -0.6389
 8274TIP3    H146237   1.600   0.610  11.907  1.5045  0.1964 -0.3841
 8274TIP3    H246238   1.544   0.576  11.770 -0.9291 -2.5096  1.1854
 8275TIP3   OH246239   6.078   0.980   1.917 -0.5302  0.5630 -0.1876
 8275TIP3    H146240   6.046   0.956   2.004  1.1691 -1.6393 -0.1040
 8275TIP3    H246241   6.173   0.975   1.924 -0.3679 -0.4043 -2.3482
 8276TIP3   OH246242   5.769   5.048   4.210  0.0659  0.2099 -0.1996
 8276TIP3    H146243   5.818   4.966   4.203 -0.5187 -0.3630  1.9853
 8276TIP3    H246244   5.832   5.110   4.247 -0.2596  0.0206  0.6798
 8277TIP3   OH246245   3.367   4.356  12.057 -0.1569  0.0528 -0.2041
 8277TIP3    H146246   3.409   4.440  12.039  0.3585  0.1567  1.3062
 8277TIP3    H246247   3.440   4.294  12.065 -0.5472 -0.6348 -1.6512
 8278TIP3   OH246248   3.075   5.847   3.607 -0.5505  0.4970  0.4732
 8278TIP3    H146249   3.084   5.887   3.694 -1.1524  2.3537 -0.2616
 8278TIP3    H246250   2.982   5.826   3.600 -0.3612 -0.4084  0.5715
 8279TIP3   OH246251   2.776   2.562  15.449 -0.3465 -0.1564  0.0471
 8279TIP3    H146252   2.865   2.537  15.475 -1.1792 -1.7153  1.5902
 8279TIP3    H246253   2.719   2.524  15.516 -2.1650  1.2883 -0.5743
 8280TIP3   OH246254   5.162   5.650   3.605 -0.1108 -0.3443 -0.1822
 8280TIP3    H146255   5.164   5.555   3.594  1.1208 -0.5983  1.8190
 8280TIP3    H246256   5.160   5.663   3.700 -1.2151  1.6346 -0.4365
 8281TIP3   OH246257   0.142   1.911  11.605 -0.2077 -0.1113 -0.0561
 8281TIP3    H146258   0.112   1.968  11.535  1.7139 -1.5043 -2.1472
 8281TIP3    H246259   0.144   1.824  11.565 -1.1949 -1.3724  2.4417
 8282TIP3   OH246260   6.639   3.871   6.534 -0.6259 -0.4215 -0.3574
 8282TIP3    H146261   6.730   3.859   6.561 -0.1941 -0.4849 -1.7577
 8282TIP3    H246262   6.641   3.946   6.475 -1.3274 -0.9815 -1.1090
 8283TIP3   OH246263   4.190   4.180  12.630 -0.3153  0.0231  0.3498
 8283TIP3    H146264   4.131   4.225  12.569  1.5728 -0.9652 -2.4172
 8283TIP3    H246265   4.275   4.179  12.585  0.7686 -2.4334  2.2001
 8284TIP3   OH246266   0.565   5.343  10.916  0.3179 -0.5040 -0.1667
 8284TIP3    H146267   0.612   5.413  10.961  0.3011 -0.0566 -0.8229
 8284TIP3    H246268   0.622   5.320  10.842  0.1619 -0.9466 -0.1530
 8285TIP3   OH246269   4.457   6.575  16.462 -0.0364 -0.0800  0.1567
 8285TIP3    H146270   4.364   6.552  16.454 -0.0891 -0.3501  1.4248
 8285TIP3    H246271   4.456   6.668  16.484  0.0866  0.4762 -1.9803
 8286TIP3   OH246272   2.878   4.850  15.521  0.3182  0.6457 -0.2770
 8286TIP3    H146273   2.900   4.943  15.520 -0.4037  0.8431  0.4840
 8286TIP3    H246274   2.860   4.831  15.613  1.9365 -0.6257 -0.1764
 8287TIP3   OH246275   5.773   2.259   4.615  0.2351  0.5932  0.5713
 8287TIP3    H146276   5.765   2.250   4.520 -0.7851 -1.0943  0.7823
 8287TIP3    H246277   5.848   2.204   4.638  0.1102  0.5224  0.8112
 8288TIP3   OH246278   4.105   3.698  15.730  0.4719  0.2190  0.1598
 8288TIP3    H146279   4.137   3.632  15.668  3.1259  0.9824  0.5950
 8288TIP3    H246280   4.095   3.651  15.812  0.1331 -0.1106 -0.0658
 8289TIP3   OH246281   4.886   5.129  15.412 -0.0786 -0.8776 -0.0921
 8289TIP3    H146282   4.809   5.164  15.367 -1.5597 -1.0235  2.1434
 8289TIP3    H246283   4.869   5.035  15.417  0.2871 -0.9239  0.3260
 8290TIP3   OH246284   3.615   1.080   4.002 -0.3311  0.2527  0.1316
 8290TIP3    H146285   3.690   1.076   4.061 -0.1427  3.9975  0.3915
 8290TIP3    H246286   3.545   1.119   4.055 -0.3385  3.1349 -1.7805
 8291TIP3   OH246287   2.282   5.599   4.041  0.0824 -0.2052 -0.1668
 8291TIP3    H146288   2.365   5.624   4.081  1.2743 -3.1605 -0.5580
 8291TIP3    H246289   2.304   5.569   3.953 -1.4153 -0.8542 -0.3678
 8292TIP3   OH246290   3.174   2.491  12.024  0.4512  0.1198 -0.5214
 8292TIP3    H146291   3.191   2.505  12.118 -0.1456 -3.8197  0.3418
 8292TIP3    H246292   3.116   2.562  11.999 -2.6949 -0.8302  3.2205
 8293TIP3   OH246293   3.050   5.394   5.505  0.5500 -0.4245 -0.3351
 8293TIP3    H146294   3.008   5.479   5.520 -1.3334 -1.4111  0.4213
 8293TIP3    H246295   3.047   5.351   5.591  1.3112 -1.3140 -0.7437
 8294TIP3   OH246296   4.045   3.317   3.417 -0.1554  0.2880 -0.2448
 8294TIP3    H146297   4.038   3.398   3.467  0.9879  0.0938  0.2811
 8294TIP3    H246298   4.132   3.321   3.377 -0.0540 -0.6948 -0.1551
 8295TIP3   OH246299   4.738   6.292   1.087 -0.1233  0.2445 -0.0398
 8295TIP3    H146300   4.651   6.254   1.091  0.5839 -1.6559 -1.3089
 8295TIP3    H246301   4.789   6.243   1.152  0.1897  0.8595  0.1921
 8296TIP3   OH246302   2.292   2.313   0.965  0.5926 -0.6351  0.1235
 8296TIP3    H146303   2.205   2.296   0.929  0.3173  1.0295 -0.0961
 8296TIP3    H246304   2.291   2.274   1.052  0.5465 -2.8991 -0.8363
 8297TIP3   OH246305   4.130   1.105  13.942  0.4167  0.6511  0.0169
 8297TIP3    H146306   4.094   1.191  13.960  1.3407  0.9703  0.3969
 8297TIP3    H246307   4.139   1.064  14.028  1.6148  0.8563  0.0064
 8298TIP3   OH246308   0.615   0.168  15.720  0.1212 -0.3000 -0.3935
 8298TIP3    H146309   0.695   0.134  15.681  0.8826  0.4257  0.4960
 8298TIP3    H246310   0.645   0.233  15.784 -1.2280  1.2064 -1.2094
 8299TIP3   OH246311   5.868   0.488   0.032 -0.1998  0.4634  0.3471
 8299TIP3    H146312   5.940   0.432   0.004 -0.7542 -0.1689  0.1703
 8299TIP3    H246313   5.819   0.505  -0.049  0.0954  1.4046  0.3554
 8300TIP3   OH246314   5.636   3.936  16.469  0.4571 -0.0177  0.0575
 8300TIP3    H146315   5.591   3.871  16.523  0.7632 -0.6328 -0.4243
 8300TIP3    H246316   5.595   4.019  16.494 -0.8406 -0.5368 -0.2414
 8301TIP3   OH246317   6.303   1.525  15.698  0.1545 -0.3356  0.6893
 8301TIP3    H146318   6.328   1.434  15.716 -0.2543 -0.5920 -0.0248
 8301TIP3    H246319   6.267   1.556  15.781 -1.0667 -1.2835  0.5482
 8302TIP3   OH246320   2.495   1.879  12.147 -0.3249  0.0922  0.0777
 8302TIP3    H146321   2.505   1.942  12.075 -1.3527  2.2592  1.7022
 8302TIP3    H246322   2.580   1.835  12.153 -0.0349  0.2824 -2.0465
 8303TIP3   OH246323   1.675   6.332  15.309  0.5507 -0.4864  0.5949
 8303TIP3    H146324   1.606   6.326  15.243  0.2258  0.7055  0.8057
 8303TIP3    H246325   1.751   6.292  15.267  0.3279  0.1832 -0.4822
 8304TIP3   OH246326   1.665   5.200   6.160 -0.2275  0.3985  0.5341
 8304TIP3    H146327   1.751   5.162   6.178  0.2541  1.5439  0.7450
 8304TIP3    H246328   1.683   5.292   6.140 -1.4349  0.7341  0.8816
 8305TIP3   OH246329   3.769   2.012   3.968  0.7798 -0.4257  0.4577
 8305TIP3    H146330   3.735   2.070   4.035  0.5296 -0.0322 -0.0010
 8305TIP3    H246331   3.853   1.982   4.002  0.0908 -1.2187  1.4913
 8306TIP3   OH246332   0.489   4.034  15.406 -0.4657  0.1170  0.2792
 8306TIP3    H146333   0.446   4.051  15.490 -2.1758  0.1391 -0.5639
 8306TIP3    H246334   0.418   4.005  15.348  0.7502 -0.3187 -1.0438
 8307TIP3   OH246335   3.135   6.753  12.908 -0.3398  0.0097  0.1570
 8307TIP3    H146336   3.173   6.734  12.822 -0.3646 -2.8522  0.6834
 8307TIP3    H246337   3.203   6.803  12.953  1.8652 -2.7071  0.1400
 8308TIP3   OH246338   1.336   3.482  17.179 -0.0149 -0.6908 -0.5089
 8308TIP3    H146339   1.278   3.554  17.205 -0.0014 -0.5115 -0.9598
 8308TIP3    H246340   1.422   3.523  17.171  0.1271 -0.9045 -0.0871
 8309TIP3   OH246341   4.532   3.031  16.727  0.2486  0.3628 -0.0277
 8309TIP3    H146342   4.626   3.015  16.729 -0.1145 -2.2302  1.9160
 8309TIP3    H246343   4.493   2.946  16.749 -2.5320  1.4777 -0.2793
 8310TIP3   OH246344   2.910   2.788  16.105  1.1614 -0.2808 -0.4196
 8310TIP3    H146345   2.844   2.856  16.091  1.1925  0.1014  1.0743
 8310TIP3    H246346   2.870   2.728  16.167  1.7899 -0.6711 -0.3814
 8311TIP3   OH246347   5.976   5.041   2.006  0.0393 -0.0231  0.2059
 8311TIP3    H146348   5.909   5.052   2.073  0.4606 -0.3274  0.6930
 8311TIP3    H246349   6.002   5.130   1.983 -0.1058  0.0849  0.4555
 8312TIP3   OH246350   0.848   6.287   5.700  0.3830 -0.6875  0.2730
 8312TIP3    H146351   0.786   6.287   5.628 -3.1164  0.0916  3.0069
 8312TIP3    H246352   0.888   6.374   5.698 -1.3051  0.1271  0.4662
 8313TIP3   OH246353   2.275   2.906   5.139 -0.5212 -0.8471  0.3737
 8313TIP3    H146354   2.352   2.859   5.107  0.2894  0.5790  0.1734
 8313TIP3    H246355   2.295   2.928   5.230 -0.2680  0.3427  0.0470
 8314TIP3   OH246356   1.789   2.086   3.027  0.2419 -0.0643  0.5052
 8314TIP3    H146357   1.755   2.015   3.083 -2.0147  0.3452 -0.2528
 8314TIP3    H246358   1.723   2.154   3.032  1.1988  1.0064 -0.7372
 8315TIP3   OH246359   1.129   3.168  11.228  0.0422  0.4743  0.2395
 8315TIP3    H146360   1.082   3.188  11.308 -0.8022  1.9445 -0.5819
 8315TIP3    H246361   1.204   3.228  11.228  0.8636 -0.5070  0.5859
 8316TIP3   OH246362   3.484   5.998   0.198  0.4304 -0.3395  0.0817
 8316TIP3    H146363   3.472   6.085   0.160 -0.9776 -0.5914 -0.0985
 8316TIP3    H246364   3.424   5.942   0.149  0.6277 -1.2294  0.8320
 8317TIP3   OH246365   3.996   0.064  16.690  0.2770 -0.1381 -1.0228
 8317TIP3    H146366   3.987   0.029  16.601 -0.6074  1.3052 -1.5398
 8317TIP3    H246367   3.988  -0.013  16.747 -0.1058 -0.9629 -2.1556
 8318TIP3   OH246368   0.897   4.613  13.329 -0.2883  0.1571 -0.3088
 8318TIP3    H146369   0.831   4.544  13.341 -1.3631  1.2126  0.1031
 8318TIP3    H246370   0.957   4.601  13.402 -0.1549 -0.6644 -0.5422
 8319TIP3   OH246371   0.089   4.700  14.697  0.6429  0.4890  0.0765
 8319TIP3    H146372   0.124   4.731  14.781  1.3858 -2.0435  0.7735
 8319TIP3    H246373   0.031   4.628  14.719  0.1801  0.3114 -1.5531
 8320TIP3   OH246374   4.113   5.023   6.851 -0.4706  0.1208  0.7673
 8320TIP3    H146375   4.111   4.927   6.850 -1.1207  0.1165 -0.4191
 8320TIP3    H246376   4.026   5.048   6.882 -0.9598  0.2921 -0.6472
 8321TIP3   OH246377   1.394   4.442   0.667  0.0595  0.0419 -0.0149
 8321TIP3    H146378   1.441   4.508   0.717  0.5782  0.6628 -1.2918
 8321TIP3    H246379   1.348   4.491   0.598 -1.2699 -0.7082  0.2973
 8322TIP3   OH246380   5.435   5.711   6.353 -0.3693 -0.1406  0.2350
 8322TIP3    H146381   5.405   5.781   6.411  0.1833 -0.0096  0.3659
 8322TIP3    H246382   5.368   5.643   6.362 -0.8907  0.3517  0.1329
 8323TIP3   OH246383   0.408   5.467  15.327 -0.3999 -0.3881  0.2266
 8323TIP3    H146384   0.432   5.457  15.419 -0.3091 -0.6897  0.1692
 8323TIP3    H246385   0.312   5.464  15.326 -0.4004 -0.3781  0.3124
 8324TIP3   OH246386   5.404   3.787   1.862 -0.1183  0.5378  0.2772
 8324TIP3    H146387   5.331   3.802   1.922  0.5957  2.1698  0.8191
 8324TIP3    H246388   5.371   3.725   1.798 -1.1522 -0.6928  1.9313
 8325TIP3   OH246389   5.761   3.847   0.239  0.5526  0.5284 -0.6622
 8325TIP3    H146390   5.751   3.942   0.232  1.7402  0.8123  0.8064
 8325TIP3    H246391   5.826   3.835   0.308 -0.5130 -1.3939  0.0915
 8326TIP3   OH246392   1.229   0.671  17.059 -0.2835  0.0465 -0.4176
 8326TIP3    H146393   1.176   0.662  16.980  2.5701 -0.0549 -2.4968
 8326TIP3    H246394   1.239   0.766  17.070 -1.1989  0.0768  0.2346
 8327TIP3   OH246395   5.240   6.583  12.614 -0.1421 -0.6156  0.0578
 8327TIP3    H146396   5.233   6.497  12.653 -0.2677 -0.7839 -0.3298
 8327TIP3    H246397   5.184   6.639  12.667  0.9163 -0.4926  1.0833
 8328TIP3   OH246398   4.398   5.037   4.800  0.6204 -0.5443 -0.8087
 8328TIP3    H146399   4.346   5.108   4.837  1.8759  0.5339 -1.0296
 8328TIP3    H246400   4.377   4.960   4.854  1.3878  0.6581  1.2865
 8329TIP3   OH246401   0.382   6.614  14.196 -0.0495 -0.1078  0.0490
 8329TIP3    H146402   0.391   6.522  14.172 -1.4853 -0.3218  0.2294
 8329TIP3    H246403   0.329   6.652  14.125 -0.9401  0.1574  0.8305
 8330TIP3   OH246404   6.392   2.229  12.757  0.5566  0.0127  0.1213
 8330TIP3    H146405   6.307   2.229  12.801  0.1182 -3.5854 -0.4568
 8330TIP3    H246406   6.456   2.220  12.828  0.4196  1.3972  0.4515
 8331TIP3   OH246407   1.926   3.531   2.367  0.4182 -0.0983 -0.5251
 8331TIP3    H146408   1.963   3.575   2.290 -1.0189 -1.5725 -2.1251
 8331TIP3    H246409   1.963   3.442   2.364 -0.2307 -0.3984  0.0848
 8332TIP3   OH246410   2.780   6.491   0.113  0.6177 -0.1753 -0.1588
 8332TIP3    H146411   2.794   6.465   0.022 -1.1582 -0.2912 -0.4340
 8332TIP3    H246412   2.687   6.476   0.128  0.7615  0.4209  1.5009
 8333TIP3   OH246413   5.119   1.400   0.968  0.3083  0.4079  0.1327
 8333TIP3    H146414   5.110   1.495   0.973  1.2365  0.4520  1.5018
 8333TIP3    H246415   5.203   1.381   1.010  1.0397 -0.8727 -1.7777
 8334TIP3   OH246416   5.852   4.809   2.327  0.2742  0.4669  0.1638
 8334TIP3    H146417   5.906   4.730   2.331  0.4048  0.4706 -1.1123
 8334TIP3    H246418   5.858   4.847   2.415 -1.1309 -1.7969  1.3225
 8335TIP3   OH246419   3.158   3.095   4.830  0.2095  0.1543 -0.1157
 8335TIP3    H146420   3.085   3.035   4.816  0.3758 -0.8261  2.5303
 8335TIP3    H246421   3.118   3.182   4.830 -0.6334 -0.2231 -0.5414
 8336TIP3   OH246422   0.038   2.125  11.486  0.2103 -0.3081 -0.3306
 8336TIP3    H146423   0.082   2.090  11.409 -0.7715  1.5993 -1.8499
 8336TIP3    H246424  -0.048   2.152  11.455 -0.9150 -1.1008  1.8666
 8337TIP3   OH246425   0.396   1.324   4.048 -0.0162  0.5643 -0.1670
 8337TIP3    H146426   0.304   1.350   4.043 -0.0978  0.0080 -2.1316
 8337TIP3    H246427   0.406   1.290   4.137 -0.8120  3.7399  1.2991
 8338TIP3   OH246428   3.596   5.907  16.763  0.0532 -0.4577  0.1289
 8338TIP3    H146429   3.502   5.906  16.742  0.0814 -1.2138 -0.0026
 8338TIP3    H246430   3.611   5.824  16.810  0.9757 -1.1761 -1.3551
 8339TIP3   OH246431   1.700   3.200  12.411  0.1976  0.0578 -0.0508
 8339TIP3    H146432   1.671   3.125  12.359  1.6698 -1.0112  0.5664
 8339TIP3    H246433   1.622   3.229  12.457 -0.8142  0.1201 -1.7413
 8340TIP3   OH246434   3.702   3.742   3.151  0.1004  0.1770 -0.2478
 8340TIP3    H146435   3.723   3.693   3.071  1.7603  0.4589 -0.0307
 8340TIP3    H246436   3.611   3.720   3.170 -0.0074 -0.6985 -1.6498
 8341TIP3   OH246437   6.352   6.274   2.894 -1.0191 -0.4967  0.2268
 8341TIP3    H146438   6.419   6.243   2.834 -0.9392 -0.6969  0.4175
 8341TIP3    H246439   6.290   6.201   2.902 -0.3082 -1.0026  1.4544
 8342TIP3   OH246440   1.493   0.663  14.244 -0.0456  0.5044  0.3380
 8342TIP3    H146441   1.509   0.740  14.189  1.3921  2.1521  2.8393
 8342TIP3    H246442   1.411   0.682  14.289 -1.4445 -1.0321 -1.4508
 8343TIP3   OH246443   2.758   3.052   0.667  0.5357 -0.3624  0.4461
 8343TIP3    H146444   2.836   2.997   0.664  2.0198  1.6057 -2.4060
 8343TIP3    H246445   2.775   3.116   0.736  0.1879 -1.5211  1.6402
 8344TIP3   OH246446   3.835   1.216  11.183 -0.0378 -0.2225 -0.2049
 8344TIP3    H146447   3.903   1.149  11.180 -1.7056 -2.2047  2.2938
 8344TIP3    H246448   3.758   1.174  11.146 -1.3006  0.0213  2.0061
 8345TIP3   OH246449   4.163   6.076   2.114 -0.8309 -0.0548  0.2795
 8345TIP3    H146450   4.068   6.091   2.107 -0.6782  0.6588 -0.4560
 8345TIP3    H246451   4.178   5.996   2.065 -0.8158  0.8431 -1.2412
 8346TIP3   OH246452   1.870   5.686  12.569 -0.0811 -0.0395  0.0607
 8346TIP3    H146453   1.823   5.645  12.496 -0.6423 -0.3137  0.5772
 8346TIP3    H246454   1.878   5.617  12.635  2.0920 -0.3853 -0.4596
 8347TIP3   OH246455   1.356   6.418   5.380 -0.2179  0.3638 -0.1552
 8347TIP3    H146456   1.401   6.336   5.363 -1.8053 -0.2212 -1.9860
 8347TIP3    H246457   1.403   6.457   5.454  0.8817 -1.9282  0.4502
 8348TIP3   OH246458   0.618   4.907  11.878  0.4102 -0.5083 -0.4411
 8348TIP3    H146459   0.526   4.894  11.901  0.9691 -1.8360  1.2537
 8348TIP3    H246460   0.644   4.827  11.834  1.4878 -1.5002  1.8241
 8349TIP3   OH246461   5.480   4.761   3.778 -0.3536 -0.3972  0.5371
 8349TIP3    H146462   5.526   4.806   3.707 -0.9284  1.9158  1.5595
 8349TIP3    H246463   5.445   4.682   3.736  0.5861  0.1298 -1.3787
 8350TIP3   OH246464   5.101   1.903  16.620 -0.8405 -0.1906  0.0881
 8350TIP3    H146465   5.049   1.983  16.619  1.3277  1.3281 -0.0707
 8350TIP3    H246466   5.088   1.866  16.708 -2.1349  0.1186  0.0435
 8351TIP3   OH246467   0.761   3.376  12.749 -0.2752 -0.4158  0.7593
 8351TIP3    H146468   0.830   3.442  12.751 -1.4220  0.8218  0.2276
 8351TIP3    H246469   0.793   3.311  12.686 -1.5356  2.4843 -3.3191
 8352TIP3   OH246470   5.449   2.818   1.438 -0.1968  0.1910  0.1928
 8352TIP3    H146471   5.449   2.728   1.406  1.1157 -0.4700  1.8535
 8352TIP3    H246472   5.520   2.861   1.390 -0.3921  0.1625 -0.1250
 8353TIP3   OH246473   5.405   4.485  14.400  0.1010  0.3583 -0.4424
 8353TIP3    H146474   5.449   4.557  14.354  0.0958  0.2549 -0.6076
 8353TIP3    H246475   5.362   4.528  14.475  1.5238  0.2928  0.4521
 8354TIP3   OH246476   5.901   0.800  12.846  0.5964  0.5225  0.1970
 8354TIP3    H146477   5.868   0.885  12.818  2.0145  1.2597  0.6523
 8354TIP3    H246478   5.980   0.787  12.793 -0.4731 -1.3063 -1.0564
 8355TIP3   OH246479   2.292   6.714   4.833  0.3533  0.0162  0.3031
 8355TIP3    H146480   2.280   6.778   4.904 -1.8985 -0.4293  0.4165
 8355TIP3    H246481   2.377   6.735   4.797  0.1213  2.4958  0.9547
 8356TIP3   OH246482   2.083   2.581  12.755  0.3448 -0.5540  0.0032
 8356TIP3    H146483   2.083   2.617  12.843  0.9277  0.0113 -0.2158
 8356TIP3    H246484   2.089   2.658  12.698 -0.5430 -0.8818 -0.5464
 8357TIP3   OH246485   5.299   0.167  12.591 -0.1667 -0.1776  0.5841
 8357TIP3    H146486   5.341   0.130  12.668 -1.2061 -0.7975  0.8856
 8357TIP3    H246487   5.205   0.151  12.605 -0.3389 -0.9423 -1.1250
 8358TIP3   OH246488   5.274   2.114  17.103  0.1775 -0.4512 -0.1473
 8358TIP3    H146489   5.273   2.147  17.013  1.1186 -2.7196 -1.0555
 8358TIP3    H246490   5.345   2.162  17.145  1.9165 -1.6329 -1.5992
 8359TIP3   OH246491   1.537   5.751   6.534  0.1689 -0.0564  0.1962
 8359TIP3    H146492   1.503   5.791   6.454 -0.0706  1.8696  1.2089
 8359TIP3    H246493   1.632   5.760   6.528  0.4220 -2.6064 -1.1742
 8360TIP3   OH246494   1.731   1.786  15.359  0.5574 -0.2062  0.7255
 8360TIP3    H146495   1.785   1.730  15.415  0.6723  0.6351  1.4868
 8360TIP3    H246496   1.725   1.739  15.276  1.8955 -0.6332  0.8539
 8361TIP3   OH246497   2.858   5.431  14.919  0.5376 -0.4840  0.2877
 8361TIP3    H146498   2.896   5.512  14.886 -1.5482  0.1754 -0.6538
 8361TIP3    H246499   2.784   5.414  14.862  0.0369 -2.2821  1.3822
 8362TIP3   OH246500   5.004   5.584   2.075  0.4097  0.6435 -0.1821
 8362TIP3    H146501   4.993   5.617   1.986  1.5907  0.7657 -0.2952
 8362TIP3    H246502   5.075   5.521   2.069 -1.4420 -1.6129  0.1186
 8363TIP3   OH246503   4.688   4.050  13.972  0.0721  0.1306 -0.7299
 8363TIP3    H146504   4.602   4.087  13.992  0.0696 -0.3806  0.2489
 8363TIP3    H246505   4.728   4.114  13.913 -0.4817  1.0070 -0.1839
 8364TIP3   OH246506   3.689   5.246  15.379  0.3112  0.0025  0.6547
 8364TIP3    H146507   3.752   5.181  15.409 -0.3882 -1.3554 -0.6698
 8364TIP3    H246508   3.653   5.285  15.459 -0.7547 -2.7285  1.5993
 8365TIP3   OH246509   4.687   6.728  16.619 -0.2707  0.3761  0.2317
 8365TIP3    H146510   4.602   6.768  16.598  0.1832  0.8865 -0.7155
 8365TIP3    H246511   4.743   6.752  16.545  0.9259  0.7311  1.2157
 8366TIP3   OH246512   1.179   3.838   1.684 -0.2337  0.3643 -0.6121
 8366TIP3    H146513   1.146   3.790   1.608  1.0629  1.8725 -2.2013
 8366TIP3    H246514   1.101   3.861   1.733 -0.9529 -3.1643  0.2003
 8367TIP3   OH246515   0.494   1.646   3.552  0.2030 -0.0643  0.1076
 8367TIP3    H146516   0.443   1.652   3.633  0.7393  1.2888  0.3734
 8367TIP3    H246517   0.535   1.732   3.543  0.3481 -0.2771 -1.4825
 8368TIP3   OH246518   4.105   6.250   1.590 -0.3930  0.5778 -0.0848
 8368TIP3    H146519   4.058   6.173   1.557  1.8355  0.3696 -3.2676
 8368TIP3    H246520   4.052   6.324   1.559 -1.4535  0.3830  1.1887
 8369TIP3   OH246521   3.556   1.880   4.530 -0.4971 -0.1470  0.5887
 8369TIP3    H146522   3.610   1.816   4.577 -1.0272  0.4569  2.0877
 8369TIP3    H246523   3.488   1.828   4.489 -1.1945 -0.5563  2.1748
 8370TIP3   OH246524   6.278   1.826   1.622  0.3085 -0.6091  0.0058
 8370TIP3    H146525   6.330   1.800   1.546  1.9879 -0.5206  1.0695
 8370TIP3    H246526   6.282   1.751   1.681 -2.3470 -1.3244 -0.5959
 8371TIP3   OH246527   3.119   5.372  15.390  0.1096  0.2190 -0.3839
 8371TIP3    H146528   3.079   5.436  15.449  2.3779  2.2470 -0.9190
 8371TIP3    H246529   3.207   5.358  15.425  1.0344  0.4331 -2.4755
 8372TIP3   OH246530   4.202   3.839  14.483 -0.0553  0.2063  0.0921
 8372TIP3    H146531   4.153   3.815  14.404  2.3151 -0.4969 -1.2617
 8372TIP3    H246532   4.139   3.886  14.537 -2.1392 -0.4833 -1.6104
 8373TIP3   OH246533   4.110   6.157  14.948  0.0108  0.2146 -0.5342
 8373TIP3    H146534   4.171   6.109  15.005 -1.9155 -0.0939  1.4085
 8373TIP3    H246535   4.076   6.091  14.888 -1.4446 -0.5786  1.0963
 8374TIP3   OH246536   4.401   4.361   4.846  0.5518 -0.1563  0.1368
 8374TIP3    H146537   4.493   4.387   4.855  0.0724  1.2291  1.5891
 8374TIP3    H246538   4.362   4.433   4.796  0.0051 -0.0391  0.7188
 8375TIP3   OH246539   3.147   1.418   2.146  0.0068  0.1532  0.0832
 8375TIP3    H146540   3.145   1.514   2.145  1.1282  0.1978  0.3817
 8375TIP3    H246541   3.069   1.392   2.099  1.5670  1.2207 -3.4426
 8376TIP3   OH246542   6.156   4.375  14.160 -0.2696 -0.2810 -0.2142
 8376TIP3    H146543   6.178   4.463  14.131  1.4983 -0.1899  1.2146
 8376TIP3    H246544   6.061   4.369  14.151 -0.4614  1.8947 -0.0191
 8377TIP3   OH246545   3.910   6.391  11.815  0.4419 -0.3631  0.3289
 8377TIP3    H146546   3.826   6.345  11.817  0.1643 -0.2456 -2.9938
 8377TIP3    H246547   3.890   6.476  11.778  2.1674 -0.8923 -2.0180
 8378TIP3   OH246548   4.616   4.880   4.301  0.1763 -0.4365  0.8004
 8378TIP3    H146549   4.660   4.960   4.328  0.4683  0.7296 -2.6688
 8378TIP3    H246550   4.528   4.886   4.340 -0.0939  2.0290 -0.0071
 8379TIP3   OH246551   5.024   3.522  16.143  0.0662  0.3089  0.4843
 8379TIP3    H146552   5.080   3.508  16.067  1.1046  0.0240  1.2844
 8379TIP3    H246553   4.960   3.588  16.114 -1.8475 -2.2894 -1.8001
 8380TIP3   OH246554   4.822   3.401  12.302  0.0473  0.2120 -0.1335
 8380TIP3    H146555   4.870   3.483  12.288  0.4565  0.0950  0.5817
 8380TIP3    H246556   4.890   3.333  12.303  0.1458  0.2494  2.9054
 8381TIP3   OH246557   2.026   5.879  11.254  0.0438 -0.4074  0.4384
 8381TIP3    H146558   2.011   5.961  11.300  0.2495 -0.6996  1.0503
 8381TIP3    H246559   1.977   5.814  11.304 -0.3531 -0.6091 -0.2077
 8382TIP3   OH246560   4.815   0.686   0.340 -0.1616  0.1395  0.9495
 8382TIP3    H146561   4.735   0.636   0.352 -0.2966  0.3782  1.0549
 8382TIP3    H246562   4.867   0.668   0.418  0.6391 -1.3796  0.1146
 8383TIP3   OH246563   3.109   4.776  14.231  0.0759  0.1718 -0.6113
 8383TIP3    H146564   3.169   4.754  14.159  1.0517  0.0996  0.1955
 8383TIP3    H246565   3.026   4.735  14.207  0.9398 -1.6371 -0.7156
 8384TIP3   OH246566   2.277   4.493   6.267 -0.0311  0.3884  0.3862
 8384TIP3    H146567   2.316   4.578   6.250 -1.6644  1.1511  0.2634
 8384TIP3    H246568   2.247   4.498   6.358  0.4674 -0.3134  0.5984
 8385TIP3   OH246569   4.459   4.098  15.132 -0.0198 -0.0362  0.2853
 8385TIP3    H146570   4.382   4.155  15.122  0.0354  0.1321  0.8212
 8385TIP3    H246571   4.429   4.013  15.099 -0.3122  0.1318  0.1112
 8386TIP3   OH246572   3.694   4.780   5.511  0.5868 -0.0701  0.1437
 8386TIP3    H146573   3.725   4.740   5.592  0.2044  1.6035  1.1615
 8386TIP3    H246574   3.773   4.815   5.469  0.4818  1.5196  1.2181
 8387TIP3   OH246575   1.544   0.052  14.652  0.3935 -0.2022 -0.2978
 8387TIP3    H146576   1.579   0.051  14.563  1.0403  1.2760 -0.0963
 8387TIP3    H246577   1.466  -0.003  14.648  0.2510  0.0673 -1.8526
 8388TIP3   OH246578   0.278   0.463  13.678  0.6625  0.1129 -0.4640
 8388TIP3    H146579   0.227   0.450  13.757 -0.4978  0.2658 -1.1667
 8388TIP3    H246580   0.233   0.533  13.632  1.5334  0.2751 -1.0861
 8389TIP3   OH246581   4.117   3.752  13.761  0.2555 -0.3038  0.0475
 8389TIP3    H146582   4.188   3.808  13.794  2.3390 -2.7745  0.0739
 8389TIP3    H246583   4.149   3.721  13.676 -1.7259  0.0611 -0.8790
 8390TIP3   OH246584   6.120   2.903   3.818 -0.1335  0.2993  0.0010
 8390TIP3    H146585   6.207   2.905   3.779  1.1937 -2.1085  2.4663
 8390TIP3    H246586   6.065   2.860   3.754  1.4593 -1.6688 -0.1308
 8391TIP3   OH246587   0.194   6.470  16.893 -0.5390 -0.1538 -0.0706
 8391TIP3    H146588   0.288   6.467  16.909 -0.6119  2.1657  1.3654
 8391TIP3    H246589   0.156   6.424  16.968 -0.5630  0.7323  0.4823
 8392TIP3   OH246590   4.556   0.628  12.059  0.0225  0.0470 -0.0356
 8392TIP3    H146591   4.643   0.627  12.020 -1.0388  0.8443 -2.6509
 8392TIP3    H246592   4.500   0.582  11.995 -1.1602 -2.3917  2.5586
 8393TIP3   OH246593   4.385   5.121  13.165 -0.3390 -0.0032 -0.3033
 8393TIP3    H146594   4.401   5.199  13.219 -2.0788  0.5363 -0.4992
 8393TIP3    H246595   4.297   5.092  13.190 -0.0444 -1.4418 -0.8180
 8394TIP3   OH246596   4.180   1.338   5.015  0.1467  0.0933 -0.5154
 8394TIP3    H146597   4.173   1.246   5.040 -0.3345  0.0588 -0.7612
 8394TIP3    H246598   4.265   1.345   4.971 -0.5760 -0.6357 -2.1080
 8395TIP3   OH246599   6.581   0.288  15.468  0.4302 -0.1062 -0.5827
 8395TIP3    H146600   6.525   0.237  15.527  1.2587  0.6161  0.8993
 8395TIP3    H246601   6.601   0.229  15.396 -1.9466 -0.4848 -0.9905
 8396TIP3   OH246602   2.106   4.434   2.328 -0.5724 -0.0946 -0.0212
 8396TIP3    H146603   2.057   4.508   2.293 -2.3157 -1.8644 -1.5656
 8396TIP3    H246604   2.042   4.384   2.378  0.3164 -1.0811  0.1602
 8397TIP3   OH246605   3.018   3.744   4.684 -0.4737  0.0582 -0.2788
 8397TIP3    H146606   2.960   3.687   4.736  1.4110 -0.7132  1.1129
 8397TIP3    H246607   3.093   3.760   4.742  1.2270  0.0959 -2.3727
 8398TIP3   OH246608   6.531   4.144   1.352  0.0333 -0.7921 -0.3863
 8398TIP3    H146609   6.514   4.217   1.293  1.6090  0.0255  0.1030
 8398TIP3    H246610   6.626   4.129   1.345  1.2504  2.0664  4.8159
 8399TIP3   OH246611   2.868   1.658  11.939 -0.2487  0.7235 -0.9126
 8399TIP3    H146612   2.926   1.731  11.962 -0.4621  0.4819  0.4473
 8399TIP3    H246613   2.793   1.700  11.897 -0.4886  1.3299  0.0872
 8400TIP3   OH246614   1.780   1.182  14.527  0.2958  0.9663 -0.3802
 8400TIP3    H146615   1.697   1.144  14.555 -0.6808  3.0506 -0.2883
 8400TIP3    H246616   1.796   1.252  14.590  1.6804  1.1886 -0.9431
 8401TIP3   OH246617   5.018   3.874   3.284 -0.1960 -0.3823 -0.4763
 8401TIP3    H146618   4.995   3.782   3.277  0.8522 -0.7730  0.7889
 8401TIP3    H246619   5.114   3.876   3.288 -0.2293  0.6230  0.7775
 8402TIP3   OH246620   5.491   4.420   4.044 -0.7665  0.0871  0.6610
 8402TIP3    H146621   5.456   4.509   4.042 -0.1469  0.3285 -0.6398
 8402TIP3    H246622   5.542   4.412   3.963 -0.1630 -1.1913  1.1342
 8403TIP3   OH246623   5.647   0.919   2.251  0.3074 -0.7536  0.1548
 8403TIP3    H146624   5.673   0.991   2.309 -1.2363 -0.7223  0.8623
 8403TIP3    H246625   5.589   0.865   2.304 -1.3666 -0.5911 -1.4119
 8404TIP3   OH246626   5.992   4.652  12.256  0.1700  0.2660 -0.4467
 8404TIP3    H146627   6.026   4.682  12.340  1.0127 -0.1973 -0.6051
 8404TIP3    H246628   5.943   4.573  12.277 -2.1972  1.7461 -0.0051
 8405TIP3   OH246629   4.543   3.737  13.856 -0.3488  0.1914 -0.1653
 8405TIP3    H146630   4.592   3.696  13.784  0.7792 -0.6891  1.0483
 8405TIP3    H246631   4.610   3.765  13.917 -1.3277 -0.8554  1.4654
 8406TIP3   OH246632   3.375   2.845  15.696 -0.0603  0.0817  0.0157
 8406TIP3    H146633   3.467   2.838  15.721 -0.1044 -0.1140  0.1264
 8406TIP3    H246634   3.376   2.854  15.600  0.1992  2.4241  0.1716
 8407TIP3   OH246635   1.249   2.633   1.692 -0.0740  0.3375 -1.0688
 8407TIP3    H146636   1.291   2.708   1.735  1.1718 -0.8902 -0.0674
 8407TIP3    H246637   1.227   2.573   1.764 -2.1029  0.2030 -1.7305
 8408TIP3   OH246638   0.345   3.308   0.790  0.5210 -0.0278 -0.0195
 8408TIP3    H146639   0.302   3.393   0.803 -0.8505 -0.9083  1.5059
 8408TIP3    H246640   0.347   3.268   0.877 -0.5521 -2.3319 -0.9861
 8409TIP3   OH246641   6.290   5.335  14.626  0.4170 -0.1540 -0.6155
 8409TIP3    H146642   6.242   5.254  14.639 -1.9234  1.2886  0.3131
 8409TIP3    H246643   6.307   5.368  14.715  2.8608 -0.3891 -0.9117
 8410TIP3   OH246644   3.948   6.404   3.265 -0.3508  0.1282  0.7496
 8410TIP3    H146645   3.910   6.325   3.304 -0.2543  0.3418  1.2779
 8410TIP3    H246646   3.908   6.477   3.312 -1.3783  0.4498 -0.5627
 8411TIP3   OH246647   5.914   6.493   2.298  0.0068  0.6177  0.2320
 8411TIP3    H146648   5.862   6.414   2.310  0.2477  0.4126 -0.0569
 8411TIP3    H246649   6.005   6.464   2.306  0.3114  0.1596 -3.3191
 8412TIP3   OH246650   3.769   4.940  11.773 -0.2321  0.0155  0.2397
 8412TIP3    H146651   3.852   4.981  11.799 -0.0527 -1.1668  1.6776
 8412TIP3    H246652   3.701   4.998  11.808 -0.0747  1.4387 -1.6663
 8413TIP3   OH246653   2.934   0.751  14.792 -0.1442 -0.6471  0.4960
 8413TIP3    H146654   2.979   0.834  14.774  0.2842 -0.9071  0.3435
 8413TIP3    H246655   2.859   0.775  14.846  0.1125 -0.1885  0.6499
 8414TIP3   OH246656   0.663   2.559  12.636  0.1512 -0.1672  0.0769
 8414TIP3    H146657   0.583   2.519  12.668  0.0659 -0.4524 -0.4644
 8414TIP3    H246658   0.718   2.485  12.610  0.3910  0.0366 -0.0048
 8415TIP3   OH246659   6.024   6.071  11.371 -0.5549  0.6997 -0.5518
 8415TIP3    H146660   6.106   6.107  11.405  1.9416 -3.6134 -1.2552
 8415TIP3    H246661   6.048   6.031  11.287 -2.8417 -2.2799  0.0283
 8416TIP3   OH246662   0.070   6.361  17.099 -0.2672 -0.5947  0.3349
 8416TIP3    H146663   0.132   6.321  17.161  0.6814  1.3330  0.7125
 8416TIP3    H246664  -0.016   6.348  17.140  0.2724  0.0337  1.7664
 8417TIP3   OH246665   0.804   5.896  12.889 -0.5197 -0.3931  0.1328
 8417TIP3    H146666   0.760   5.979  12.907 -2.0885 -1.2860  0.6193
 8417TIP3    H246667   0.734   5.838  12.859  0.4873 -1.6392  0.1085
 8418TIP3   OH246668   5.299   4.590  11.764 -0.3981  0.4430  0.0615
 8418TIP3    H146669   5.302   4.685  11.752  0.6603  0.3755 -0.2919
 8418TIP3    H246670   5.364   4.556  11.702 -1.1277 -0.5481 -0.1817
 8419TIP3   OH246671   4.679   1.155   3.973  0.2398 -0.1244  0.4002
 8419TIP3    H146672   4.660   1.239   3.932 -0.4824 -0.5661 -0.2081
 8419TIP3    H246673   4.593   1.116   3.989  0.5480 -0.5156  1.1750
 8420TIP3   OH246674   3.823   3.828  14.437 -0.5796 -0.0978  0.2782
 8420TIP3    H146675   3.770   3.892  14.389  1.0222  0.7514 -0.4725
 8420TIP3    H246676   3.861   3.878  14.510  1.0577 -0.0052 -0.5840
 8421TIP3   OH246677   4.447   0.064   0.284  0.4482 -0.3253  0.2627
 8421TIP3    H146678   4.517   0.041   0.223  0.7903 -1.1631  0.9508
 8421TIP3    H246679   4.419  -0.020   0.321  1.4552  0.2731  2.5624
 8422TIP3   OH246680   3.274   2.953   3.628 -0.0202  0.3842  0.0993
 8422TIP3    H146681   3.261   3.007   3.707 -1.3265 -0.2069  0.3159
 8422TIP3    H246682   3.369   2.939   3.624  0.0436  0.0934  1.8013
 8423TIP3   OH246683   5.273   3.312   3.010 -0.1388  0.1908 -0.4751
 8423TIP3    H146684   5.178   3.314   3.003 -0.1694 -1.9202 -1.3105
 8423TIP3    H246685   5.294   3.220   3.027  1.8047  0.4593 -1.1919
 8424TIP3   OH246686   6.396   5.112   4.076 -0.0330  0.0130  0.2491
 8424TIP3    H146687   6.395   5.173   4.150 -0.5053 -2.3343  2.3159
 8424TIP3    H246688   6.480   5.127   4.033  0.0092  1.8408  0.9036
 8425TIP3   OH246689   0.716   1.917   5.028 -0.3112 -0.5785  0.8187
 8425TIP3    H146690   0.674   1.992   4.987  0.2260 -0.2310  0.8982
 8425TIP3    H246691   0.802   1.949   5.055  0.7294 -1.7409 -0.9178
 8426TIP3   OH246692   3.517   1.928  11.125 -0.1152  0.4765 -0.1374
 8426TIP3    H146693   3.588   1.931  11.062  1.0959 -0.8394  1.0778
 8426TIP3    H246694   3.468   2.009  11.111  1.6000  1.4048 -1.0276
 8427TIP3   OH246695   1.033   3.080   3.690  0.3318  0.1187 -0.0451
 8427TIP3    H146696   1.086   3.110   3.616  0.0653  1.1868  0.1792
 8427TIP3    H246697   0.981   3.008   3.655 -0.0939  0.8757 -1.0153
 8428TIP3   OH246698   4.079   1.555   4.040  0.1660  0.2306 -0.0323
 8428TIP3    H146699   4.015   1.540   3.971  1.2078 -0.3689 -0.8995
 8428TIP3    H246700   4.076   1.649   4.056 -0.5251  0.2832 -0.4549
 8429TIP3   OH246701   3.358   0.765   4.338 -0.4410  0.2131 -0.4836
 8429TIP3    H146702   3.307   0.843   4.355  0.1478  1.0676 -2.3519
 8429TIP3    H246703   3.303   0.693   4.369 -0.6040  1.3724  2.1014
 8430TIP3   OH246704   1.910   2.545  11.837 -0.1173 -0.1154  0.5677
 8430TIP3    H146705   1.977   2.551  11.906 -0.7103  0.0807  1.1302
 8430TIP3    H246706   1.961   2.537  11.756  0.5919 -0.0920  0.9988
 8431TIP3   OH246707   4.431   5.539   4.161 -0.5008  0.4898 -0.2691
 8431TIP3    H146708   4.459   5.556   4.071  0.8400  0.9762  0.2152
 8431TIP3    H246709   4.416   5.627   4.198  3.1405  0.6514  1.2288
 8432TIP3   OH246710   2.894   3.738   2.501  0.5530 -0.1646  0.1073
 8432TIP3    H146711   2.949   3.668   2.464  0.2403  0.0012 -0.6944
 8432TIP3    H246712   2.846   3.772   2.426 -1.7578 -1.2757  1.0039
 8433TIP3   OH246713   2.164   2.027  16.949  0.6001 -0.0694  0.4463
 8433TIP3    H146714   2.201   1.990  16.868 -1.6065  0.0827 -0.6970
 8433TIP3    H246715   2.195   2.118  16.949  2.3367 -0.6131  0.9236
 8434TIP3   OH246716   0.424   2.508   3.790 -0.0401  0.2045 -0.2838
 8434TIP3    H146717   0.472   2.478   3.867 -2.0958 -2.3841  0.1405
 8434TIP3    H246718   0.334   2.518   3.820 -0.6846  0.1667 -2.0835
 8435TIP3   OH246719   4.892   0.440  11.565 -0.2588 -0.3158 -0.1999
 8435TIP3    H146720   4.858   0.515  11.516  0.8329  0.1029 -0.3419
 8435TIP3    H246721   4.838   0.366  11.536 -0.0432  0.0435 -1.5842
 8436TIP3   OH246722   2.086   6.556  13.528 -0.4898 -0.3390  0.1592
 8436TIP3    H146723   2.047   6.492  13.469 -1.9299  0.5691  0.0797
 8436TIP3    H246724   2.119   6.625  13.470 -0.5542 -0.1673  0.3233
 8437TIP3   OH246725   0.394   1.559   1.013  0.0191  0.0239  0.3133
 8437TIP3    H146726   0.315   1.581   1.062 -0.9507 -1.0185 -0.7351
 8437TIP3    H246727   0.415   1.638   0.964 -0.5893  0.1889  0.3110
 8438TIP3   OH246728   4.824   1.161  12.879 -0.1667  0.0743  0.3794
 8438TIP3    H146729   4.771   1.155  12.958  0.6911 -1.2605  0.8887
 8438TIP3    H246730   4.760   1.178  12.809 -0.9183  1.3985  1.3461
 8439TIP3   OH246731   3.262   1.235   4.656 -0.1356  0.4537 -0.3484
 8439TIP3    H146732   3.266   1.313   4.710  2.7836  0.7672 -0.8548
 8439TIP3    H246733   3.322   1.173   4.698 -1.1466 -0.9364 -0.8587
 8440TIP3   OH246734   2.743   3.215  12.656 -0.0556 -0.3308  0.5789
 8440TIP3    H146735   2.693   3.137  12.633  0.5848 -0.0596 -1.9501
 8440TIP3    H246736   2.831   3.184  12.675 -0.3206 -0.4290  1.7230
 8441TIP3   OH246737   4.613   1.108  14.753 -0.7963  0.3087 -0.1675
 8441TIP3    H146738   4.529   1.103  14.798 -0.8249 -1.4088 -0.3409
 8441TIP3    H246739   4.593   1.151  14.670 -0.9384  2.5215  0.9322
 8442TIP3   OH246740   0.264   4.384  13.614 -0.0892  0.3058  0.0618
 8442TIP3    H146741   0.283   4.388  13.708 -0.1379  0.5268  0.0615
 8442TIP3    H246742   0.335   4.330  13.578 -0.3863 -0.2599  0.3109
 8443TIP3   OH246743   5.950   3.674  12.890  0.0948 -0.3460  0.2577
 8443TIP3    H146744   6.036   3.679  12.849 -0.0785  0.5611 -0.0158
 8443TIP3    H246745   5.968   3.648  12.981  0.3779 -3.9514 -0.6764
 8444TIP3   OH246746   6.529   2.190   1.950 -0.2712  0.4717 -0.3209
 8444TIP3    H146747   6.529   2.212   1.857 -0.1290 -1.6345 -0.8621
 8444TIP3    H246748   6.436   2.182   1.973 -0.3995 -3.7527 -1.5884
 8445TIP3   OH246749   0.813   5.006   3.132 -0.4497  0.6383 -0.2977
 8445TIP3    H146750   0.833   5.063   3.207  0.2842 -0.2645  0.2135
 8445TIP3    H246751   0.830   4.918   3.164 -2.9114 -0.0230 -0.6437
 8446TIP3   OH246752   1.201   5.038  12.810 -0.2143  0.3469 -0.4188
 8446TIP3    H146753   1.201   5.105  12.878 -2.6064  2.7378 -2.5547
 8446TIP3    H246754   1.117   4.994  12.820  0.1347 -0.4426 -0.8231
 8447TIP3   OH246755   1.676   4.468  12.236 -0.3276 -0.2764 -0.1688
 8447TIP3    H146756   1.761   4.511  12.226  0.0808 -0.6368  1.4332
 8447TIP3    H246757   1.621   4.508  12.169  0.4142  1.7750  0.3673
 8448TIP3   OH246758   2.974   0.826   2.984 -0.2723 -0.3078 -0.3074
 8448TIP3    H146759   3.067   0.848   2.987 -0.3887  0.0945  0.9901
 8448TIP3    H246760   2.936   0.874   3.057 -1.4742 -0.6173 -0.7097
 8449TIP3   OH246761   0.096   0.387  17.282 -0.2925  0.0998  0.1786
 8449TIP3    H146762   0.015   0.338  17.296 -0.9042  1.3177  1.1509
 8449TIP3    H246763   0.158   0.323  17.248 -1.1852 -1.2302  0.9734
 8450TIP3   OH246764   3.432   6.046   5.137  0.6507  1.0051 -0.0194
 8450TIP3    H146765   3.373   6.120   5.122  0.3657  1.3187  2.1964
 8450TIP3    H246766   3.378   5.968   5.125 -0.0210  1.2713  1.1403
 8451TIP3   OH246767   4.326   5.430  11.219 -0.1203  0.0464  0.2115
 8451TIP3    H146768   4.244   5.439  11.170 -0.5638 -1.9875  0.4742
 8451TIP3    H246769   4.374   5.361  11.174  1.1951  0.7789  0.4426
 8452TIP3   OH246770   2.137   4.843  14.217 -0.2967  0.4573  0.1773
 8452TIP3    H146771   2.218   4.895  14.215  0.0537 -0.0822 -0.4463
 8452TIP3    H246772   2.153   4.777  14.285 -0.3795  0.6030  0.3388
 8453TIP3   OH246773   4.766   5.088  13.851 -0.1669  0.3430  0.7344
 8453TIP3    H146774   4.807   5.127  13.928  0.3030  0.1082  0.6103
 8453TIP3    H246775   4.831   5.098  13.782  0.5413 -1.8282  1.0150
 8454TIP3   OH246776   6.560   4.951  13.220  0.1051 -0.1284 -0.4674
 8454TIP3    H146777   6.604   4.970  13.137  1.4188 -1.8150 -0.2254
 8454TIP3    H246778   6.619   4.985  13.286 -0.1034 -0.3165 -0.1839
 8455TIP3   OH246779   6.223   0.915   2.551 -0.3800  0.1979 -0.4029
 8455TIP3    H146780   6.220   1.006   2.581  1.7107  1.3039 -3.1339
 8455TIP3    H246781   6.316   0.891   2.556 -0.7254 -1.3632 -0.8782
 8456TIP3   OH246782   1.082   0.633   0.572 -0.0418 -0.5532  0.4263
 8456TIP3    H146783   1.149   0.683   0.618  0.6502 -2.5433  1.7545
 8456TIP3    H246784   1.086   0.546   0.612 -2.3817 -1.1794 -0.5282
 8457TIP3   OH246785   6.012   5.672  13.249  0.3089  0.3885 -0.3975
 8457TIP3    H146786   5.923   5.679  13.215  0.0963  1.2703  0.3035
 8457TIP3    H246787   6.039   5.762  13.264  0.9600  0.0843  0.3252
 8458TIP3   OH246788   1.862   0.053  11.956  0.4029  1.0347 -0.9793
 8458TIP3    H146789   1.933   0.051  12.020 -2.7340 -0.0299  2.8371
 8458TIP3    H246790   1.800   0.118  11.990 -1.3442  0.6128 -3.0975
 8459TIP3   OH246791   2.775   3.933   4.732 -0.0564  0.8592  0.1560
 8459TIP3    H146792   2.715   3.880   4.680  0.0973 -0.8894  1.6894
 8459TIP3    H246793   2.858   3.885   4.731 -0.5591 -0.3010  3.5374
 8460TIP3   OH246794   4.478   1.842   0.130 -0.0718  0.0030  0.4713
 8460TIP3    H146795   4.488   1.893   0.210  0.4729 -0.4234  0.6832
 8460TIP3    H246796   4.567   1.830   0.098 -0.3338  0.8611 -0.6552
 8461TIP3   OH246797   5.244   3.974  16.409  0.2713 -0.6264 -0.3222
 8461TIP3    H146798   5.195   3.907  16.361 -1.0639  0.0729 -0.0013
 8461TIP3    H246799   5.287   4.025  16.341  0.3532 -1.0938 -0.6296
 8462TIP3   OH246800   1.177   2.127   1.359  0.7382 -0.3422  0.0154
 8462TIP3    H146801   1.121   2.082   1.422  1.6016 -0.4648  0.7214
 8462TIP3    H246802   1.264   2.091   1.374  1.6347  2.0557  1.1651
 8463TIP3   OH246803   6.126   4.229   4.627  0.4958  0.1074 -0.0409
 8463TIP3    H146804   6.034   4.244   4.601  0.4526 -0.1408 -0.0317
 8463TIP3    H246805   6.123   4.150   4.680  0.6198  0.4867  0.5317
 8464TIP3   OH246806   4.678   5.576  10.287  0.0804 -0.2548  0.4423
 8464TIP3    H146807   4.635   5.520  10.222  0.6472 -0.6330  0.3803
 8464TIP3    H246808   4.752   5.614  10.239 -0.5340  0.8880  0.3636
 8465TIP3   OH246809   0.652   4.118  10.923  0.1798 -0.2913 -0.1620
 8465TIP3    H146810   0.710   4.149  10.853  1.1545 -1.3176  0.1723
 8465TIP3    H246811   0.701   4.048  10.966 -1.2084 -1.0162  0.2942
 8466TIP3   OH246812   2.482   1.005   0.555 -0.1452 -0.1853  0.1705
 8466TIP3    H146813   2.524   1.090   0.547  1.1972 -0.7968  0.4089
 8466TIP3    H246814   2.525   0.963   0.630 -1.3981 -0.7386  0.6189
 8467TIP3   OH246815   2.032   6.170   1.163  0.4508  0.3650 -0.1886
 8467TIP3    H146816   1.941   6.192   1.181  0.0438 -0.2385 -1.4151
 8467TIP3    H246817   2.072   6.160   1.249 -0.7066  0.3776  0.3618
 8468TIP3   OH246818   3.651   0.059  16.105 -0.8583 -0.6047  0.0247
 8468TIP3    H146819   3.709   0.075  16.030  1.5017 -0.5929  1.7492
 8468TIP3    H246820   3.597  -0.016  16.078  0.0919 -0.7544 -1.5877
 8469TIP3   OH246821   3.199   6.706   5.562  0.7085 -0.0306  0.0486
 8469TIP3    H146822   3.133   6.768   5.595  0.1493 -0.4488 -0.2636
 8469TIP3    H246823   3.282   6.750   5.577  0.5468 -0.4319  2.5841
 8470TIP3   OH246824   3.751   4.961  15.909  0.1401 -0.3909  0.4707
 8470TIP3    H146825   3.669   5.006  15.890  0.2466 -0.1828  0.5000
 8470TIP3    H246826   3.730   4.868  15.903  0.2241 -0.3430 -0.9098
 8471TIP3   OH246827   0.417   6.472   3.998 -0.2880 -0.1930 -0.4709
 8471TIP3    H146828   0.393   6.508   4.083 -0.3020  0.6876 -0.8380
 8471TIP3    H246829   0.366   6.521   3.935  0.4521 -0.1582 -1.0613
 8472TIP3   OH246830   4.917   2.963   2.253 -0.5262 -0.1453  0.1786
 8472TIP3    H146831   4.834   2.933   2.289 -0.1772 -0.3174  0.8545
 8472TIP3    H246832   4.982   2.940   2.319  0.2242 -1.0865 -0.8441
 8473TIP3   OH246833   4.817   4.354  13.448 -0.0218 -0.0439  0.2228
 8473TIP3    H146834   4.788   4.403  13.371  0.2182 -1.1378 -0.5862
 8473TIP3    H246835   4.847   4.421  13.509  0.8447  0.7926 -1.0675
 8474TIP3   OH246836   2.640   0.838   0.704  0.3951  0.1963 -0.2351
 8474TIP3    H146837   2.652   0.745   0.681  1.7729  0.7513 -1.9504
 8474TIP3    H246838   2.727   0.867   0.732  0.5357  1.4977 -1.8650
 8475TIP3   OH246839   4.649   4.624  13.648 -0.1718 -0.0391 -0.8690
 8475TIP3    H146840   4.726   4.650  13.700 -0.8157  0.0496  0.0617
 8475TIP3    H246841   4.581   4.686  13.674 -1.5145 -2.0558  0.7744
 8476TIP3   OH246842   4.577   0.002   3.562  0.3579  0.0328 -0.3767
 8476TIP3    H146843   4.556  -0.038   3.478  0.0198  0.6650 -0.6014
 8476TIP3    H246844   4.645  -0.054   3.599  1.2130  0.2828 -1.5171
 8477TIP3   OH246845   4.009   4.923   2.802 -0.1048  0.5103 -0.3541
 8477TIP3    H146846   3.940   4.919   2.868 -0.5182 -0.0029 -0.8133
 8477TIP3    H246847   3.993   5.006   2.756  0.6760  1.2785  0.7020
 8478TIP3   OH246848   6.690   5.064  14.636 -0.3171 -0.4166  0.9745
 8478TIP3    H146849   6.765   5.036  14.583  1.5540  1.1614  2.6514
 8478TIP3    H246850   6.625   5.093  14.572  0.3959 -1.9398 -0.5300
 8479TIP3   OH246851   2.196   0.282   2.090 -0.2504  0.3571 -0.1117
 8479TIP3    H146852   2.180   0.218   2.160 -0.7079  1.0776  0.4533
 8479TIP3    H246853   2.251   0.349   2.131  0.5092  0.1688 -0.7974
 8480TIP3   OH246854   5.727   1.278  12.215  0.2682 -0.1864  0.1944
 8480TIP3    H146855   5.808   1.238  12.185  0.8910 -0.0382  1.6150
 8480TIP3    H246856   5.658   1.222  12.180  1.0848 -1.9322  1.2618
 8481TIP3   OH246857   4.282   2.420  12.251  0.3048  0.5056  0.3206
 8481TIP3    H146858   4.364   2.402  12.207 -0.1497  0.9192 -0.7380
 8481TIP3    H246859   4.248   2.334  12.276  2.1745  0.4132  2.9777
 8482TIP3   OH246860   3.724   1.919   4.925  0.5738  0.7367  0.2559
 8482TIP3    H146861   3.719   2.005   4.881  1.9069 -0.1947 -1.8782
 8482TIP3    H246862   3.808   1.883   4.898  0.5786 -0.7789  2.0999
 8483TIP3   OH246863   5.003   6.102   1.528  0.5161  0.1778 -0.2290
 8483TIP3    H146864   4.964   6.079   1.443  0.6699 -0.7603 -0.0539
 8483TIP3    H246865   5.024   6.195   1.520  1.0816 -0.0304 -1.4412
 8484TIP3   OH246866   4.690   4.718   6.262 -0.4655  0.0975  0.1266
 8484TIP3    H146867   4.707   4.745   6.353 -1.5516 -0.0893  0.4000
 8484TIP3    H246868   4.776   4.697   6.227  0.4090  3.0698  0.1650
 8485TIP3   OH246869   2.375   4.244  13.022 -0.1050 -0.3028  0.2797
 8485TIP3    H146870   2.445   4.213  12.965 -1.4890  0.8193 -2.1679
 8485TIP3    H246871   2.388   4.338  13.029 -0.2146 -0.3595  1.4920
 8486TIP3   OH246872   3.647   6.595   3.034  0.1947 -0.4421 -0.6955
 8486TIP3    H146873   3.614   6.506   3.044 -0.6692 -0.3100 -2.0838
 8486TIP3    H246874   3.601   6.645   3.101  1.4268 -1.1889  0.7602
 8487TIP3   OH246875   1.383   5.610   5.280 -0.0707 -0.1153  0.4701
 8487TIP3    H146876   1.388   5.625   5.375  0.8576 -1.3418  0.6556
 8487TIP3    H246877   1.355   5.693   5.243  2.0030  1.1825  1.6078
 8488TIP3   OH246878   1.797   2.074  14.504  0.3869  0.7262  0.2800
 8488TIP3    H146879   1.871   2.130  14.527 -0.9288  2.0595  1.4857
 8488TIP3    H246880   1.730   2.135  14.471 -1.1457 -0.0572  1.7672
 8489TIP3   OH246881   2.768   1.685  12.548  0.4380 -0.1424  0.4426
 8489TIP3    H146882   2.715   1.608  12.566  2.2304 -2.1065 -1.8005
 8489TIP3    H246883   2.849   1.671  12.598  1.0894 -0.1830 -0.5747
 8490TIP3   OH246884   5.585   6.289   0.271 -0.3925 -1.0375  0.6018
 8490TIP3    H146885   5.498   6.273   0.235 -0.8424 -0.7538  1.5183
 8490TIP3    H246886   5.619   6.201   0.290 -0.2210 -1.1772 -0.3178
 8491TIP3   OH246887   1.263   0.709   3.302 -0.6864  0.4213 -0.0120
 8491TIP3    H146888   1.319   0.670   3.235 -2.2232 -0.3354 -0.9024
 8491TIP3    H246889   1.276   0.654   3.379  1.2043  1.3840  0.4128
 8492TIP3   OH246890   5.473   2.376  14.298  0.4237  0.1360  0.1616
 8492TIP3    H146891   5.413   2.450  14.288  0.3469  0.0292 -0.2099
 8492TIP3    H246892   5.423   2.312  14.349  0.4081  0.2520  0.2915
 8493TIP3   OH246893   4.786   5.383  11.586  0.4891 -0.5016 -0.0341
 8493TIP3    H146894   4.692   5.371  11.569  0.5998 -1.0717 -0.2825
 8493TIP3    H246895   4.789   5.443  11.660 -0.0583  0.1474 -0.5210
 8494TIP3   OH246896   3.466   0.498   4.362 -0.2638 -0.7903 -0.3423
 8494TIP3    H146897   3.539   0.446   4.328  1.8022 -0.3064  2.9101
 8494TIP3    H246898   3.478   0.585   4.324 -0.0946 -1.1310 -1.0727
 8495TIP3   OH246899   1.783   5.304  15.661  0.1993  0.7432 -0.5622
 8495TIP3    H146900   1.765   5.308  15.755 -0.9779  1.1874 -0.7838
 8495TIP3    H246901   1.861   5.249  15.653  0.0412  0.3257  0.6387
 8496TIP3   OH246902   6.217   1.961  16.339 -0.0204 -0.0977  0.1010
 8496TIP3    H146903   6.258   1.985  16.422  0.7328 -1.0068  0.0104
 8496TIP3    H246904   6.289   1.960  16.276 -0.8194  2.1860 -0.9537
 8497TIP3   OH246905   2.332   2.555  13.236 -0.1353 -1.0581  0.9639
 8497TIP3    H146906   2.349   2.461  13.242 -2.4938 -1.4726  2.5638
 8497TIP3    H246907   2.247   2.561  13.194  0.4098  0.4606 -0.0069
 8498TIP3   OH246908   4.914   6.393   4.307 -0.0387 -0.8113 -0.0351
 8498TIP3    H146909   4.877   6.481   4.317 -0.0745 -0.7426 -0.7359
 8498TIP3    H246910   4.980   6.387   4.376  0.7327  0.1840 -0.6416
 8499TIP3   OH246911   6.003   4.057  14.218  0.2130  0.2370 -0.3560
 8499TIP3    H146912   6.028   4.104  14.297  1.0000  0.9621 -1.0142
 8499TIP3    H246913   5.958   3.979  14.249 -0.2969  0.9734  0.7766
 8500TIP3   OH246914   1.848   4.633  16.596 -0.5765 -0.3463  0.0175
 8500TIP3    H146915   1.926   4.579  16.583 -0.7986 -1.2326  2.0082
 8500TIP3    H246916   1.797   4.585  16.661 -1.2085  1.8432  1.2160
 8501TIP3   OH246917   2.422   6.690   1.402  0.3701  0.0940  0.0397
 8501TIP3    H146918   2.476   6.611   1.403  0.8243  0.4022  0.0951
 8501TIP3    H246919   2.419   6.719   1.493  1.8171  1.2126 -0.2178
 8502TIP3   OH246920   5.664   5.008  15.085 -0.0915 -0.4032  0.0194
 8502TIP3    H146921   5.572   5.027  15.099 -0.3898 -2.4162  1.2267
 8502TIP3    H246922   5.665   4.937  15.021  0.6260 -0.3772 -0.0108
 8503TIP3   OH246923   2.608   4.431   0.205 -0.4221 -0.3146 -0.2666
 8503TIP3    H146924   2.635   4.387   0.124  0.2280 -0.8406  0.2286
 8503TIP3    H246925   2.613   4.363   0.272  0.1812  0.4104  0.4377
 8504TIP3   OH246926   3.916   2.993  11.538  0.0048  0.3988  0.3994
 8504TIP3    H146927   3.954   3.052  11.474 -0.2486 -0.3695 -0.4935
 8504TIP3    H246928   3.823   2.988  11.514  0.2325 -1.2657 -0.3272
 8505TIP3   OH246929   5.977   1.757  13.635 -0.1702 -0.6909 -0.0401
 8505TIP3    H146930   6.026   1.703  13.573  1.2176 -0.9100  1.2014
 8505TIP3    H246931   5.927   1.694  13.687 -0.2384 -0.6246 -0.0270
 8506TIP3   OH246932   2.396   1.607  10.639  1.1280  0.0288 -0.4546
 8506TIP3    H146933   2.459   1.614  10.711  1.4486  1.1503 -0.8205
 8506TIP3    H246934   2.393   1.514  10.619  0.4316 -0.4194  1.5217
 8507TIP3   OH246935   3.687   4.679  15.052  0.3596  0.2868 -0.0909
 8507TIP3    H146936   3.683   4.714  15.141  1.7718  0.1671  0.0438
 8507TIP3    H246937   3.719   4.752  14.999  0.1160  0.1742 -0.3960
 8508TIP3   OH246938   4.049   2.368   2.871  0.1926 -0.1890  0.0749
 8508TIP3    H146939   4.081   2.435   2.931  0.8090  0.0135 -0.4626
 8508TIP3    H246940   4.000   2.307   2.926  1.0269 -0.1917  0.8227
 8509TIP3   OH246941   1.679   3.726   3.967  0.8307 -0.7514  0.1367
 8509TIP3    H146942   1.599   3.673   3.972 -0.4878  1.2321  2.2635
 8509TIP3    H246943   1.649   3.817   3.971  3.0857  0.1983 -1.7669
 8510TIP3   OH246944   1.291   2.868  14.765 -1.0400 -0.0463  0.5902
 8510TIP3    H146945   1.254   2.831  14.845 -1.4471  1.3465  1.0673
 8510TIP3    H246946   1.352   2.935  14.795  1.1631 -1.5808 -0.2135
 8511TIP3   OH246947   6.088   2.518  12.117 -0.3638  0.6258 -0.2230
 8511TIP3    H146948   6.081   2.455  12.046 -0.8926 -1.8198  1.8455
 8511TIP3    H246949   6.140   2.474  12.184 -1.6222  1.9257  1.7418
 8512TIP3   OH246950   3.406   6.554  16.590  0.2842  0.3040  0.2166
 8512TIP3    H146951   3.432   6.462  16.585  1.8409  0.7275  0.1561
 8512TIP3    H246952   3.478   6.597  16.636 -0.6243  1.4296  0.6266
 8513TIP3   OH246953   0.620   3.159  13.706  0.8929 -0.5425  0.5632
 8513TIP3    H146954   0.608   3.213  13.628 -0.7941 -1.3302  0.2239
 8513TIP3    H246955   0.658   3.218  13.771  1.5892  0.3280 -0.5980
 8514TIP3   OH246956   4.938   5.049   5.094 -0.0031 -0.2742 -0.4067
 8514TIP3    H146957   4.869   5.087   5.149  0.6256 -0.8870  0.8598
 8514TIP3    H246958   5.018   5.061   5.144  0.4878 -1.5211 -0.8450
 8515TIP3   OH246959   5.027   6.504   0.473 -0.6195  0.2539 -0.1745
 8515TIP3    H146960   5.061   6.571   0.533 -0.0202  0.2714 -0.5268
 8515TIP3    H246961   4.933   6.520   0.470 -0.9830 -0.8924  2.2042
 8516TIP3   OH246962   6.092   3.410  14.575 -0.0850  0.3320 -0.2441
 8516TIP3    H146963   6.118   3.436  14.663 -0.9894  1.7742 -0.3664
 8516TIP3    H246964   6.155   3.454  14.518 -0.0832  0.1743 -0.3644
 8517TIP3   OH246965   0.478   0.135  14.605 -0.6047 -0.0859  0.0573
 8517TIP3    H146966   0.427   0.083  14.542  0.4910 -1.6188  0.3650
 8517TIP3    H246967   0.569   0.117  14.582 -0.1928  1.0725  0.7285
 8518TIP3   OH246968   1.057   4.348  16.580 -0.0605 -0.7000 -0.0300
 8518TIP3    H146969   1.019   4.289  16.515 -0.5079 -0.7998  0.3199
 8518TIP3    H246970   1.107   4.411  16.528  1.2017 -1.9288 -0.3663
 8519TIP3   OH246971   5.813   1.201  14.921  0.1745 -0.1715 -0.3299
 8519TIP3    H146972   5.774   1.164  15.000 -0.1785  0.6810 -0.0959
 8519TIP3    H246973   5.747   1.261  14.887  0.1887 -0.7722 -1.4639
 8520TIP3   OH246974   4.237   5.836   1.010 -0.1909  0.0963  0.5270
 8520TIP3    H146975   4.231   5.743   1.030 -1.6647 -0.1859 -0.9847
 8520TIP3    H246976   4.325   5.861   1.039  0.2263 -1.7411  0.9922
 8521TIP3   OH246977   4.012   0.585   0.854 -0.2575  0.7574  0.1622
 8521TIP3    H146978   4.051   0.563   0.939  0.5086  0.1542 -0.3327
 8521TIP3    H246979   3.924   0.616   0.875 -0.4119 -0.2838  1.1080
 8522TIP3   OH246980   2.197   0.884  16.433 -0.3509  0.0837  0.9513
 8522TIP3    H146981   2.227   0.902  16.343 -1.4822  0.5501  0.6599
 8522TIP3    H246982   2.220   0.963  16.482  0.2208 -0.1507  1.0722
 8523TIP3   OH246983   6.273   0.192   1.103 -0.0553  0.4988  0.2191
 8523TIP3    H146984   6.331   0.150   1.168 -0.1206  2.4097  1.6095
 8523TIP3    H246985   6.280   0.286   1.123 -3.2784  0.8504  0.1375
 8524TIP3   OH246986   1.116   3.946  13.521  0.0661 -0.2188  0.1747
 8524TIP3    H146987   1.094   4.035  13.549 -0.9459 -0.3814 -0.0619
 8524TIP3    H246988   1.147   3.903  13.601 -0.0459  0.1680  0.4293
 8525TIP3   OH246989   2.036   4.233   1.562 -0.5463  0.2986  0.6174
 8525TIP3    H146990   2.013   4.148   1.601 -0.1431  0.6333  1.6235
 8525TIP3    H246991   2.065   4.286   1.636 -2.3555  1.8777  0.2795
 8526TIP3   OH246992   2.866   6.736   1.287 -0.4892 -0.9845 -0.1788
 8526TIP3    H146993   2.820   6.748   1.370 -0.9566  0.4611 -0.6237
 8526TIP3    H246994   2.950   6.782   1.299  0.0847 -2.0396 -0.0115
 8527TIP3   OH246995   0.791   2.761  11.678 -0.1472  0.2314  0.6976
 8527TIP3    H146996   0.786   2.830  11.745  0.3486  1.1265 -0.1543
 8527TIP3    H246997   0.863   2.788  11.621 -0.6713 -0.4067 -0.2999
 8528TIP3   OH246998   2.486   5.456  11.423 -0.3320 -0.0953 -0.2169
 8528TIP3    H146999   2.490   5.364  11.397  0.6941  0.2605 -1.4151
 8528TIP3    H247000   2.441   5.500  11.350  0.8954  0.6357 -0.5562
 8529TIP3   OH247001   2.475   5.533  16.754 -0.0177 -0.0493 -0.2856
 8529TIP3    H147002   2.404   5.482  16.792  1.1673 -0.0124  2.1675
 8529TIP3    H247003   2.494   5.489  16.672 -1.0772 -1.6886  0.2852
 8530TIP3   OH247004   6.119   0.558   4.230  0.0123  0.1437  0.0307
 8530TIP3    H147005   6.095   0.650   4.226  1.6106  0.5585 -1.1701
 8530TIP3    H247006   6.113   0.528   4.139 -0.7240 -1.0066  0.4390
 8531TIP3   OH247007   0.916   0.114   4.501 -0.1853  0.0593 -0.3521
 8531TIP3    H147008   0.931   0.119   4.406 -1.5149  1.2466 -0.5475
 8531TIP3    H247009   0.994   0.154   4.540 -0.5271  1.5215 -1.0726
 8532TIP3   OH247010   0.049   3.693   3.923  0.4238 -0.3579 -0.2244
 8532TIP3    H147011   0.130   3.730   3.888  1.7522 -3.2492 -0.4782
 8532TIP3    H247012   0.070   3.602   3.941 -2.1985 -0.6981  1.7452
 8533TIP3   OH247013   2.058   0.570  13.662 -0.9851  0.2042 -1.0838
 8533TIP3    H147014   2.047   0.656  13.703  1.5974  0.1823 -0.1010
 8533TIP3    H247015   2.042   0.507  13.733  0.8517  0.0729 -0.7276
 8534TIP3   OH247016   4.427   5.967  14.164 -0.2166  0.1669 -0.3572
 8534TIP3    H147017   4.350   6.019  14.187 -0.1963  0.2287 -0.4270
 8534TIP3    H247018   4.392   5.893  14.114 -0.3351 -0.3581  0.4881
 8535TIP3   OH247019   1.922   4.427   5.064  0.3113  0.4352  0.4042
 8535TIP3    H147020   1.853   4.437   4.999 -0.0684 -2.3317  0.2577
 8535TIP3    H247021   1.995   4.480   5.030 -0.4319  0.3668 -1.4316
 8536TIP3   OH247022   2.431   5.065   1.867 -0.0922  0.1196 -0.0381
 8536TIP3    H147023   2.346   5.092   1.901  0.3373  2.1895 -0.4571
 8536TIP3    H247024   2.411   4.997   1.803 -1.3155 -0.2692  0.7202
 8537TIP3   OH247025   6.400   4.372  13.377  0.1411 -0.9403 -0.7825
 8537TIP3    H147026   6.439   4.366  13.289 -0.7883 -0.2614 -1.2591
 8537TIP3    H247027   6.457   4.433  13.424 -0.5602  0.4179 -1.6245
 8538TIP3   OH247028   5.676   4.450   4.243 -0.2128  0.0755  0.6858
 8538TIP3    H147029   5.602   4.450   4.181  0.9629  1.5385 -0.8246
 8538TIP3    H247030   5.753   4.458   4.187  1.0432 -0.5818  2.2801
 8539TIP3   OH247031   4.131   4.034  16.130  0.1385  0.6743  0.0077
 8539TIP3    H147032   4.057   4.070  16.178 -0.2893  2.3480 -1.7787
 8539TIP3    H247033   4.096   3.957  16.086  0.2784 -0.2727  1.4779
 8540TIP3   OH247034   5.953   5.522   2.776 -0.0813  0.7935 -0.2843
 8540TIP3    H147035   5.969   5.527   2.682 -0.9916  0.0020 -0.5049
 8540TIP3    H247036   6.006   5.592   2.814  2.2327 -0.4183 -1.1214
 8541TIP3   OH247037   4.189   1.668   5.201  0.5070 -0.2069  0.3849
 8541TIP3    H147038   4.249   1.738   5.228  0.7778 -0.3274  0.0966
 8541TIP3    H247039   4.237   1.620   5.134  0.1620 -0.4255  0.2953
 8542TIP3   OH247040   3.424   4.601   2.596  0.0876 -0.1020 -0.7843
 8542TIP3    H147041   3.434   4.539   2.524 -1.4109 -1.1151 -0.1633
 8542TIP3    H247042   3.470   4.680   2.566 -0.1802 -0.6234 -2.6898
 8543TIP3   OH247043   2.974   4.669   1.919 -0.2402  0.2245  0.0871
 8543TIP3    H147044   2.932   4.712   1.993 -0.5223 -0.2401  0.2034
 8543TIP3    H247045   2.912   4.601   1.893  0.7324 -0.9378  0.7073
 8544TIP3   OH247046   3.752   1.419  16.347 -0.1087 -0.0044 -0.1438
 8544TIP3    H147047   3.776   1.445  16.436 -1.7183  2.3320 -0.2963
 8544TIP3    H247048   3.833   1.384  16.310  1.1914  1.0630  1.5179
 8545TIP3   OH247049   2.582   3.853  12.769  0.3560 -0.1731  0.0300
 8545TIP3    H147050   2.642   3.875  12.698 -0.1703  0.8878 -0.0958
 8545TIP3    H247051   2.631   3.791  12.824  0.9138 -0.6905 -1.0221
 8546TIP3   OH247052   4.664   2.661   2.313 -0.1663  0.1914 -0.6033
 8546TIP3    H147053   4.686   2.613   2.393 -1.9621 -1.2143 -0.8886
 8546TIP3    H247054   4.719   2.622   2.245  0.7731  0.8392 -0.2381
 8547TIP3   OH247055   1.084   6.699   5.872  0.2801  0.2386 -0.5493
 8547TIP3    H147056   1.173   6.701   5.838  0.9281 -1.9815  0.8167
 8547TIP3    H247057   1.094   6.674   5.964 -1.6501  2.0684  0.2449
 8548TIP3   OH247058   4.298   4.126   0.276 -0.0198  0.6414 -0.1097
 8548TIP3    H147059   4.293   4.219   0.256 -0.9567  0.3068 -1.6065
 8548TIP3    H247060   4.276   4.120   0.369 -0.9497  1.8381 -0.2303
 8549TIP3   OH247061   4.612   0.018  12.397 -0.0518  0.3746  0.5531
 8549TIP3    H147062   4.592   0.040  12.306  1.0870  0.7598  0.3789
 8549TIP3    H247063   4.680   0.081  12.422 -0.8101  0.7004  1.8860
 8550TIP3   OH247064   5.589   0.239  13.204 -0.0063 -0.3482 -0.5903
 8550TIP3    H147065   5.652   0.310  13.188 -0.0127 -0.4416 -1.0501
 8550TIP3    H247066   5.640   0.159  13.192 -0.0958 -0.4245 -0.4621
 8551TIP3   OH247067   4.617   5.499   5.461  0.2402  0.0074 -0.6783
 8551TIP3    H147068   4.607   5.579   5.512  0.2857 -0.4166  0.0081
 8551TIP3    H247069   4.558   5.436   5.503 -0.9505  0.1015 -2.1285
 8552TIP3   OH247070   4.438   2.521   3.043 -0.5671 -0.0881  0.8587
 8552TIP3    H147071   4.419   2.428   3.056  0.8690 -0.3541  1.2829
 8552TIP3    H247072   4.428   2.535   2.948 -1.4261 -0.5083  0.8803
 8553TIP3   OH247073   3.222   0.161  13.852  0.5087 -0.5808  0.4135
 8553TIP3    H147074   3.280   0.221  13.899 -1.4117 -0.1822  2.4669
 8553TIP3    H247075   3.169   0.217  13.796 -0.0806 -0.5283  1.0061
 8554TIP3   OH247076   4.458   0.157   1.408  0.2852  0.1958  0.1019
 8554TIP3    H147077   4.434   0.115   1.325 -0.9415 -0.6775  0.8646
 8554TIP3    H247078   4.475   0.084   1.468  1.7331  0.8186  0.4912
 8555TIP3   OH247079   6.577   0.235  16.875  0.1006  0.4806  0.7625
 8555TIP3    H147080   6.541   0.315  16.912 -0.4736 -0.2884  1.9402
 8555TIP3    H247081   6.536   0.165  16.926  1.5652 -0.5113  0.6368
 8556TIP3   OH247082   5.082   3.578   4.773  1.0141  0.2431 -0.4867
 8556TIP3    H147083   5.041   3.662   4.792  1.2701 -0.0794  1.7793
 8556TIP3    H247084   5.170   3.585   4.811  0.8669 -1.1802  0.2114
 8557TIP3   OH247085   1.987   4.034  14.193 -0.6972 -0.5906  0.0476
 8557TIP3    H147086   1.901   4.072  14.213 -1.1069 -0.5336 -1.6489
 8557TIP3    H247087   2.046   4.109  14.189 -0.5577 -0.6253  1.1803
 8558TIP3   OH247088   5.621   6.240  16.145 -0.2018  0.1200  0.1480
 8558TIP3    H147089   5.633   6.281  16.059  1.6197  0.7588  0.6662
 8558TIP3    H247090   5.529   6.256  16.166 -0.9361 -0.8519 -2.0468
 8559TIP3   OH247091   4.119   1.198  12.658 -0.2754 -0.1818  0.4429
 8559TIP3    H147092   4.027   1.199  12.630 -0.7641  1.0965  1.9867
 8559TIP3    H247093   4.115   1.176  12.751  1.0474 -0.7757  0.3727
 8560TIP3   OH247094   4.656   5.292   1.508 -0.4795 -0.0314 -0.2722
 8560TIP3    H147095   4.640   5.269   1.417 -0.9895 -0.3825 -0.0961
 8560TIP3    H247096   4.588   5.356   1.529  0.9245  1.7241 -0.7660
 8561TIP3   OH247097   4.571   2.228  16.420 -0.1422  0.3056  0.0090
 8561TIP3    H147098   4.589   2.141  16.456  1.5301  0.6179  0.0005
 8561TIP3    H247099   4.550   2.282  16.497 -0.5565  0.0430  0.0815
 8562TIP3   OH247100   1.942   4.183  13.816  0.1469 -0.6189 -0.2833
 8562TIP3    H147101   1.942   4.253  13.881  0.0557 -0.7172 -0.1753
 8562TIP3    H247102   1.852   4.181  13.782 -0.8360 -2.8682  2.1141
 8563TIP3   OH247103   5.374   1.683   3.002 -0.0395  0.4336 -0.7662
 8563TIP3    H147104   5.469   1.676   2.993 -0.0689 -0.4266 -0.5457
 8563TIP3    H247105   5.355   1.775   2.986  0.8571  0.6636 -0.5931
 8564TIP3   OH247106   4.099   1.217  14.289 -0.0997 -0.0004 -0.1463
 8564TIP3    H147107   4.082   1.124  14.306 -0.7125  0.0209 -0.5991
 8564TIP3    H247108   4.038   1.240  14.219  0.7210  0.5084 -0.7094
 8565TIP3   OH247109   2.864   2.358  16.019 -0.0300  0.0557 -0.2269
 8565TIP3    H147110   2.823   2.325  15.939 -1.4838  0.6258  0.2579
 8565TIP3    H247111   2.881   2.280  16.071  0.0813 -0.2371 -0.6898
 8566TIP3   OH247112   1.096   5.537  13.095  0.1842 -0.1305 -0.1666
 8566TIP3    H147113   1.176   5.552  13.044  1.3795 -2.1263  1.0152
 8566TIP3    H247114   1.041   5.612  13.074  2.2406  1.1917 -1.2359
 8567TIP3   OH247115   2.717   1.855   5.662  0.0233 -0.3682 -0.5589
 8567TIP3    H147116   2.662   1.847   5.740  2.2501 -2.9478  0.9335
 8567TIP3    H247117   2.659   1.831   5.589 -1.6633  0.3961  0.4740
 8568TIP3   OH247118   4.764   3.893  14.769  0.1437  0.3262 -0.1649
 8568TIP3    H147119   4.835   3.911  14.830 -0.3647  0.3057  0.4491
 8568TIP3    H247120   4.787   3.941  14.690  1.0905 -0.1021 -0.1527
 8569TIP3   OH247121   4.798   0.186  15.805  0.1047  0.0044 -0.1138
 8569TIP3    H147122   4.889   0.164  15.783 -0.2632 -0.3499 -1.3527
 8569TIP3    H247123   4.792   0.281  15.789  0.5298  0.2463  1.0394
 8570TIP3   OH247124   2.532   2.430  14.154  0.1607 -0.5609 -0.3476
 8570TIP3    H147125   2.596   2.414  14.223 -0.4145  1.3530  0.7118
 8570TIP3    H247126   2.572   2.498  14.100 -0.6876  0.2174 -0.0269
 8571TIP3   OH247127   6.361   3.901   1.431 -0.4065 -0.3195 -0.5467
 8571TIP3    H147128   6.362   3.841   1.506 -1.1880  0.1874 -0.1117
 8571TIP3    H247129   6.446   3.945   1.435  0.0590 -1.1867 -0.7021
 8572TIP3   OH247130   6.173   3.625   2.541 -0.0447 -0.3082 -0.3898
 8572TIP3    H147131   6.185   3.672   2.624 -2.6221  0.4683 -0.3662
 8572TIP3    H247132   6.103   3.674   2.496  0.0135 -1.7877 -2.1971
 8573TIP3   OH247133   3.907   3.624   5.607 -0.2754  0.4955 -0.0570
 8573TIP3    H147134   3.846   3.658   5.673 -1.9965  0.5204 -1.5672
 8573TIP3    H247135   3.871   3.538   5.584 -0.0233  0.7094 -1.3033
 8574TIP3   OH247136   1.571   3.321   2.542  0.6207  0.5233 -0.3674
 8574TIP3    H147137   1.524   3.346   2.622  3.3226 -0.2612  1.6148
 8574TIP3    H247138   1.513   3.257   2.500 -0.9081  0.9884  0.8962
 8575TIP3   OH247139   1.086   2.595   2.295  0.1980 -0.4083  0.5499
 8575TIP3    H147140   1.070   2.651   2.371 -3.5110 -1.5473  0.7959
 8575TIP3    H247141   1.105   2.509   2.332 -0.7898 -0.7784  0.2236
 8576TIP3   OH247142   5.834   3.154  13.541  0.3512  0.2862  0.6751
 8576TIP3    H147143   5.894   3.115  13.605  2.8966  3.3129  0.3908
 8576TIP3    H247144   5.875   3.137  13.457 -1.4460 -1.1011  0.0115
 8577TIP3   OH247145   3.000   3.966  16.622 -0.0839 -0.1448  0.8173
 8577TIP3    H147146   3.053   3.888  16.606 -0.3589 -0.0092 -0.9323
 8577TIP3    H247147   2.910   3.936  16.613 -0.1728  0.5814 -1.1457
 8578TIP3   OH247148   0.804   0.377   0.447  0.1299  0.2189  0.0169
 8578TIP3    H147149   0.717   0.338   0.450  0.6964 -1.2097 -0.8915
 8578TIP3    H247150   0.863   0.303   0.465  1.2778  0.4690 -2.3262
 8579TIP3   OH247151   4.310   6.739   5.460 -0.0060 -0.6197  0.5622
 8579TIP3    H147152   4.350   6.817   5.499  0.7216 -1.4136  1.4825
 8579TIP3    H247153   4.243   6.712   5.522  0.2127 -1.1093  0.5935
 8580TIP3   OH247154   6.004   6.220  14.646 -0.2613 -0.6511  0.2098
 8580TIP3    H147155   6.014   6.153  14.714  1.0576 -0.2918  0.3987
 8580TIP3    H247156   5.949   6.179  14.580  1.4858 -2.4035 -0.2577
 8581TIP3   OH247157   4.352   2.146   5.783  0.0111 -0.5959  0.0672
 8581TIP3    H147158   4.329   2.056   5.805 -0.7423 -0.4714 -0.1689
 8581TIP3    H247159   4.334   2.196   5.863 -0.6391 -0.4890 -0.1353
 8582TIP3   OH247160   2.524   5.970   5.703  0.1953 -0.1235 -0.2063
 8582TIP3    H147161   2.488   6.021   5.776 -1.4705 -0.6283 -0.6293
 8582TIP3    H247162   2.561   5.892   5.745  1.3652  0.6677  0.2934
 8583TIP3   OH247163   3.426   6.488  17.137  0.3643  0.1032  0.4344
 8583TIP3    H147164   3.492   6.434  17.180 -0.0952  0.9772  2.3471
 8583TIP3    H247165   3.446   6.577  17.164 -1.1434  0.4702  0.4295
 8584TIP3   OH247166   2.919   0.562  11.643 -0.4397 -0.1255 -0.1042
 8584TIP3    H147167   2.885   0.480  11.680 -0.0143 -0.2148  0.0887
 8584TIP3    H247168   3.008   0.542  11.615  1.2410  1.2257  3.6139
 8585TIP3   OH247169   0.194   1.386   5.630  0.1542 -0.5381  0.2855
 8585TIP3    H147170   0.287   1.408   5.623  0.3062 -0.4636  2.1210
 8585TIP3    H247171   0.188   1.330   5.707 -1.4884  0.5196  0.9765
 8586TIP3   OH247172   3.295   1.968  16.849 -0.6752  0.2326  0.0965
 8586TIP3    H147173   3.263   2.053  16.878 -1.7647 -0.3423  0.6327
 8586TIP3    H247174   3.369   1.948  16.907 -2.3766 -0.5823  2.0892
 8587TIP3   OH247175   0.377   2.180  13.494  0.3613  0.2542 -0.4871
 8587TIP3    H147176   0.338   2.094  13.482  0.2165  0.2332  0.0969
 8587TIP3    H247177   0.331   2.237  13.433 -2.5270  0.8293  2.0051
 8588TIP3   OH247178   1.439   1.772  15.318  0.0386  0.0559 -0.4801
 8588TIP3    H147179   1.528   1.776  15.354 -0.2470  1.1939  0.1413
 8588TIP3    H247180   1.396   1.850  15.350 -1.2986 -0.6179 -0.5428
 8589TIP3   OH247181   6.404   3.482  16.158  0.6728 -0.5502  0.3892
 8589TIP3    H147182   6.392   3.545  16.230  2.8735 -1.2199  1.4174
 8589TIP3    H247183   6.456   3.411  16.196  2.6699 -0.5328 -2.0557
 8590TIP3   OH247184   6.281   2.817   1.764 -0.0856  0.1842 -0.0219
 8590TIP3    H147185   6.327   2.784   1.686 -0.3668  0.6040 -0.3686
 8590TIP3    H247186   6.248   2.903   1.738 -2.1070 -0.5813 -0.1954
 8591TIP3   OH247187   2.762   0.839   0.399 -0.1943 -0.0738 -0.1034
 8591TIP3    H147188   2.815   0.761   0.382 -0.9825 -0.2821 -1.8929
 8591TIP3    H247189   2.694   0.809   0.460  1.2689  0.0312  1.6642
 8592TIP3   OH247190   0.401   0.965  12.257 -0.0885 -0.3528 -0.2962
 8592TIP3    H147191   0.478   1.018  12.278  0.2453 -0.2522 -1.6864
 8592TIP3    H247192   0.368   0.937  12.342  1.6078 -0.5780  0.3366
 8593TIP3   OH247193   0.743   5.209   1.157  0.7796 -0.2646  0.1013
 8593TIP3    H147194   0.697   5.275   1.209  2.1730 -0.1045  1.2002
 8593TIP3    H247195   0.829   5.201   1.199  0.6474 -2.8529  0.0580
 8594TIP3   OH247196   6.214   6.295   2.577 -0.5240  0.0002  0.0354
 8594TIP3    H147197   6.279   6.229   2.553  1.3349  1.3766  0.9417
 8594TIP3    H247198   6.131   6.249   2.576  0.7456 -2.5468  1.2618
 8595TIP3   OH247199   5.558   2.288  11.054 -0.3618 -0.2464  0.0439
 8595TIP3    H147200   5.513   2.251  11.131 -0.0158 -1.2203 -0.1998
 8595TIP3    H247201   5.563   2.381  11.072  0.7416 -0.5896  1.7517
 8596TIP3   OH247202   6.525   2.067  16.252  0.1564 -0.6391  0.7726
 8596TIP3    H147203   6.599   2.100  16.200 -2.8493  1.6786 -2.4829
 8596TIP3    H247204   6.513   2.132  16.320 -0.8675  0.8808 -0.7887
 8597TIP3   OH247205   2.289   1.224  12.930  0.0142 -0.3522 -0.3367
 8597TIP3    H147206   2.211   1.200  12.880  0.4711 -1.5236 -0.5143
 8597TIP3    H247207   2.340   1.278  12.869  0.4808 -1.6151 -1.1003
 8598TIP3   OH247208   5.948   0.641  16.236 -0.2930 -0.0542 -0.4943
 8598TIP3    H147209   5.998   0.694  16.298 -0.1254 -0.7601 -0.0048
 8598TIP3    H247210   5.857   0.651  16.264 -0.2938  0.2184 -0.5947
 8599TIP3   OH247211   6.337   0.006  12.838 -0.4699 -0.3950 -0.7510
 8599TIP3    H147212   6.417  -0.044  12.855  0.6755  1.5145 -0.2424
 8599TIP3    H247213   6.276  -0.024  12.905  0.0126 -1.4100 -0.7322
 8600TIP3   OH247214   0.240   5.168  13.218  0.6372 -0.2928  0.3925
 8600TIP3    H147215   0.215   5.079  13.193 -1.1626  0.9005 -2.5497
 8600TIP3    H247216   0.331   5.177  13.191  0.8409 -1.2287  0.7500
 8601TIP3   OH247217   3.866   2.638  12.157 -0.1528  0.1523  0.4766
 8601TIP3    H147218   3.920   2.708  12.195 -2.1000  2.0485 -0.0183
 8601TIP3    H247219   3.866   2.657  12.063 -0.4591 -0.7023  0.2960
 8602TIP3   OH247220   2.823   2.780  13.651  0.3806 -0.0783 -0.2850
 8602TIP3    H147221   2.801   2.770  13.559 -0.0346 -0.2212 -0.1699
 8602TIP3    H247222   2.744   2.754  13.698 -0.2604  2.3158  0.0784
 8603TIP3   OH247223   1.172   5.834   1.711  0.4095  0.0571  0.2718
 8603TIP3    H147224   1.196   5.863   1.799  0.1290 -0.5620  0.5611
 8603TIP3    H247225   1.083   5.799   1.721  0.8563 -1.2010  0.0201
 8604TIP3   OH247226   3.493   4.100  12.389 -0.0491 -0.1668  0.3513
 8604TIP3    H147227   3.411   4.120  12.344  0.0572 -0.0257  0.2192
 8604TIP3    H247228   3.481   4.137  12.476 -0.6886 -1.3945  0.8232
 8605TIP3   OH247229   6.612   6.565  12.169 -0.2111  0.0491  0.1937
 8605TIP3    H147230   6.674   6.622  12.216 -1.3654  0.6400  1.0531
 8605TIP3    H247231   6.529   6.578  12.214 -1.1812 -0.0335 -1.4936
 8606TIP3   OH247232   2.682   6.459   1.922 -0.3753 -0.2559 -0.3398
 8606TIP3    H147233   2.665   6.496   2.009 -0.8396  1.0307 -0.9510
 8606TIP3    H247234   2.687   6.535   1.865 -1.0460 -1.1414 -1.6078
 8607TIP3   OH247235   6.065   3.840  15.906 -0.1797  0.4074  0.0069
 8607TIP3    H147236   6.110   3.923  15.894  0.5910  0.1967  1.2577
 8607TIP3    H247237   6.031   3.843  15.995  1.9534 -1.5546  0.9755
 8608TIP3   OH247238   1.323   6.266  13.253 -0.0968  0.8824 -0.1518
 8608TIP3    H147239   1.275   6.308  13.324 -1.0747 -2.0035  1.0353
 8608TIP3    H247240   1.403   6.232  13.294 -0.2471 -0.0422 -0.5859
 8609TIP3   OH247241   0.508   4.457  17.380  0.1474  0.3102  0.2613
 8609TIP3    H147242   0.574   4.505  17.430  0.8690 -0.0417 -0.3349
 8609TIP3    H247243   0.559   4.406  17.316 -0.6832 -0.2228  0.0153
 8610TIP3   OH247244   0.275   3.422  15.030  0.7244 -0.7113 -0.7368
 8610TIP3    H147245   0.341   3.381  14.973  0.7065  0.7172 -1.8380
 8610TIP3    H247246   0.323   3.445  15.109  0.8310 -2.3986 -0.2566
 8611TIP3   OH247247   0.358   5.162   2.308  0.1237 -0.2005  0.4776
 8611TIP3    H147248   0.337   5.182   2.399 -2.6770 -0.2768 -0.0658
 8611TIP3    H247249   0.293   5.209   2.257  0.8345 -1.1852 -1.4480
 8612TIP3   OH247250   2.251   0.287  13.250 -0.2674 -0.0366  0.3129
 8612TIP3    H147251   2.340   0.253  13.244 -0.5698 -0.6800 -0.8186
 8612TIP3    H247252   2.211   0.265  13.166 -1.2094  1.0810  0.4387
 8613TIP3   OH247253   5.291   3.369   3.713 -0.1696  0.1943 -0.2197
 8613TIP3    H147254   5.228   3.414   3.771  1.2538  1.6337  0.2795
 8613TIP3    H247255   5.308   3.286   3.757 -1.7359 -0.2570 -0.3945
 8614TIP3   OH247256   1.836   5.682  14.563 -0.5781  0.3137  0.1533
 8614TIP3    H147257   1.815   5.762  14.612 -1.0306  0.2216  0.1120
 8614TIP3    H247258   1.899   5.711  14.496 -2.2297  1.0343 -1.1499
 8615TIP3   OH247259   6.617   6.524   0.043 -0.5410  0.2253 -0.2743
 8615TIP3    H147260   6.624   6.603  -0.012 -1.2379  0.4544 -0.0415
 8615TIP3    H247261   6.525   6.521   0.068 -0.6205 -0.9404 -0.6736
 8616TIP3   OH247262   4.356   4.494  14.730 -0.3964 -0.3218  0.3640
 8616TIP3    H147263   4.427   4.499  14.666 -0.4587  0.6199  0.3662
 8616TIP3    H247264   4.400   4.493  14.815 -0.3993  1.0614  0.3973
 8617TIP3   OH247265   6.694   1.659  13.866 -0.1528 -0.0551  0.7758
 8617TIP3    H147266   6.727   1.723  13.803  1.1388 -0.8846  0.5754
 8617TIP3    H247267   6.668   1.712  13.942 -2.7791  1.0809 -0.7776
 8618TIP3   OH247268   1.028   3.195  12.779 -0.6607  0.7520 -0.0730
 8618TIP3    H147269   1.085   3.250  12.725  0.6282 -1.1957 -0.7932
 8618TIP3    H247270   0.960   3.165  12.719  0.7100 -1.3249 -0.6781
 8619TIP3   OH247271   2.169   6.162   1.422 -0.1156  0.1777 -0.5343
 8619TIP3    H147272   2.085   6.136   1.459  0.5164 -1.1572  0.0496
 8619TIP3    H247273   2.161   6.256   1.407 -2.1011 -0.1096 -1.5858
 8620TIP3   OH247274   1.417   5.591  13.769  0.0281  0.3409  0.1180
 8620TIP3    H147275   1.395   5.644  13.846 -0.2329  1.7941 -0.9235
 8620TIP3    H247276   1.470   5.519  13.804  0.7210  1.4977  1.5254
 8621TIP3   OH247277   6.520   6.429  15.508 -0.0074  0.1901  0.4757
 8621TIP3    H147278   6.429   6.447  15.535  0.7651  1.2009  2.6098
 8621TIP3    H247279   6.548   6.509  15.465  0.3697  0.5161  1.3057
 8622TIP3   OH247280   0.205   4.045   6.104  0.4219  0.0300 -0.0120
 8622TIP3    H147281   0.151   4.123   6.111  0.2557 -0.0666 -0.2081
 8622TIP3    H247282   0.176   3.988   6.175 -0.3351 -0.3874 -0.6444
 8623TIP3   OH247283   6.713   5.125   3.622  0.7389  0.4568 -0.4647
 8623TIP3    H147284   6.686   5.035   3.642  1.1122 -0.0046 -1.8954
 8623TIP3    H247285   6.633   5.177   3.633  0.0975 -0.3267 -1.2212
 8624TIP3   OH247286   1.342   0.913  17.200 -0.5237  0.2913 -0.2830
 8624TIP3    H147287   1.319   0.863  17.278  1.9096  1.0360  1.0313
 8624TIP3    H247288   1.411   0.861  17.158  0.3608  1.3450 -0.2008
 8625TIP3   OH247289   0.043   5.461  15.546 -0.1595  0.4638 -0.5595
 8625TIP3    H147290  -0.018   5.388  15.559  2.0692 -1.6789 -1.2870
 8625TIP3    H247291   0.048   5.504  15.631 -2.2252  0.3901 -0.3499
 8626TIP3   OH247292   3.640   1.290   4.386 -0.0963  0.2358  0.3525
 8626TIP3    H147293   3.616   1.346   4.313  1.1517 -0.1417 -0.3665
 8626TIP3    H247294   3.685   1.348   4.447  1.7769 -0.0408 -0.6832
 8627TIP3   OH247295   5.877   2.160  14.945  0.6735 -0.1530 -0.0696
 8627TIP3    H147296   5.902   2.252  14.935  1.3748  0.0265  2.5457
 8627TIP3    H247297   5.918   2.133  15.027 -2.9468 -1.5737  1.4596
 8628TIP3   OH247298   6.259   3.103  15.732  0.1467  0.8777 -0.1792
 8628TIP3    H147299   6.302   3.126  15.814 -0.4545  1.5436 -0.0467
 8628TIP3    H247300   6.186   3.046  15.758  1.5540 -1.2062 -0.4901
 8629TIP3   OH247301   4.390   0.083  12.101  0.2606  0.1189 -0.0616
 8629TIP3    H147302   4.448   0.114  12.032 -0.5209 -0.4024 -0.9659
 8629TIP3    H247303   4.330   0.156  12.116  0.8206  0.4724  0.5330
 8630TIP3   OH247304   1.404   3.038   0.921  0.2383 -0.0567 -0.0387
 8630TIP3    H147305   1.474   3.087   0.965  0.9555 -0.9388 -0.1674
 8630TIP3    H247306   1.341   3.018   0.991  0.0865  0.7708  0.0715
 8631TIP3   OH247307   5.896   2.186   0.849  0.1540 -0.1490 -0.2221
 8631TIP3    H147308   5.978   2.235   0.855  0.3848 -0.2049 -2.1835
 8631TIP3    H247309   5.918   2.099   0.883  0.0704  0.6696  2.0863
 8632TIP3   OH247310   4.461   2.396   1.421 -0.5075  0.3117  0.0188
 8632TIP3    H147311   4.484   2.460   1.353 -1.2446  0.4274 -0.1401
 8632TIP3    H247312   4.541   2.383   1.471  0.0547  0.2024 -0.8974
 8633TIP3   OH247313   0.429   3.549   1.220 -0.4758 -0.1344 -0.1041
 8633TIP3    H147314   0.508   3.517   1.264 -0.1592  0.0065 -0.5567
 8633TIP3    H247315   0.357   3.501   1.261  0.0532 -2.1615 -1.3830
 8634TIP3   OH247316   4.708   3.002   1.289 -0.0774 -0.4733 -0.2349
 8634TIP3    H147317   4.777   3.033   1.231 -0.3849  0.2348 -0.2317
 8634TIP3    H247318   4.632   2.992   1.232  0.5900 -3.5785 -0.7535
 8635TIP3   OH247319   4.845   5.408   4.778 -0.0167  0.0022 -0.5216
 8635TIP3    H147320   4.934   5.395   4.746  0.6954 -1.0571  1.7118
 8635TIP3    H247321   4.813   5.320   4.798 -0.4537  0.5431  1.4244
 8636TIP3   OH247322   0.511   0.564  15.326 -0.1123 -0.3833 -0.0924
 8636TIP3    H147323   0.459   0.589  15.402  0.2005 -1.8402  0.6428
 8636TIP3    H247324   0.600   0.589  15.348 -0.5573  3.8690 -2.1216
 8637TIP3   OH247325   6.435   4.285   3.106  0.3331  0.1571  0.1674
 8637TIP3    H147326   6.481   4.294   3.190  0.0058  1.7240  0.1961
 8637TIP3    H247327   6.471   4.355   3.051 -0.9550  0.4720 -0.3049
 8638TIP3   OH247328   1.787   0.481  16.741 -0.2110 -0.1837  0.2672
 8638TIP3    H147329   1.697   0.447  16.739 -0.0736 -0.6543  1.2473
 8638TIP3    H247330   1.822   0.449  16.824  0.8610  0.0164 -0.0962
 8639TIP3   OH247331   4.381   5.755   3.440  0.8386  0.4894 -0.2798
 8639TIP3    H147332   4.319   5.688   3.410  1.3883 -0.0590 -0.2143
 8639TIP3    H247333   4.370   5.827   3.377  0.7586  0.0422 -0.7874
 8640TIP3   OH247334   5.983   4.307   0.837  0.6538  0.1128  0.0609
 8640TIP3    H147335   6.026   4.277   0.917  1.4601  0.4075 -0.2502
 8640TIP3    H247336   5.923   4.376   0.867  2.1791  1.4064  0.2347
 8641TIP3   OH247337   4.296   6.072  17.009 -0.0875  0.1125  0.0706
 8641TIP3    H147338   4.302   6.168  17.012  0.6833  0.1308 -1.2277
 8641TIP3    H247339   4.206   6.055  16.981 -0.3663  0.4340  0.7477
 8642TIP3   OH247340   2.375   0.569  11.348 -0.0590  0.4388 -0.1202
 8642TIP3    H147341   2.392   0.506  11.277  1.0743 -0.2352  0.7125
 8642TIP3    H247342   2.315   0.522  11.407  0.5945  0.2127  0.3776
 8643TIP3   OH247343   5.286   0.825  12.825 -0.4690  0.5926  0.4273
 8643TIP3    H147344   5.328   0.910  12.838  0.2801  0.4973 -1.1447
 8643TIP3    H247345   5.357   0.762  12.837 -0.1079  0.4212 -2.1550
 8644TIP3   OH247346   1.102   2.958  11.751 -0.3868  0.1532 -0.1756
 8644TIP3    H147347   1.118   3.048  11.778 -0.0478 -0.0918  0.4660
 8644TIP3    H247348   1.138   2.952  11.663 -0.0637  0.5406 -0.0722
 8645TIP3   OH247349   4.078   6.507   5.840  0.0869  0.0629  0.0211
 8645TIP3    H147350   4.149   6.571   5.834  0.8149 -0.8013 -1.0118
 8645TIP3    H247351   4.032   6.529   5.920  1.7872  0.3790  0.9502
 8646TIP3   OH247352   2.216   1.589  15.463  0.3537 -0.0134  0.0944
 8646TIP3    H147353   2.244   1.498  15.463  1.2338  0.2366  1.0401
 8646TIP3    H247354   2.196   1.608  15.371  0.5976 -1.0207 -0.1816
 8647TIP3   OH247355   6.584   5.154   1.610  0.0264 -0.7160 -0.3794
 8647TIP3    H147356   6.558   5.062   1.620 -1.0591 -0.2881  1.1860
 8647TIP3    H247357   6.596   5.185   1.700  2.0865  0.2435 -0.9170
 8648TIP3   OH247358   3.830   2.080  16.038 -0.5009 -0.2061  0.5165
 8648TIP3    H147359   3.915   2.049  16.007 -1.1946  1.9942 -4.8490
 8648TIP3    H247360   3.852   2.152  16.097  1.2723 -1.0761  1.0102
 8649TIP3   OH247361   0.779   2.038  17.357 -0.3516  0.6503  0.0270
 8649TIP3    H147362   0.874   2.052  17.357  0.0278 -1.1908 -2.5283
 8649TIP3    H247363   0.766   1.963  17.415  0.0345 -0.2245 -0.9793
 8650TIP3   OH247364   2.720   6.235   2.672  0.2049 -0.1663  0.0918
 8650TIP3    H147365   2.678   6.149   2.681  1.9829 -1.0628  0.1735
 8650TIP3    H247366   2.710   6.256   2.579 -0.7957 -0.1337  0.1894
 8651TIP3   OH247367   4.805   3.824  12.540 -0.2389  0.6169 -0.2813
 8651TIP3    H147368   4.892   3.850  12.569 -0.3633 -0.0023  0.6855
 8651TIP3    H247369   4.774   3.898  12.488  0.5496  1.1633  0.0032
 8652TIP3   OH247370   3.864   3.131   5.929  0.4590 -0.1708  0.0305
 8652TIP3    H147371   3.895   3.130   6.019 -1.6343  3.4931  0.9751
 8652TIP3    H247372   3.932   3.177   5.880  0.8002 -0.6138  0.0833
 8653TIP3   OH247373   5.475   0.248   5.376 -0.1416  0.5324 -0.6197
 8653TIP3    H147374   5.430   0.328   5.400  0.6903  0.4558  1.4198
 8653TIP3    H247375   5.407   0.180   5.377 -0.0503  0.3307  2.8578
 8654TIP3   OH247376   0.945   0.305  15.633  0.7468 -0.0515 -0.0444
 8654TIP3    H147377   1.004   0.265  15.697  1.4438  1.2769  0.1715
 8654TIP3    H247378   1.002   0.346  15.569  0.0499 -1.1867 -1.4359
 8655TIP3   OH247379   2.527   5.069   0.480 -0.1603 -1.0774 -0.2180
 8655TIP3    H147380   2.579   5.144   0.453 -0.1988 -1.9223 -3.0212
 8655TIP3    H247381   2.591   5.002   0.503 -0.0647 -1.1590 -0.7198
 8656TIP3   OH247382   0.601   3.821  13.786  0.1772  0.3957 -0.6934
 8656TIP3    H147383   0.542   3.751  13.758  0.4027 -0.0245 -0.1342
 8656TIP3    H247384   0.688   3.784  13.775  0.2706 -0.2059  1.5380
 8657TIP3   OH247385   1.519   0.878   4.985  0.4589 -0.4856  0.2836
 8657TIP3    H147386   1.455   0.838   4.927  1.0848 -0.6525 -0.3110
 8657TIP3    H247387   1.469   0.944   5.033 -0.2439 -0.9003  0.1419
 8658TIP3   OH247388   4.642   6.457   3.890 -0.2155  0.0061 -0.1432
 8658TIP3    H147389   4.658   6.544   3.928 -0.3608 -0.2386  0.4901
 8658TIP3    H247390   4.564   6.470   3.835  0.5200  0.5668 -1.0841
 8659TIP3   OH247391   3.657   5.607  10.510 -0.7322  0.4632 -0.1754
 8659TIP3    H147392   3.717   5.597  10.583  0.0492 -0.0996 -0.8804
 8659TIP3    H247393   3.654   5.701  10.493 -1.6455  0.6986  1.1605
 8660TIP3   OH247394   4.240   3.106   4.097  0.6708  0.8691  0.2959
 8660TIP3    H147395   4.181   3.034   4.119 -0.8564  1.3243 -1.9312
 8660TIP3    H247396   4.239   3.162   4.174 -0.7103  0.1307  0.8439
 8661TIP3   OH247397   2.585   5.779   5.908  0.3950  0.0876 -0.7111
 8661TIP3    H147398   2.634   5.836   5.967 -0.6947 -0.0632  0.3954
 8661TIP3    H247399   2.650   5.719   5.873  1.3237  1.1406 -0.8357
 8662TIP3   OH247400   1.440   5.277  14.062 -0.4047  0.6503 -0.7771
 8662TIP3    H147401   1.356   5.313  14.033 -0.4443  1.9033  0.7279
 8662TIP3    H247402   1.422   5.245  14.151 -0.0742 -2.1354 -1.6209
 8663TIP3   OH247403   1.508   5.345   1.058  0.1164  0.1051 -0.3545
 8663TIP3    H147404   1.520   5.331   1.151 -0.2420 -2.5116 -0.6371
 8663TIP3    H247405   1.413   5.350   1.046  0.1753  2.1887 -0.4327
 8664TIP3   OH247406   3.879   5.872  14.479  0.0614 -0.2771 -0.5789
 8664TIP3    H147407   3.812   5.939  14.493  0.1668 -0.2499 -0.1858
 8664TIP3    H247408   3.865   5.810  14.551  1.9716  0.9718  0.9723
 8665TIP3   OH247409   0.616   6.276  12.194  0.3065  0.4006  0.3345
 8665TIP3    H147410   0.581   6.273  12.283  0.7912  0.4695  0.5266
 8665TIP3    H247411   0.675   6.201  12.188  1.9687  1.6376  0.7833
 8666TIP3   OH247412   1.688   5.481  10.871  0.3501  0.8579 -0.2726
 8666TIP3    H147413   1.603   5.498  10.911  0.4099  1.6691 -0.4547
 8666TIP3    H247414   1.716   5.567  10.838  1.0691  0.5314 -0.5399
 8667TIP3   OH247415   5.614   3.506   4.335 -0.1213  0.2384  0.0743
 8667TIP3    H147416   5.534   3.555   4.315  0.5653  0.4976 -2.4613
 8667TIP3    H247417   5.684   3.561   4.300  0.9074 -1.2774 -0.3178
 8668TIP3   OH247418   1.876   3.612  12.923  0.6446  0.1556  0.1981
 8668TIP3    H147419   1.905   3.699  12.897  0.8070 -0.0816 -0.4498
 8668TIP3    H247420   1.781   3.615  12.913  0.6174  0.3733  0.5348
 8669TIP3   OH247421   4.027   1.134  12.902  0.3003  0.0568 -0.9069
 8669TIP3    H147422   4.010   1.199  12.970  1.9679 -0.5763  0.1724
 8669TIP3    H247423   3.943   1.092  12.887  0.0122 -0.2660  1.2945
 8670TIP3   OH247424   4.844   2.901  14.912 -0.4084 -0.1574 -0.6054
 8670TIP3    H147425   4.886   2.987  14.901 -0.2087 -0.3622 -1.5626
 8670TIP3    H247426   4.767   2.905  14.855 -1.2448 -0.0837  0.5115
 8671TIP3   OH247427   0.190   5.484  12.974  0.3243 -0.1234  0.6714
 8671TIP3    H147428   0.274   5.448  13.001  0.1948 -0.4119  0.6944
 8671TIP3    H247429   0.211   5.541  12.900  0.5441 -0.1673  0.6993
 8672TIP3   OH247430   5.169   2.342   2.675 -0.0015 -0.0374  0.4183
 8672TIP3    H147431   5.158   2.248   2.659  1.5360 -0.1727 -0.0321
 8672TIP3    H247432   5.112   2.361   2.749  0.5104 -1.5647  1.2415
 8673TIP3   OH247433   4.044   4.944  14.876 -0.0552  0.6054 -0.1005
 8673TIP3    H147434   4.139   4.955  14.884  0.0395  0.1253 -0.5635
 8673TIP3    H247435   4.013   4.936  14.966  0.8549 -3.5896  0.0215
 8674TIP3   OH247436   4.477   3.065   2.164  0.0062 -0.0414 -0.2229
 8674TIP3    H147437   4.555   3.120   2.161  1.7307 -2.1949  1.7013
 8674TIP3    H247438   4.497   2.991   2.108 -0.7978 -0.4311 -0.0071
 8675TIP3   OH247439   5.809   1.936   4.284  0.0017  0.4835  0.3185
 8675TIP3    H147440   5.883   1.981   4.243 -0.3144  1.2833  0.6166
 8675TIP3    H247441   5.732   1.984   4.254 -0.3266  0.2770  0.8174
 8676TIP3   OH247442   0.299   1.127  12.646 -0.0427 -0.5401  0.2764
 8676TIP3    H147443   0.301   1.047  12.594 -1.8208 -0.3603 -0.1413
 8676TIP3    H247444   0.285   1.096  12.736 -1.6832 -0.7234  0.0018
 8677TIP3   OH247445   3.898   4.939   5.396 -0.3335  0.4045  0.8523
 8677TIP3    H147446   3.839   4.978   5.332 -0.1768 -0.1377  0.3634
 8677TIP3    H247447   3.981   4.984   5.383 -0.6240  1.1402  1.5131
 8678TIP3   OH247448   4.596   1.711   2.098 -0.3422  0.0767  0.6740
 8678TIP3    H147449   4.525   1.694   2.035 -0.6050  0.6279  0.8109
 8678TIP3    H247450   4.660   1.762   2.048 -0.5165  0.4510  0.8304
 8679TIP3   OH247451   6.507   1.824  12.083  0.1977  0.2416 -0.1524
 8679TIP3    H147452   6.540   1.904  12.042  3.5055 -0.6881  0.3889
 8679TIP3    H247453   6.466   1.854  12.165  0.5274  1.4463 -0.4185
 8680TIP3   OH247454   5.375   0.187  15.165 -0.3341 -0.0734  0.5056
 8680TIP3    H147455   5.455   0.140  15.140  0.2739  1.4083 -0.4915
 8680TIP3    H247456   5.312   0.166  15.095  0.1537  1.0854 -0.3046
 8681TIP3   OH247457   0.898   5.683   2.027 -0.7233  0.3275  0.5620
 8681TIP3    H147458   0.913   5.612   1.965  1.1099 -1.2437  2.6190
 8681TIP3    H247459   0.986   5.713   2.051 -1.4324  2.6927  0.4739
 8682TIP3   OH247460   2.812   3.988   4.311  0.3685 -0.5201 -0.4087
 8682TIP3    H147461   2.861   4.024   4.385  0.0828 -0.0531 -0.4448
 8682TIP3    H247462   2.861   4.015   4.234  0.6004 -0.9051 -0.3983
 8683TIP3   OH247463   0.679   5.912  15.383 -0.0568 -0.8459  0.3654
 8683TIP3    H147464   0.662   5.951  15.297 -0.4038  0.4521  0.9871
 8683TIP3    H247465   0.774   5.914  15.392 -0.1040  1.1032  0.8884
 8684TIP3   OH247466   3.532   0.943  12.563  0.2651  0.1391  0.3652
 8684TIP3    H147467   3.593   0.887  12.516  2.3181  2.3699  0.1750
 8684TIP3    H247468   3.446   0.923  12.526  0.9472 -2.5089  0.0623
 8685TIP3   OH247469   2.209   0.673   0.472  0.4467 -0.3731  0.2347
 8685TIP3    H147470   2.191   0.592   0.519 -1.0649  0.3703  0.9864
 8685TIP3    H247471   2.143   0.676   0.403 -1.4912  1.6131  2.0359
 8686TIP3   OH247472   6.064   5.264  14.224  0.0365 -0.6083 -0.2033
 8686TIP3    H147473   6.133   5.323  14.193  1.3662 -1.9493  0.0806
 8686TIP3    H247474   6.108   5.180  14.236 -2.0516 -2.0659 -1.8945
 8687TIP3   OH247475   4.955   5.270   2.230  0.1736  0.3286  0.0800
 8687TIP3    H147476   4.960   5.197   2.168 -1.3344 -0.7879  1.1939
 8687TIP3    H247477   5.018   5.334   2.197  2.6979 -2.0812 -0.1451
 8688TIP3   OH247478   4.434   0.750  16.397 -0.0231 -0.4814  0.6211
 8688TIP3    H147479   4.451   0.790  16.482  0.8114 -0.3670  0.4186
 8688TIP3    H247480   4.467   0.814  16.334  1.9640 -1.7080  0.2998
 8689TIP3   OH247481   5.412   5.164  15.623 -0.3669  0.4112 -0.0131
 8689TIP3    H147482   5.439   5.088  15.674 -1.9575 -0.2299 -0.0811
 8689TIP3    H247483   5.470   5.163  15.546 -0.2217 -0.5969  0.1030
 8690TIP3   OH247484   2.429   0.158  13.650 -0.0394 -0.0478 -0.4689
 8690TIP3    H147485   2.495   0.163  13.580  0.0793 -0.7018 -0.4112
 8690TIP3    H247486   2.376   0.237  13.639  1.1932  0.8691 -0.0680
 8691TIP3   OH247487   4.562   6.577   2.497  0.0163 -0.2328  0.0890
 8691TIP3    H147488   4.519   6.502   2.455  0.3444 -1.0104  1.1109
 8691TIP3    H247489   4.492   6.641   2.509 -0.2303 -0.2841 -0.9651
 8692TIP3   OH247490   4.280   3.689   0.166  0.8727 -0.2377 -0.2557
 8692TIP3    H147491   4.223   3.669   0.093  0.8582 -0.3115 -0.2243
 8692TIP3    H247492   4.311   3.604   0.196  1.7320 -0.1476 -0.8595
 8693TIP3   OH247493   6.432   3.808   4.670  0.1424  0.1965  0.3984
 8693TIP3    H147494   6.353   3.820   4.722 -0.7013 -1.1442 -0.4857
 8693TIP3    H247495   6.492   3.761   4.727 -1.1454 -2.1672 -0.0734
 8694TIP3   OH247496   2.669   4.202   1.981  0.0727 -0.4661 -0.1751
 8694TIP3    H147497   2.733   4.255   1.933 -1.8166  0.5086 -1.7436
 8694TIP3    H247498   2.657   4.249   2.064 -0.2959  0.6280 -0.8311
 8695TIP3   OH247499   5.870   4.229   4.485  0.6217  0.2142  0.2174
 8695TIP3    H147500   5.812   4.303   4.499  0.0128 -0.3762  0.8935
 8695TIP3    H247501   5.811   4.153   4.481  1.1312 -0.1535 -1.3890
 8696TIP3   OH247502   6.745   1.506   5.473 -0.2594  0.9716  0.3319
 8696TIP3    H147503   6.729   1.449   5.399  0.7019  2.2873 -0.9507
 8696TIP3    H247504   6.811   1.461   5.525 -1.9692 -0.6280  1.2189
 8697TIP3   OH247505   4.448   4.112  14.216 -0.0012  0.5742  0.3870
 8697TIP3    H147506   4.384   4.041  14.213  1.2154 -0.5807  0.6305
 8697TIP3    H247507   4.513   4.083  14.281  1.4127  1.1031 -0.7334
 8698TIP3   OH247508   2.279   2.401   3.434  0.1624  0.0779 -0.1657
 8698TIP3    H147509   2.344   2.386   3.503 -1.0534 -0.6674  0.8639
 8698TIP3    H247510   2.197   2.414   3.482 -1.0956 -2.3505 -1.4690
 8699TIP3   OH247511   0.736   5.610   0.678 -0.5080  0.2655 -0.4505
 8699TIP3    H147512   0.647   5.597   0.645  0.3964 -0.1579 -2.9123
 8699TIP3    H247513   0.724   5.639   0.769 -3.1179 -0.2829 -0.5496
 8700TIP3   OH247514   1.903   6.058   5.836 -0.3796  1.1457  0.0424
 8700TIP3    H147515   1.904   5.986   5.899 -0.1919  0.8353 -0.3105
 8700TIP3    H247516   1.979   6.042   5.780 -0.7829  1.1833 -0.5236
 8701TIP3   OH247517   5.895   2.493   0.238 -0.4029 -0.2947  0.4448
 8701TIP3    H147518   5.850   2.458   0.161 -0.5118 -1.8361  1.1687
 8701TIP3    H247519   5.944   2.419   0.273 -0.4460  0.3496  1.9401
 8702TIP3   OH247520   5.836   0.984  15.915  0.0324 -0.0501  0.0824
 8702TIP3    H147521   5.780   0.984  15.993 -1.7386 -0.5779 -1.1327
 8702TIP3    H247522   5.865   1.075  15.907  0.7152 -0.1018  1.6520
 8703TIP3   OH247523   4.695   1.392  17.090 -0.1947 -0.3439  0.0564
 8703TIP3    H147524   4.679   1.483  17.116 -0.6420  0.4472 -2.6769
 8703TIP3    H247525   4.760   1.360  17.152 -0.5381  1.6154  1.5011
 8704TIP3   OH247526   1.820   3.106  17.308  0.5402 -0.0804 -0.2248
 8704TIP3    H147527   1.777   3.093  17.393 -0.1183  1.5432 -0.2661
 8704TIP3    H247528   1.905   3.065  17.318 -0.7226 -2.8097  0.1007
 8705TIP3   OH247529   0.743   5.805   0.005 -0.1977 -0.8130  0.1608
 8705TIP3    H147530   0.741   5.752  -0.075 -1.6971  1.0269 -1.1211
 8705TIP3    H247531   0.834   5.832   0.014 -0.0264 -0.9233 -1.0311
 8706TIP3   OH247532   1.019   3.195  16.160 -0.1385 -0.0810  0.5660
 8706TIP3    H147533   0.938   3.238  16.133 -0.0802 -0.1756  0.2328
 8706TIP3    H247534   0.998   3.102  16.158  0.2081 -0.1465 -0.2973
 8707TIP3   OH247535   1.428   2.784   2.049 -0.0798  0.2409  0.1704
 8707TIP3    H147536   1.392   2.789   2.137  1.3274  2.0731  0.7124
 8707TIP3    H247537   1.477   2.866   2.039  2.6536 -1.4170 -1.0291
 8708TIP3   OH247538   4.797   5.765  15.369 -0.0429 -0.1620  0.3436
 8708TIP3    H147539   4.859   5.816  15.421  0.9199  0.0056 -0.9348
 8708TIP3    H247540   4.838   5.678  15.361  0.6236  0.2939 -1.4947
 8709TIP3   OH247541   4.220   4.058   1.500 -0.5338  0.3434  0.5784
 8709TIP3    H147542   4.226   4.152   1.514 -1.6207  0.4535  0.3736
 8709TIP3    H247543   4.166   4.027   1.573 -1.1550  0.0544  0.0073
 8710TIP3   OH247544   4.601   1.503   2.283 -0.3302  0.3546  0.4356
 8710TIP3    H147545   4.626   1.588   2.246 -0.5883  0.4188  0.4077
 8710TIP3    H247546   4.506   1.509   2.296 -0.2921  0.2181  0.8086
 8711TIP3   OH247547   0.976   3.474  15.414 -0.5699  0.0974  0.3098
 8711TIP3    H147548   0.960   3.386  15.449  1.0012 -1.3399 -2.2446
 8711TIP3    H247549   0.889   3.508  15.392 -1.1502 -1.1940  0.5113
 8712TIP3   OH247550   3.320   3.739  13.822 -0.4990 -0.6019 -0.7923
 8712TIP3    H147551   3.278   3.767  13.741 -0.1149 -0.5229 -0.9683
 8712TIP3    H247552   3.369   3.816  13.852 -2.0143 -0.0522  0.4554
 8713TIP3   OH247553   0.288   0.263   1.538  0.3889 -0.4959  0.1606
 8713TIP3    H147554   0.305   0.337   1.597 -1.2211 -0.3694  0.4894
 8713TIP3    H247555   0.288   0.186   1.595  1.9744 -0.7899 -0.1693
 8714TIP3   OH247556   2.591   5.788  13.574 -0.0669 -0.0579  0.1463
 8714TIP3    H147557   2.591   5.745  13.488  0.0907  0.2714 -0.0212
 8714TIP3    H247558   2.607   5.880  13.554 -2.2061  0.3956  0.3389
 8715TIP3   OH247559   0.792   5.557   5.654 -0.3870 -0.1519 -0.0210
 8715TIP3    H147560   0.784   5.467   5.687 -0.5140 -0.1536 -0.0535
 8715TIP3    H247561   0.752   5.611   5.722  0.6785 -0.0115  0.5143
 8716TIP3   OH247562   6.601   3.586  12.167 -0.5158  0.4515 -0.3009
 8716TIP3    H147563   6.663   3.523  12.205 -0.3106  0.5130 -0.5243
 8716TIP3    H247564   6.654   3.634  12.103 -1.0401 -0.2324 -1.2830
 8717TIP3   OH247565   2.947   1.312   1.714 -0.5742 -0.9455  0.0684
 8717TIP3    H147566   2.904   1.387   1.673  0.5657 -0.6889 -0.7313
 8717TIP3    H247567   2.901   1.236   1.678 -0.7890 -0.6660 -0.2555
 8718TIP3   OH247568   2.230   5.792   0.374 -0.4397 -0.6562  0.6422
 8718TIP3    H147569   2.158   5.818   0.432  0.8297  0.9544  1.6005
 8718TIP3    H247570   2.187   5.757   0.296 -2.3567  2.0379  0.3475
 8719TIP3   OH247571   1.737   1.938  15.639 -0.2398 -0.0017 -0.2224
 8719TIP3    H147572   1.706   1.884  15.566 -0.5155 -0.0051 -0.1051
 8719TIP3    H247573   1.694   2.023  15.626 -0.2929 -0.0036 -0.0606
 8720TIP3   OH247574   1.409   4.292   3.682 -0.3526 -0.4176 -0.5838
 8720TIP3    H147575   1.434   4.383   3.668  0.2572 -0.3273  0.8740
 8720TIP3    H247576   1.323   4.296   3.724 -1.2767 -0.6168 -2.3501
 8721TIP3   OH247577   2.604   3.124  12.929  0.3639 -0.5908 -0.1560
 8721TIP3    H147578   2.660   3.057  12.968  1.1619 -0.3083 -0.7725
 8721TIP3    H247579   2.537   3.075  12.881  0.3282 -0.9407  0.2480
 8722TIP3   OH247580   3.002   4.136  15.310 -0.2124  0.0254 -0.0057
 8722TIP3    H147581   3.081   4.189  15.318  0.3413 -0.4074 -2.0244
 8722TIP3    H247582   2.930   4.197  15.325  0.4676  0.7876  0.1817
 8723TIP3   OH247583   2.877   1.907   0.470 -0.2967  0.2283  0.4057
 8723TIP3    H147584   2.941   1.899   0.540 -0.3266  0.4338  0.4567
 8723TIP3    H247585   2.852   1.817   0.450  1.8502 -0.0776 -1.3237
 8724TIP3   OH247586   3.944   6.333  16.774 -0.2771 -0.0675  0.2520
 8724TIP3    H147587   3.952   6.367  16.685  1.4192  0.5624  0.6120
 8724TIP3    H247588   3.859   6.287  16.774 -0.6501  0.5287 -1.4569
 8725TIP3   OH247589   4.522   2.601   1.834 -0.1347 -0.1952  0.2584
 8725TIP3    H147590   4.549   2.510   1.838  0.7469  0.1116  1.9495
 8725TIP3    H247591   4.566   2.636   1.756  1.6192 -0.5746  1.0485
 8726TIP3   OH247592   6.611   2.875   4.489 -0.1151 -0.3683  0.1329
 8726TIP3    H147593   6.549   2.818   4.534  0.6350 -0.2509  1.3437
 8726TIP3    H247594   6.631   2.830   4.407 -1.8090 -0.3941 -0.3067
 8727TIP3   OH247595   4.597   3.099  12.133  0.4500  0.4140 -0.0538
 8727TIP3    H147596   4.555   3.185  12.125 -1.4129 -0.3701  0.8417
 8727TIP3    H247597   4.553   3.044  12.068  1.0591 -0.0876 -0.0533
 8728TIP3   OH247598   5.860   0.898  13.342  0.3027 -0.4633  0.3064
 8728TIP3    H147599   5.859   0.867  13.433  0.3520 -0.0103  0.4653
 8728TIP3    H247600   5.850   0.993  13.349  0.6962 -0.3844 -0.1457
 8729TIP3   OH247601   3.497   3.944  16.671  0.2795 -0.8007 -0.1759
 8729TIP3    H147602   3.426   3.885  16.699 -0.0030 -0.0182  0.8062
 8729TIP3    H247603   3.575   3.890  16.675 -0.1430 -1.4469 -0.4520
 8730TIP3   OH247604   2.680   4.647  14.030  0.0209 -0.7177  0.4943
 8730TIP3    H147605   2.771   4.620  14.040  0.0573 -0.5370  0.6474
 8730TIP3    H247606   2.660   4.632  13.937  0.8444  1.2070 -0.0377
 8731TIP3   OH247607   2.673   6.667   0.373 -0.0174  0.2946 -0.2082
 8731TIP3    H147608   2.630   6.590   0.410  0.0898  0.7677  0.9678
 8731TIP3    H247609   2.708   6.714   0.449 -0.5604  1.7881 -0.8256
 8732TIP3   OH247610   1.185   2.790   4.171  0.1076  0.1895 -0.6833
 8732TIP3    H147611   1.134   2.862   4.210 -0.3768 -0.3458 -0.2989
 8732TIP3    H247612   1.276   2.816   4.182 -0.0318  0.2440  0.4598
 8733TIP3   OH247613   4.164   0.891   5.571 -0.1716  0.3608  0.0444
 8733TIP3    H147614   4.125   0.806   5.549 -1.2327  0.5466  1.1385
 8733TIP3    H247615   4.102   0.932   5.631  0.9053  1.4150  0.4853
 8734TIP3   OH247616   6.611   1.222  13.595  0.7631 -0.3737 -0.3824
 8734TIP3    H147617   6.640   1.297  13.542 -1.0730  1.1310  0.6087
 8734TIP3    H247618   6.520   1.209  13.570 -1.6448  2.9983  4.7977
 8735TIP3   OH247619   0.055   3.709  13.332  0.1770  0.2193  0.2426
 8735TIP3    H147620   0.052   3.755  13.416 -0.2872  0.2478  0.2128
 8735TIP3    H247621  -0.022   3.652  13.333 -0.5631  1.1622 -0.6956
 8736TIP3   OH247622   3.587   4.182  15.572 -0.2871 -0.3519  0.4090
 8736TIP3    H147623   3.647   4.165  15.498  0.9327  0.4014  1.1894
 8736TIP3    H247624   3.641   4.227  15.637 -1.1617 -1.5319  2.0371
 8737TIP3   OH247625   3.314   0.751  15.083 -0.0225 -0.5015  0.0247
 8737TIP3    H147626   3.288   0.843  15.089  1.0825 -0.1932  0.3860
 8737TIP3    H247627   3.343   0.740  14.993  3.7817  0.6810  0.9045
 8738TIP3   OH247628   0.357   3.646  13.392  0.1642 -0.3098 -0.3206
 8738TIP3    H147629   0.283   3.659  13.333  0.0814  1.3955  0.1071
 8738TIP3    H247630   0.433   3.644  13.334  0.3043  3.3617 -0.4777
 8739TIP3   OH247631   2.781   3.611  12.090  0.3712  0.2248 -0.2403
 8739TIP3    H147632   2.807   3.703  12.088 -1.0886  0.6381 -2.3131
 8739TIP3    H247633   2.687   3.613  12.108  0.0140 -0.7476 -1.8245
 8740TIP3   OH247634   5.461   3.664  17.183  0.4732 -0.2437  0.4554
 8740TIP3    H147635   5.407   3.733  17.146  2.2281  0.5025 -0.8591
 8740TIP3    H247636   5.408   3.585  17.175 -1.2655  0.7826  1.2833
 8741TIP3   OH247637   2.364   0.682  13.271  0.2681 -0.3406  0.3375
 8741TIP3    H147638   2.408   0.631  13.339  1.6561  2.4645  1.7463
 8741TIP3    H247639   2.361   0.771  13.306 -0.3095  0.9738 -2.6881
 8742TIP3   OH247640   2.196   4.892  16.610 -0.4703  0.6009 -0.0309
 8742TIP3    H147641   2.177   4.815  16.663 -1.9812  0.1792 -1.1218
 8742TIP3    H247642   2.204   4.964  16.673  0.4096 -0.3353  0.9530
 8743TIP3   OH247643   5.090   0.030   1.819  0.5817 -0.7732 -0.3561
 8743TIP3    H147644   5.042  -0.032   1.874  0.9469  0.3847  1.3388
 8743TIP3    H247645   5.167  -0.018   1.790  0.3991 -1.3954  0.1728
 8744TIP3   OH247646   2.636   6.458  10.900  0.3712 -0.2083 -0.5753
 8744TIP3    H147647   2.678   6.461  10.814  0.1440 -0.1502 -0.6856
 8744TIP3    H247648   2.556   6.510  10.890 -1.0617 -2.3536 -1.0974
 8745TIP3   OH247649   0.784   2.554   0.170  0.2691 -0.4643 -0.5273
 8745TIP3    H147650   0.741   2.638   0.159  0.2116 -0.1618  1.5451
 8745TIP3    H247651   0.875   2.569   0.143 -0.0202 -0.0862 -1.3092
 8746TIP3   OH247652   1.183   2.295   6.169  0.6507  0.5848  0.0421
 8746TIP3    H147653   1.276   2.291   6.192  1.9271  1.7591 -4.0810
 8746TIP3    H247654   1.161   2.388   6.172 -0.8473  0.2453  2.0783
 8747TIP3   OH247655   4.185   4.824  12.900  0.1599  0.1842  0.0558
 8747TIP3    H147656   4.097   4.862  12.895  0.3832  1.0105  1.8452
 8747TIP3    H247657   4.243   4.893  12.869  0.3704  0.5443  1.2070
 8748TIP3   OH247658   6.303   6.408   6.120  0.1540  0.2115 -0.5410
 8748TIP3    H147659   6.247   6.383   6.047  2.1512  0.1269 -2.1290
 8748TIP3    H247660   6.291   6.339   6.185 -0.4562 -0.5727 -1.4721
 8749TIP3   OH247661   1.113   4.531   1.617  0.4853 -0.6444 -0.1782
 8749TIP3    H147662   1.026   4.568   1.600  0.4005 -1.3196 -1.3660
 8749TIP3    H247663   1.125   4.539   1.711 -1.4768 -1.7833  0.2242
 8750TIP3   OH247664   4.126   0.588   4.946  0.6593  0.4537  0.5136
 8750TIP3    H147665   4.147   0.680   4.961  0.6194  0.6638 -0.5961
 8750TIP3    H247666   4.206   0.551   4.908  0.4385  0.2197  0.2716
 8751TIP3   OH247667   0.687   2.065   2.777  0.0666 -0.4523  0.6248
 8751TIP3    H147668   0.614   2.104   2.825 -1.2739 -0.1880 -1.4892
 8751TIP3    H247669   0.734   2.140   2.739 -0.4507 -0.7182 -0.5827
 8752TIP3   OH247670   0.638   5.251  11.337  0.0491  0.5492  0.1836
 8752TIP3    H147671   0.723   5.242  11.381  0.4285  0.3412 -0.5813
 8752TIP3    H247672   0.646   5.199  11.258 -1.8195 -2.0434  1.5335
 8753TIP3   OH247673   6.016   3.729  14.914  0.4206 -0.1260  0.1329
 8753TIP3    H147674   6.083   3.788  14.950 -2.3282  3.4535 -0.1174
 8753TIP3    H247675   5.966   3.700  14.990  0.4938 -0.4394  0.0629
 8754TIP3   OH247676   5.420   0.636   2.677 -0.1304  0.2618  0.0684
 8754TIP3    H147677   5.386   0.634   2.767  0.7069  1.8339  0.4507
 8754TIP3    H247678   5.396   0.550   2.641 -2.5614  0.4619  0.9978
 8755TIP3   OH247679   3.585   3.009  13.649  0.2424 -0.1548 -0.3507
 8755TIP3    H147680   3.524   3.051  13.588  0.2151  0.4031  0.0577
 8755TIP3    H247681   3.530   2.971  13.717  0.3543  0.5465  0.1410
 8756TIP3   OH247682   3.523   3.527  12.616  0.1642 -0.1371 -0.0726
 8756TIP3    H147683   3.530   3.565  12.703  1.6396 -0.7319  0.1095
 8756TIP3    H247684   3.552   3.436  12.627  0.8096 -0.1062 -1.2393
 8757TIP3   OH247685   4.990   3.835  13.656 -0.3298 -0.2339 -0.2145
 8757TIP3    H147686   5.000   3.769  13.588  2.2998  0.2609 -0.4175
 8757TIP3    H247687   4.989   3.918  13.608  3.5114  0.2773  0.2377
 8758TIP3   OH247688   6.495   3.233   1.605 -0.4655 -0.0163  0.0250
 8758TIP3    H147689   6.472   3.154   1.556  0.1972  0.3759 -0.9344
 8758TIP3    H247690   6.556   3.203   1.672 -0.0166 -0.2854 -0.4985
 8759TIP3   OH247691   5.459   5.267  13.840  0.1456  0.7763  0.7200
 8759TIP3    H147692   5.481   5.175  13.850  0.6693  1.0303  2.3321
 8759TIP3    H247693   5.540   5.313  13.864 -0.3016  1.6602  0.5717
 8760TIP3   OH247694   4.716   0.587  17.066  0.6086 -0.2356  0.1117
 8760TIP3    H147695   4.628   0.553  17.051  1.1359 -1.7492  0.3214
 8760TIP3    H247696   4.739   0.632  16.985 -0.8542  1.3681  0.5317
 8761TIP3   OH247697   3.239   0.734   3.366  0.5636 -0.4555  0.0483
 8761TIP3    H147698   3.173   0.674   3.332 -0.5358  0.7041  0.0498
 8761TIP3    H247699   3.318   0.716   3.315 -0.0630 -1.1255 -0.6952
 8762TIP3   OH247700   4.984   0.488  16.778  0.1084 -0.1778  0.4305
 8762TIP3    H147701   4.928   0.410  16.782  1.4487 -1.2747 -1.0595
 8762TIP3    H247702   5.049   0.475  16.847  0.4475 -0.4716  0.0550
 8763TIP3   OH247703   3.286   5.795  10.487  0.3065  0.3703  0.0298
 8763TIP3    H147704   3.203   5.814  10.443  0.4978  2.1155  0.3435
 8763TIP3    H247705   3.349   5.784  10.415 -0.2006 -1.2313 -0.2194
 8764TIP3   OH247706   1.690   1.607  14.843 -0.0545 -0.3218 -0.0308
 8764TIP3    H147707   1.767   1.658  14.820 -0.6690  1.6009  1.8592
 8764TIP3    H247708   1.618   1.645  14.792 -0.5345  0.8887  1.4630
 8765TIP3   OH247709   2.745   5.204   5.052  0.0392  0.1672  0.6329
 8765TIP3    H147710   2.820   5.207   5.112  0.1371  0.1679  0.5098
 8765TIP3    H247711   2.783   5.216   4.965 -0.2296  1.4488  0.6638
 8766TIP3   OH247712   6.536   3.145  10.516  0.1420  0.0034  0.4924
 8766TIP3    H147713   6.465   3.115  10.573  0.5283 -0.7922  0.5596
 8766TIP3    H247714   6.595   3.071  10.510  0.4241  0.2950 -0.4553
 8767TIP3   OH247715   6.412   5.447  12.303  0.5489 -0.4766 -0.2484
 8767TIP3    H147716   6.402   5.468  12.210 -0.8212  1.8277  0.3203
 8767TIP3    H247717   6.492   5.395  12.309  2.1352  1.5433 -2.4107
 8768TIP3   OH247718   0.978   1.822   2.021  0.3281  0.2793 -0.2812
 8768TIP3    H147719   0.972   1.901   2.075  0.3644  1.1929 -1.5674
 8768TIP3    H247720   0.915   1.762   2.061 -1.3681  1.7696 -0.5477
 8769TIP3   OH247721   6.116   6.157  16.217 -0.3533  0.0760 -0.1182
 8769TIP3    H147722   6.142   6.242  16.181 -0.9354  0.0130 -0.7275
 8769TIP3    H247723   6.074   6.112  16.143  0.4254 -0.9534  0.0518
 8770TIP3   OH247724   3.935   3.507  15.368  0.9843  0.0883 -0.0975
 8770TIP3    H147725   4.029   3.524  15.362  0.7409  1.1752 -1.0910
 8770TIP3    H247726   3.902   3.525  15.280 -0.1073 -0.6183  0.1554
 8771TIP3   OH247727   4.272   6.052   4.094  0.0714  0.2963  0.2800
 8771TIP3    H147728   4.215   6.121   4.129  0.0990  1.5557 -1.9264
 8771TIP3    H247729   4.324   6.097   4.027  0.2430 -1.8247 -1.0906
 8772TIP3   OH247730   1.692   1.535  15.742  0.2297 -0.0297  0.2858
 8772TIP3    H147731   1.674   1.501  15.654  0.0777  0.5616  0.0812
 8772TIP3    H247732   1.668   1.463  15.801 -1.1354  0.0923 -0.0801
 8773TIP3   OH247733   3.474   3.266  11.591 -0.0865  0.4614  0.4013
 8773TIP3    H147734   3.512   3.255  11.504 -0.6627  1.3813  0.0261
 8773TIP3    H247735   3.383   3.238  11.582 -0.2763  1.0003  0.5858
 8774TIP3   OH247736   2.338   1.468  15.209  0.2139 -0.2227  0.0128
 8774TIP3    H147737   2.244   1.450  15.208  0.1226  0.1872 -1.6697
 8774TIP3    H247738   2.371   1.418  15.283 -0.9545 -2.3926 -0.8519
 8775TIP3   OH247739   3.952   0.955   4.276  0.0481  0.6811  0.0590
 8775TIP3    H147740   3.917   1.019   4.214  2.0478  0.6280 -1.2164
 8775TIP3    H247741   3.893   0.960   4.351 -2.0711  1.2224 -1.5567
 8776TIP3   OH247742   4.710   4.701  16.028  0.9302 -0.1844  0.4516
 8776TIP3    H147743   4.632   4.737  15.985  2.0547  0.4076 -1.1798
 8776TIP3    H247744   4.690   4.608  16.038 -1.1259  0.3909  2.7385
 8777TIP3   OH247745   1.889   3.254   5.805  0.1491 -0.2985  0.4901
 8777TIP3    H147746   1.850   3.339   5.784  0.8273 -0.0799  0.0780
 8777TIP3    H247747   1.821   3.207   5.853 -0.2342  0.4732  0.7130
 8778TIP3   OH247748   5.151   6.050   3.991 -0.4658  0.2105 -0.4577
 8778TIP3    H147749   5.114   6.139   3.986 -0.3480  0.3244  0.5219
 8778TIP3    H247750   5.155   6.031   4.084  1.4376 -0.0142 -0.5342
 8779TIP3   OH247751   0.502   3.821  14.238  0.3477  0.3167  0.3879
 8779TIP3    H147752   0.433   3.796  14.176 -0.0350  2.0507  0.0548
 8779TIP3    H247753   0.541   3.738  14.265 -2.8898 -0.9048  1.8271
 8780TIP3   OH247754   0.265   6.421  14.482  0.4607 -0.2148 -0.3548
 8780TIP3    H147755   0.202   6.427  14.410 -0.7448  0.6979  0.7148
 8780TIP3    H247756   0.350   6.417  14.440 -0.3183 -1.7428 -1.8604
 8781TIP3   OH247757   1.886   1.250   6.432 -0.3415  0.2232 -0.0872
 8781TIP3    H147758   1.800   1.276   6.467 -1.0099 -0.6201 -1.0481
 8781TIP3    H247759   1.907   1.169   6.478 -0.1564  0.3213  0.0006
 8782TIP3   OH247760   0.172   4.563   0.104  0.6879  0.3224 -0.1086
 8782TIP3    H147761   0.092   4.514   0.087  0.5746 -0.2443  1.7984
 8782TIP3    H247762   0.227   4.502   0.154  0.0833  2.3972  3.3970
 8783TIP3   OH247763   0.875   1.864  12.123  0.5052  0.1491  0.1243
 8783TIP3    H147764   0.805   1.844  12.060 -0.4963 -0.6639  1.4423
 8783TIP3    H247765   0.916   1.780  12.141  1.5635  0.5525 -0.2777
 8784TIP3   OH247766   1.395   6.708   3.628 -0.5102 -0.2464 -0.4813
 8784TIP3    H147767   1.307   6.694   3.664 -0.6134  0.8065 -0.3042
 8784TIP3    H247768   1.453   6.661   3.688 -1.0758 -2.5042 -1.5958
 8785TIP3   OH247769   3.858   1.089   2.856  0.4154  0.2289 -0.9572
 8785TIP3    H147770   3.894   1.160   2.803  0.9643 -0.2868 -1.2916
 8785TIP3    H247771   3.765   1.087   2.833  0.4340  0.7156 -1.0837
 8786TIP3   OH247772   2.228   1.223   5.903  0.2140  0.0311  0.5605
 8786TIP3    H147773   2.196   1.214   5.993 -0.8266 -0.4655  0.1604
 8786TIP3    H247774   2.153   1.200   5.849  1.1579 -0.8005 -0.4333
 8787TIP3   OH247775   6.659   0.859   6.546  0.3127  0.7155 -0.7806
 8787TIP3    H147776   6.683   0.938   6.498  0.1875  0.7250 -0.8293
 8787TIP3    H247777   6.741   0.813   6.562  0.3261  0.5806 -1.2381
 8788TIP3   OH247778   1.808   4.251   4.257  0.4891 -0.5181 -0.0987
 8788TIP3    H147779   1.809   4.347   4.251 -1.4486 -0.3425  1.1650
 8788TIP3    H247780   1.831   4.221   4.169 -2.1251  1.1959 -1.5127
 8789TIP3   OH247781   0.132   1.383  13.865  0.1319  0.1156  0.4907
 8789TIP3    H147782   0.164   1.326  13.795 -1.9937 -0.7508  0.1422
 8789TIP3    H247783   0.137   1.471  13.828  2.2377  0.0802  0.5603
 8790TIP3   OH247784   4.487   3.711  15.716  0.1346  0.0331  0.6993
 8790TIP3    H147785   4.422   3.775  15.745 -1.5786 -1.5601  0.5672
 8790TIP3    H247786   4.454   3.681  15.631  1.2371 -0.5909  0.4745
 8791TIP3   OH247787   1.042   6.047  13.602 -0.2017 -0.6638  0.0695
 8791TIP3    H147788   1.020   6.069  13.693  0.3416  2.8445 -0.5281
 8791TIP3    H247789   1.067   5.954  13.606 -2.9769 -1.4594  2.9194
 8792TIP3   OH247790   3.800   6.250   3.030 -0.5069 -0.0703  0.5403
 8792TIP3    H147791   3.894   6.232   3.029 -0.4143  0.2883  1.4271
 8792TIP3    H247792   3.772   6.240   2.939  0.5579  0.6837  0.1072
 8793TIP3   OH247793   4.798   2.140  14.539  0.3024  0.4794 -0.3028
 8793TIP3    H147794   4.889   2.110  14.542  0.3945  0.6834 -0.9188
 8793TIP3    H247795   4.751   2.078  14.596  0.6945 -0.1049 -0.5982
 8794TIP3   OH247796   5.922   5.390   1.296  0.8243 -0.4829 -0.0213
 8794TIP3    H147797   5.981   5.436   1.355  1.1516  2.4254 -2.3749
 8794TIP3    H247798   5.867   5.458   1.259 -1.2417 -2.5599 -1.0099
 8795TIP3   OH247799   5.513   5.749   3.711  1.1908 -0.0927  0.0046
 8795TIP3    H147800   5.477   5.824   3.758 -1.8195 -0.6742 -1.1363
 8795TIP3    H247801   5.586   5.785   3.660  1.8789  1.3333  1.8680
 8796TIP3   OH247802   4.291   0.179  14.794 -0.2025 -0.7474  0.2186
 8796TIP3    H147803   4.348   0.247  14.830 -1.3750  0.6164 -0.4390
 8796TIP3    H247804   4.342   0.098  14.805  1.6570  0.3368  0.0908
 8797TIP3   OH247805   3.556   6.545   5.542 -0.1933 -0.1556 -0.4451
 8797TIP3    H147806   3.505   6.479   5.589 -1.0107 -0.3029 -1.5279
 8797TIP3    H247807   3.644   6.537   5.580 -0.3409 -1.6607 -0.3496
 8798TIP3   OH247808   4.500   5.278  11.084 -0.1528  0.3721 -0.3529
 8798TIP3    H147809   4.585   5.235  11.093  1.0034  2.8162  1.9960
 8798TIP3    H247810   4.486   5.284  10.990  1.6370 -1.2497 -0.7941
 8799TIP3   OH247811   2.355   0.911   3.706 -0.0537  0.8845  0.3669
 8799TIP3    H147812   2.265   0.921   3.737 -0.3825  2.9639 -1.0277
 8799TIP3    H247813   2.409   0.913   3.785 -1.0920  1.9029  1.0825
 8800TIP3   OH247814   0.874   0.239  16.273  1.2347  0.0062  0.2622
 8800TIP3    H147815   0.901   0.149  16.255  0.1927  0.0168 -1.5991
 8800TIP3    H247816   0.784   0.244  16.242  0.9174  1.4196  1.3243
 8801TIP3   OH247817   6.169   3.357   2.471 -0.3930  0.0337  0.1078
 8801TIP3    H147818   6.166   3.445   2.508 -0.3852  0.0755  0.0089
 8801TIP3    H247819   6.077   3.337   2.451 -0.3383  0.2172 -0.3339
 8802TIP3   OH247820   2.019   4.060   4.945 -0.5971 -0.3180  0.0091
 8802TIP3    H147821   1.975   4.126   4.999  0.5199 -0.5049  1.2187
 8802TIP3    H247822   1.964   4.051   4.867 -2.0505  0.2862  0.9195
 8803TIP3   OH247823   1.570   3.164  11.486 -0.0318  0.1859  0.3195
 8803TIP3    H147824   1.500   3.102  11.466  0.0090  0.1106  0.4113
 8803TIP3    H247825   1.543   3.205  11.569 -0.3354  0.6927 -0.0237
 8804TIP3   OH247826   2.019   1.959  16.258 -0.4095  0.2934 -0.2940
 8804TIP3    H147827   1.968   1.883  16.231  1.6925 -1.6553  0.9175
 8804TIP3    H247828   1.997   1.971  16.350  0.8235 -0.2002  0.0829
 8805TIP3   OH247829   1.541   4.577   2.720  0.0400  0.1512  0.1463
 8805TIP3    H147830   1.457   4.613   2.689 -0.6966 -0.8691  0.8891
 8805TIP3    H247831   1.551   4.612   2.808 -0.5065 -1.1093  0.7382
 8806TIP3   OH247832   1.528   1.458   5.995  0.4294 -0.0797  0.4978
 8806TIP3    H147833   1.563   1.445   6.083  1.2169  0.2974  0.2584
 8806TIP3    H247834   1.606   1.474   5.941 -0.1272  0.9743 -0.0262
 8807TIP3   OH247835   6.430   1.697   4.287 -0.2258  0.4544 -0.2806
 8807TIP3    H147836   6.512   1.650   4.304 -0.1473  0.5017 -0.5267
 8807TIP3    H247837   6.458   1.779   4.245 -0.1321  1.9569  2.4673
 8808TIP3   OH247838   3.231   1.617   3.811 -0.2496  0.2598  0.2086
 8808TIP3    H147839   3.305   1.576   3.766 -0.5116  0.1618 -0.1324
 8808TIP3    H247840   3.271   1.659   3.888  0.0294 -0.5724  0.5286
 8809TIP3   OH247841   1.444   0.615  17.264  0.0087 -0.1019  0.1303
 8809TIP3    H147842   1.435   0.522  17.245  1.7181 -0.2008 -0.3956
 8809TIP3    H247843   1.419   0.623  17.356 -0.7862 -0.9462  0.0060
 8810TIP3   OH247844   3.238   1.135  17.298 -0.4909 -0.2186  0.2959
 8810TIP3    H147845   3.314   1.192  17.290 -2.2203  2.2572  0.2039
 8810TIP3    H247846   3.213   1.116  17.208  0.0180 -1.0769  0.3263
 8811TIP3   OH247847   4.412   1.344   0.915  0.4360 -0.5269  0.6435
 8811TIP3    H147848   4.494   1.366   0.871  0.3467  0.3752  0.9182
 8811TIP3    H247849   4.344   1.373   0.855  0.2956  1.8552  1.8620
 8812TIP3   OH247850   3.344   1.701   5.270  0.0650  0.3888  0.7942
 8812TIP3    H147851   3.318   1.617   5.233 -0.3577 -0.2970  2.5283
 8812TIP3    H247852   3.362   1.756   5.195  0.6293 -1.3389 -0.4007
 8813TIP3   OH247853   1.278   0.405  13.747 -0.0397 -0.6734  0.4929
 8813TIP3    H147854   1.285   0.402  13.652 -0.5948 -1.2806  0.4652
 8813TIP3    H247855   1.350   0.463  13.774 -0.8353  0.7870 -0.3927
 8814TIP3   OH247856   0.204   0.122   6.561  0.0256 -0.4879 -0.2557
 8814TIP3    H147857   0.242   0.209   6.564 -0.6310 -0.1654 -1.0947
 8814TIP3    H247858   0.159   0.113   6.646  2.5696 -1.1989  1.1126
 8815TIP3   OH247859   4.565   6.593   3.348 -0.0395  0.3775  0.1347
 8815TIP3    H147860   4.606   6.617   3.265 -0.1453 -1.1827 -0.3947
 8815TIP3    H247861   4.631   6.539   3.393 -1.0911 -1.3171 -0.2865
 8816TIP3   OH247862   0.279   0.562   1.967 -0.1391  0.3434  0.3894
 8816TIP3    H147863   0.315   0.571   2.056  4.3385 -3.7186 -0.5895
 8816TIP3    H247864   0.188   0.537   1.981 -0.2049  1.8191  3.6645
 8817TIP3   OH247865   4.467   3.491   2.851 -0.0946  0.0849 -0.0094
 8817TIP3    H147866   4.478   3.573   2.803  2.1558  0.9639  1.7923
 8817TIP3    H247867   4.527   3.430   2.807 -0.4650 -0.0759 -0.2911
 8818TIP3   OH247868   0.154   5.797   3.520  0.9153 -0.0610 -0.4408
 8818TIP3    H147869   0.073   5.842   3.497  0.5286 -0.4484  0.1185
 8818TIP3    H247870   0.172   5.824   3.610  0.6331 -1.0691 -0.0683
 8819TIP3   OH247871   5.577   2.676   0.732  0.4229 -0.1990  0.0568
 8819TIP3    H147872   5.617   2.744   0.677  0.9746 -0.6345 -0.0935
 8819TIP3    H247873   5.533   2.724   0.802  1.8305  0.2838  0.6437
 8820TIP3   OH247874   5.878   0.542   3.887  0.4485 -0.2225  0.3665
 8820TIP3    H147875   5.834   0.458   3.893 -0.9376  0.5441  1.3532
 8820TIP3    H247876   5.808   0.607   3.882  1.4759  0.9076 -0.2495
 8821TIP3   OH247877   0.041   0.830  16.266 -0.2053  0.0603  0.0902
 8821TIP3    H147878   0.087   0.753  16.298  0.9274  0.5943 -0.2137
 8821TIP3    H247879   0.052   0.895  16.336  4.6851  2.1993 -2.1982
 8822TIP3   OH247880   2.972   2.578  14.270  0.4099  0.2449  0.2823
 8822TIP3    H147881   2.897   2.627  14.302 -0.3441  0.2034 -1.3313
 8822TIP3    H247882   2.986   2.509  14.336  0.0343  1.1875  1.3774
 8823TIP3   OH247883   3.750   0.138   2.035 -0.0671 -0.1422  0.5089
 8823TIP3    H147884   3.730   0.062   2.088  2.5484 -0.2889  1.4386
 8823TIP3    H247885   3.777   0.205   2.097 -2.8169  1.8560 -0.2304
 8824TIP3   OH247886   2.287   1.909   4.135 -0.7184 -0.2112  0.0042
 8824TIP3    H147887   2.192   1.903   4.125 -1.0594 -1.6701  3.0532
 8824TIP3    H247888   2.317   1.818   4.138  0.7725  0.2242 -0.7229
 8825TIP3   OH247889   4.035   5.197  11.286  0.3135 -0.5156 -0.4401
 8825TIP3    H147890   4.049   5.258  11.213 -0.4984 -0.9404 -0.9734
 8825TIP3    H247891   4.082   5.118  11.261 -2.0611 -1.6248 -1.8173
 8826TIP3   OH247892   6.441   4.235  14.903 -0.2412  0.4841 -0.2614
 8826TIP3    H147893   6.354   4.199  14.918  1.1381 -2.5064  1.4145
 8826TIP3    H247894   6.473   4.189  14.826  0.9061 -0.7215  0.8879
 8827TIP3   OH247895   5.298   2.857   0.028  0.1808 -0.2568  0.4596
 8827TIP3    H147896   5.278   2.937   0.076 -4.0508 -1.3124  0.9086
 8827TIP3    H247897   5.245   2.863  -0.052  0.5163 -2.1523  0.0326
 8828TIP3   OH247898   6.456   3.509   2.042 -0.2417  0.0188 -0.1150
 8828TIP3    H147899   6.394   3.579   2.024 -0.2165  0.2897  0.7727
 8828TIP3    H247900   6.437   3.442   1.977 -0.0280  0.9910 -1.2156
 8829TIP3   OH247901   3.374   2.325  13.255 -0.2167 -0.2188 -0.1636
 8829TIP3    H147902   3.381   2.284  13.341 -0.3725  0.7113  0.2952
 8829TIP3    H247903   3.286   2.362  13.254  0.3918  1.2769 -0.0451
 8830TIP3   OH247904   2.109   1.517   1.136 -0.3103 -0.4706 -0.1840
 8830TIP3    H147905   2.037   1.467   1.098  0.6098 -2.3946  0.4975
 8830TIP3    H247906   2.145   1.460   1.204  1.2087  0.8716  0.2039
 8831TIP3   OH247907   4.960   2.560  12.927  0.0628 -0.1324  0.5216
 8831TIP3    H147908   5.015   2.632  12.894  0.5133 -0.7553 -0.1074
 8831TIP3    H247909   4.872   2.582  12.896 -0.0689  0.8515  1.5074
 8832TIP3   OH247910   4.618   4.006  15.563 -0.6254 -0.2864 -0.5347
 8832TIP3    H147911   4.558   3.934  15.541 -1.6390  0.4628 -0.3277
 8832TIP3    H247912   4.659   3.978  15.645 -2.3070  0.0850  0.4956
 8833TIP3   OH247913   0.725   5.953  13.426 -0.3423  0.1978  0.3393
 8833TIP3    H147914   0.679   6.003  13.493 -1.2421 -1.5093  1.0664
 8833TIP3    H247915   0.692   5.864  13.436  1.2402 -0.5734 -0.8517
 8834TIP3   OH247916   0.343   2.528  14.112  0.0950 -0.2595  0.2198
 8834TIP3    H147917   0.276   2.472  14.150 -0.0470  0.4865  1.0964
 8834TIP3    H247918   0.328   2.614  14.151  0.0351  0.5130 -1.3968
 8835TIP3   OH247919   1.881   2.761  14.808  0.4063 -0.1316 -0.1632
 8835TIP3    H147920   1.822   2.823  14.766 -0.7403 -0.9958  0.1523
 8835TIP3    H247921   1.879   2.785  14.900  0.1912 -0.4569 -0.0846
 8836TIP3   OH247922   2.167   3.010  16.603  0.3011  0.0591 -0.5949
 8836TIP3    H147923   2.130   2.934  16.557 -1.1202  1.0164 -1.1053
 8836TIP3    H247924   2.173   3.078  16.536 -2.6709  1.7786  0.6760
 8837TIP3   OH247925   5.056   5.440  11.573 -0.1777 -0.0296  0.6588
 8837TIP3    H147926   5.032   5.519  11.524 -0.7480 -0.6410 -0.0686
 8837TIP3    H247927   4.975   5.390  11.578  0.3958 -1.0066  0.2918
 8838TIP3   OH247928   6.428   0.765   2.277  0.1021 -0.5679 -0.3609
 8838TIP3    H147929   6.430   0.855   2.308  2.3707 -0.7515  0.2129
 8838TIP3    H247930   6.451   0.772   2.184  0.9023 -0.5833 -0.1703
 8839TIP3   OH247931   0.465   1.457  15.802  0.3538 -0.0668 -0.1835
 8839TIP3    H147932   0.456   1.395  15.874 -1.5784  0.6748  0.2807
 8839TIP3    H247933   0.402   1.428  15.736  0.5355  0.4980 -0.6170
 8840TIP3   OH247934   4.947   6.507   2.204 -0.4062  0.1221  0.0077
 8840TIP3    H147935   4.896   6.445   2.256 -0.9439  0.9830  0.5167
 8840TIP3    H247936   4.991   6.562   2.268  0.5283 -0.0852 -0.4411
 8841TIP3   OH247937   0.580   6.262   5.837  0.0538 -0.3327 -0.8522
 8841TIP3    H147938   0.512   6.327   5.857 -0.1722  0.2226 -3.1075
 8841TIP3    H247939   0.652   6.314   5.800  0.9068 -1.1243 -0.3379
 8842TIP3   OH247940   4.058   0.142   3.362  0.6451 -0.1862 -0.5621
 8842TIP3    H147941   4.066   0.236   3.345 -0.0338  0.4959  2.3805
 8842TIP3    H247942   3.978   0.134   3.414 -0.5123 -2.7234 -2.5509
 8843TIP3   OH247943   4.429   5.625  12.633 -0.6082  0.7088  0.2481
 8843TIP3    H147944   4.434   5.709  12.678  2.0032  1.2278 -0.8655
 8843TIP3    H247945   4.475   5.564  12.692  2.6706  1.3573 -1.4030
 8844TIP3   OH247946   0.701   2.060   3.338 -0.2219  0.0311 -0.0066
 8844TIP3    H147947   0.779   2.077   3.285  1.1189 -1.8158  1.2536
 8844TIP3    H247948   0.676   1.970   3.317 -1.6756  0.4011  0.0445
 8845TIP3   OH247949   3.361   1.454  15.971  0.2382 -0.2253  0.4752
 8845TIP3    H147950   3.358   1.539  16.014 -0.0691  0.2201 -0.4078
 8845TIP3    H247951   3.372   1.474  15.878 -0.1496 -1.1384  0.2200
 8846TIP3   OH247952   4.942   5.805   3.934  0.3877  0.0435  0.2126
 8846TIP3    H147953   4.896   5.856   4.000  0.8238 -0.2270  0.7320
 8846TIP3    H247954   4.971   5.869   3.870  0.5705  0.3963  0.6474
 8847TIP3   OH247955   0.672   1.745  17.297 -0.1787 -0.0100 -0.3324
 8847TIP3    H147956   0.629   1.829  17.313  0.4474 -0.0126  1.7887
 8847TIP3    H247957   0.759   1.769  17.265 -0.5510  0.0949 -1.2776
 8848TIP3   OH247958   2.508   0.430   1.409 -0.2154 -0.2073 -0.4169
 8848TIP3    H147959   2.464   0.346   1.408 -1.8606  0.5793  1.1077
 8848TIP3    H247960   2.438   0.495   1.404  0.9418  1.0908 -0.6567
 8849TIP3   OH247961   4.231   4.387   0.248  0.0090  0.5338 -0.1814
 8849TIP3    H147962   4.207   4.370   0.157  1.1045 -0.8064 -0.2487
 8849TIP3    H247963   4.160   4.441   0.282 -2.2100 -1.8462 -0.8260
 8850TIP3   OH247964   6.126   0.829  13.226  0.1605  0.3963 -0.6983
 8850TIP3    H147965   6.032   0.850  13.225  0.0215 -0.1986 -0.6637
 8850TIP3    H247966   6.134   0.754  13.167  0.2623 -0.9752  0.9956
 8851TIP3   OH247967   0.851   6.348  16.180 -0.5310 -0.7200 -0.1712
 8851TIP3    H147968   0.891   6.384  16.101 -1.1737  0.6313  0.0893
 8851TIP3    H247969   0.770   6.397  16.191  0.0086 -0.1888  1.8658
 8852TIP3   OH247970   1.225   3.628   5.638  0.2312  0.3330 -0.0080
 8852TIP3    H147971   1.163   3.560   5.613 -0.1657  1.1189 -1.3006
 8852TIP3    H247972   1.204   3.649   5.729 -0.3985 -0.4495  0.0342
 8853TIP3   OH247973   1.279   1.862   2.433  0.5245  0.0271  0.6123
 8853TIP3    H147974   1.215   1.802   2.396 -0.1040  0.3175  1.2004
 8853TIP3    H247975   1.298   1.826   2.520  0.4971  0.4137  0.7811
 8854TIP3   OH247976   6.097   0.747   4.871 -0.4553 -0.0742  0.3546
 8854TIP3    H147977   6.094   0.779   4.961 -0.6911  1.0595 -0.0384
 8854TIP3    H247978   6.150   0.811   4.824  0.6608 -1.2792 -0.0914
 8855TIP3   OH247979   5.462   5.590  14.369  0.0967 -0.7237 -0.2627
 8855TIP3    H147980   5.467   5.496  14.390  0.7481 -0.2838  1.8001
 8855TIP3    H247981   5.527   5.601  14.299  0.4658 -1.7170 -0.1062
 8856TIP3   OH247982   4.399   5.431   3.758 -0.7565 -0.3938  0.5877
 8856TIP3    H147983   4.449   5.490   3.701 -0.5141  1.0421  2.1919
 8856TIP3    H247984   4.318   5.415   3.710 -0.4326  0.5171 -0.3100
 8857TIP3   OH247985   6.062   1.333   1.578  0.2923 -0.1449 -0.2878
 8857TIP3    H147986   6.088   1.284   1.655  1.3266  0.5141 -0.1864
 8857TIP3    H247987   6.033   1.418   1.612  0.8294  0.1789 -0.6098
 8858TIP3   OH247988   6.692   2.424   1.549  0.3763 -0.0191  0.4374
 8858TIP3    H147989   6.779   2.396   1.520  0.5843  0.9847  0.0378
 8858TIP3    H247990   6.649   2.455   1.469  0.6801  2.0804  1.0313
 8859TIP3   OH247991   6.254   1.808  11.594 -0.0192 -0.5469 -0.3554
 8859TIP3    H147992   6.229   1.716  11.601 -0.6006 -0.6942 -3.0776
 8859TIP3    H247993   6.340   1.807  11.552 -1.3241  0.0638 -3.3266
 8860TIP3   OH247994   2.886   3.116   1.784 -0.2571  0.1849  0.1603
 8860TIP3    H147995   2.800   3.124   1.825 -0.5367 -0.3360 -0.3165
 8860TIP3    H247996   2.871   3.141   1.693  0.2680  0.8851  0.2548
 8861TIP3   OH247997   0.311   2.817   4.801  0.0528  0.6395 -0.1849
 8861TIP3    H147998   0.406   2.827   4.803  0.4156 -2.0455 -0.1848
 8861TIP3    H247999   0.295   2.732   4.843 -2.7005  2.6661  3.5687
 8862TIP3   OH248000   2.805   6.363   6.610  0.5586 -0.5550  0.4180
 8862TIP3    H148001   2.792   6.457   6.619  0.6762 -0.6110  1.2267
 8862TIP3    H248002   2.786   6.345   6.518 -2.4687 -0.2346  0.8858
 8863TIP3   OH248003   5.263   5.942   1.040  0.8361 -0.3317  0.0965
 8863TIP3    H148004   5.303   5.932   1.126  0.9311  1.1747  0.2621
 8863TIP3    H248005   5.320   6.004   0.995 -1.1576  1.7701  0.2824
 8864TIP3   OH248006   1.677   5.090   2.888  0.5377  0.6145  0.1807
 8864TIP3    H148007   1.603   5.051   2.841  0.1940  0.3199  0.9628
 8864TIP3    H248008   1.706   5.161   2.831 -0.2787  0.6663 -0.1800
 8865TIP3   OH248009   4.273   4.701   4.424 -0.5802  0.0277  0.4363
 8865TIP3    H148010   4.231   4.710   4.338  0.4863 -0.4079 -0.1459
 8865TIP3    H248011   4.201   4.679   4.483 -1.0995 -1.4827 -0.6715
 8866TIP3   OH248012   5.576   2.253   1.930  0.0525 -0.6255 -0.2077
 8866TIP3    H148013   5.647   2.313   1.955 -1.5023  0.4709  2.0530
 8866TIP3    H248014   5.496   2.306   1.941 -1.3367 -2.8095  1.0038
 8867TIP3   OH248015   4.490   0.002  15.048 -0.4320  0.1084  0.6286
 8867TIP3    H148016   4.510   0.015  15.141 -0.3279  0.8435  0.5122
 8867TIP3    H248017   4.572  -0.026  15.009 -0.4416 -0.0689  0.7356
 8868TIP3   OH248018   5.558   3.848  12.232 -0.1917 -0.2777  0.2585
 8868TIP3    H148019   5.634   3.904  12.215  0.6553 -1.3019  0.5379
 8868TIP3    H248020   5.540   3.861  12.325  0.5717 -1.1303  0.5348
 8869TIP3   OH248021   1.954   1.376  13.759 -0.3239 -0.1869  0.2465
 8869TIP3    H148022   2.022   1.424  13.806 -0.3932 -2.4083  2.8481
 8869TIP3    H248023   1.872   1.402  13.801 -0.6498 -0.5050 -0.1766
 8870TIP3   OH248024   0.636   5.707  14.679 -0.4393  0.0580 -0.0446
 8870TIP3    H148025   0.590   5.758  14.745 -2.2838 -2.3997  0.7352
 8870TIP3    H248026   0.621   5.753  14.597 -0.8514  1.4620  0.7934
 8871TIP3   OH248027   2.489   0.676   0.117 -0.3832  0.1898 -0.2536
 8871TIP3    H148028   2.483   0.698   0.210 -3.1336 -0.7963 -0.1249
 8871TIP3    H248029   2.547   0.600   0.114  0.1890  0.5744  0.5491
 8872TIP3   OH248030   1.079   0.935  14.889 -0.5433 -0.0349 -0.0981
 8872TIP3    H148031   1.142   1.006  14.901  1.9009 -2.3521  2.3958
 8872TIP3    H248032   1.027   0.934  14.969 -0.9591 -0.6592 -0.3621
 8873TIP3   OH248033   1.545   1.073   2.688 -0.3577 -0.3017  0.1000
 8873TIP3    H148034   1.457   1.083   2.723  0.0830 -0.4636  1.3273
 8873TIP3    H248035   1.555   0.978   2.676 -1.8385 -0.1235 -4.2281
 8874TIP3   OH248036   2.180   3.432   0.110 -0.5767  0.2315 -0.3730
 8874TIP3    H148037   2.092   3.410   0.082 -0.6108 -2.2535  1.3502
 8874TIP3    H248038   2.236   3.414   0.034 -1.4017  0.8665 -1.1493
 8875TIP3   OH248039   1.228   0.283   1.451  0.3315 -0.4591 -0.8185
 8875TIP3    H148040   1.252   0.247   1.536  0.0413 -0.5577 -0.7776
 8875TIP3    H248041   1.186   0.367   1.471 -0.3990 -0.8160 -0.8129
 8876TIP3   OH248042   0.353   3.646   0.702 -0.1773  0.3878 -0.4217
 8876TIP3    H148043   0.330   3.626   0.793 -1.9689  1.0953 -0.6637
 8876TIP3    H248044   0.445   3.672   0.705  0.2408 -1.1038  0.9302
 8877TIP3   OH248045   4.432   0.438  14.477 -0.3990  0.0918 -0.5519
 8877TIP3    H148046   4.345   0.454  14.515 -0.1056 -2.4923  1.4591
 8877TIP3    H248047   4.418   0.446  14.383 -2.7280  0.1802 -0.2609
 8878TIP3   OH248048   0.491   2.003   1.280  0.1244 -0.1129 -0.0170
 8878TIP3    H148049   0.429   1.937   1.310  0.6436 -0.3032  0.6882
 8878TIP3    H248050   0.575   1.957   1.278  0.3215  0.2610 -0.5024
 8879TIP3   OH248051   3.618   5.314  12.763 -0.6776 -0.3357 -0.2460
 8879TIP3    H148052   3.653   5.251  12.700  1.0905 -0.2616  0.6019
 8879TIP3    H248053   3.655   5.398  12.736 -1.3518 -0.0000 -0.1484
 8880TIP3   OH248054   4.182   0.612   3.109  0.1651  0.6675 -0.2475
 8880TIP3    H148055   4.214   0.554   3.040 -1.6032  0.2882 -0.7992
 8880TIP3    H248056   4.171   0.697   3.067 -1.9343  0.1808 -0.7637
 8881TIP3   OH248057   5.540   2.482   1.141 -0.1926  0.3274 -0.0447
 8881TIP3    H148058   5.596   2.530   1.202 -0.6091 -0.0534  0.6562
 8881TIP3    H248059   5.599   2.451   1.072  0.5007 -0.2577  0.7916
 8882TIP3   OH248060   2.931   3.686  12.663  0.1173  0.3737 -0.3409
 8882TIP3    H148061   2.870   3.753  12.631 -1.9215 -1.0809  0.3061
 8882TIP3    H248062   2.892   3.603  12.635  0.0470 -0.7900  2.8856
 8883TIP3   OH248063   1.568   3.518  13.749 -0.6891 -0.3615  0.3263
 8883TIP3    H148064   1.594   3.478  13.666 -1.7951  1.8339 -1.1829
 8883TIP3    H248065   1.650   3.536  13.794  0.1836  1.3223 -1.7841
 8884TIP3   OH248066   1.468   3.226  13.834 -0.1411 -0.2385 -0.0925
 8884TIP3    H148067   1.516   3.170  13.895  0.0617  2.3092  2.2985
 8884TIP3    H248068   1.505   3.314  13.847 -0.6575  0.6071 -3.3772
 8885TIP3   OH248069   6.408   1.916  12.386  0.5357 -0.1200  0.0630
 8885TIP3    H148070   6.477   1.860  12.421  1.0288 -0.1976 -1.0042
 8885TIP3    H248071   6.454   1.994  12.354  0.0285  0.2082  0.1212
 8886TIP3   OH248072   1.012   6.576   0.169 -0.0047 -0.7175  0.1419
 8886TIP3    H148073   0.989   6.659   0.128 -0.0720 -2.0563 -2.8053
 8886TIP3    H248074   1.093   6.549   0.125  0.4219 -1.8708  1.5580
 8887TIP3   OH248075   1.614   3.871  16.661  0.4432  0.1047  0.0985
 8887TIP3    H148076   1.642   3.862  16.752  1.1214 -2.2803 -0.2850
 8887TIP3    H248077   1.658   3.800  16.615 -1.6483 -0.1799 -1.6550
 8888TIP3   OH248078   2.891   1.458  16.689  0.0873  0.3450  0.7196
 8888TIP3    H148079   2.920   1.393  16.626  1.1748  2.7409 -1.4103
 8888TIP3    H248080   2.884   1.539  16.639 -1.3033  1.8894  3.2054
 8889TIP3   OH248081   4.437   2.355   5.592  0.1244  0.4512  0.2342
 8889TIP3    H148082   4.412   2.286   5.652 -0.8139 -0.8970 -1.6019
 8889TIP3    H248083   4.399   2.435   5.629 -0.7926 -0.3966  1.1680
 8890TIP3   OH248084   6.146   1.879   4.310 -0.5224 -0.6796  0.0480
 8890TIP3    H148085   6.195   1.835   4.241 -0.9269  0.4852 -1.0294
 8890TIP3    H248086   6.208   1.940   4.350 -0.6626 -0.3462 -0.2404
 8891TIP3   OH248087   2.769   4.611  17.069  0.1949 -0.3809 -0.2220
 8891TIP3    H148088   2.796   4.572  17.152 -1.5355 -0.7710  0.1983
 8891TIP3    H248089   2.817   4.693  17.064  1.5178 -1.0854  0.3881
 8892TIP3   OH248090   3.002   2.851   0.928  0.2042  0.0342 -0.5531
 8892TIP3    H148091   3.017   2.832   1.020  0.6055  0.6684 -0.4776
 8892TIP3    H248092   2.907   2.850   0.918  0.1498  0.2284 -0.0746
 8893TIP3   OH248093   4.056   2.034  13.029 -0.2017 -0.2456  0.7845
 8893TIP3    H148094   3.962   2.044  13.045  0.2816  0.5921  3.6035
 8893TIP3    H248095   4.098   2.100  13.084  2.0580  0.2791 -1.3487
 8894TIP3   OH248096   3.878   4.785  16.474 -0.0055  0.0228 -0.0910
 8894TIP3    H148097   3.861   4.737  16.555 -1.1963 -0.4478 -0.5974
 8894TIP3    H248098   3.966   4.822  16.486 -0.4733  0.6700  1.7461
 8895TIP3   OH248099   5.810   0.373   3.301 -0.1398 -0.2744  0.2647
 8895TIP3    H148100   5.821   0.400   3.393 -1.2073 -1.0940  0.6575
 8895TIP3    H248101   5.881   0.310   3.286  0.3786  0.2848  0.3504
 8896TIP3   OH248102   1.003   6.588   4.189  0.2416  0.5628  0.2336
 8896TIP3    H148103   1.043   6.547   4.265 -1.4020 -0.8479  0.4082
 8896TIP3    H248104   1.031   6.534   4.115 -1.1905 -0.3989  0.3494
 8897TIP3   OH248105   3.971   4.292  16.573 -0.6767  0.4357  0.2785
 8897TIP3    H148106   3.963   4.207  16.616  2.3410 -0.1891 -0.1673
 8897TIP3    H248107   3.942   4.355  16.639 -1.5755 -0.8126  1.1295
 8898TIP3   OH248108   3.382   5.447   3.721 -0.5242 -0.0509  0.4687
 8898TIP3    H148109   3.382   5.493   3.637  0.5689 -0.4930  0.2076
 8898TIP3    H248110   3.301   5.396   3.720  0.2508 -1.3424 -1.0802
 8899TIP3   OH248111   0.500   3.668  14.601 -0.0343  0.2535 -0.4184
 8899TIP3    H148112   0.549   3.630  14.529 -1.2099  0.1597 -1.2047
 8899TIP3    H248113   0.425   3.610  14.612 -1.1968  1.6222 -0.8101
 8900TIP3   OH248114   3.348   1.264   3.814  0.0279  0.6838  0.3576
 8900TIP3    H148115   3.391   1.349   3.800 -0.4607  1.0458  0.9855
 8900TIP3    H248116   3.413   1.199   3.785  0.7314  1.2429  0.6375
 8901TIP3   OH248117   3.584   4.270   3.676  0.3648 -0.7937  0.5569
 8901TIP3    H148118   3.623   4.311   3.599  0.0567 -2.2076 -0.3976
 8901TIP3    H248119   3.633   4.306   3.750  2.8662 -1.7360 -0.5044
 8902TIP3   OH248120   2.239   4.252  14.216 -0.7094  0.1388  0.0533
 8902TIP3    H148121   2.172   4.321  14.216  0.3506  1.2214 -0.6428
 8902TIP3    H248122   2.249   4.228  14.308 -0.0561  2.0174  0.5233
 8903TIP3   OH248123   5.134   0.370  14.845 -0.4427  0.3987  0.2352
 8903TIP3    H148124   5.163   0.279  14.850 -0.3362  0.2585 -2.0732
 8903TIP3    H248125   5.069   0.371  14.775 -0.3048  2.1338  0.0887
 8904TIP3   OH248126   1.957   6.286   2.288  0.0974 -0.3706  0.3789
 8904TIP3    H148127   2.020   6.351   2.257 -0.5611 -0.0925 -0.4231
 8904TIP3    H248128   1.884   6.337   2.323 -1.8000 -0.4760 -2.9086
 8905TIP3   OH248129   1.769   5.541   1.231  0.3917 -0.1980 -0.2080
 8905TIP3    H148130   1.842   5.496   1.189  0.3279  0.4168 -1.0073
 8905TIP3    H248131   1.691   5.512   1.183  0.0342 -1.1437  0.8773
 8906TIP3   OH248132   2.336   5.608  14.361 -0.1488  0.8076  0.2784
 8906TIP3    H148133   2.298   5.545  14.299  1.1055  0.9450 -0.6895
 8906TIP3    H248134   2.405   5.651  14.310  0.9553  0.9006  1.8068
 8907TIP3   OH248135   5.693   0.334   4.199  0.2018  0.5281  0.2492
 8907TIP3    H148136   5.762   0.307   4.138  0.0836 -0.2966  0.4652
 8907TIP3    H248137   5.736   0.394   4.260  0.2791  1.5159 -0.7493
 8908TIP3   OH248138   5.846   1.044  13.050  0.6059  0.1689  0.3343
 8908TIP3    H148139   5.880   0.957  13.068  1.6388 -0.0224 -2.1098
 8908TIP3    H248140   5.914   1.104  13.083  0.6142 -0.0020  0.6286
 8909TIP3   OH248141   0.760   2.876  16.362 -0.4883  0.2292  0.0616
 8909TIP3    H148142   0.702   2.944  16.326 -0.1209 -0.1637 -1.3336
 8909TIP3    H248143   0.815   2.923  16.424 -1.5916  0.8122  0.6330
 8910TIP3   OH248144   6.363   6.579  17.150  0.5304  0.3661 -0.2605
 8910TIP3    H148145   6.343   6.530  17.230 -0.4199 -0.9712 -1.2711
 8910TIP3    H248146   6.291   6.558  17.090  1.0370  1.6062 -1.3518
 8911TIP3   OH248147   6.741   4.309  14.639  0.3880 -0.0088  0.3805
 8911TIP3    H148148   6.831   4.337  14.655  0.8048  0.5066 -2.4348
 8911TIP3    H248149   6.688   4.359  14.702  2.1057 -1.6176  3.3519
 8912TIP3   OH248150   3.552   4.810   3.375  0.0506 -0.1393 -0.7160
 8912TIP3    H148151   3.629   4.866   3.383  0.6598 -1.0481 -0.0802
 8912TIP3    H248152   3.534   4.807   3.281  1.8113 -1.2550 -1.0543
 8913TIP3   OH248153   0.014   2.103   5.461 -0.5520 -0.3555 -0.3447
 8913TIP3    H148154  -0.016   2.040   5.526  1.3249  0.8379  1.8512
 8913TIP3    H248155   0.076   2.054   5.407  0.3198 -0.6368  0.8609
 8914TIP3   OH248156   5.439   6.268  17.042 -0.0909 -0.6653 -0.3152
 8914TIP3    H148157   5.376   6.241  16.975  0.5442  0.8410 -1.5649
 8914TIP3    H248158   5.391   6.331  17.096  0.6496  1.5313 -2.0852
 8915TIP3   OH248159   5.660   3.779   1.784 -0.5350  0.5947 -0.1080
 8915TIP3    H148160   5.573   3.796   1.819 -0.4067  0.2311  0.4037
 8915TIP3    H248161   5.662   3.824   1.700 -1.6003 -0.3237 -0.6460
 8916TIP3   OH248162   3.660   3.075   3.405  0.3175 -0.2799  0.7514
 8916TIP3    H148163   3.749   3.086   3.440  0.8953 -1.3174 -0.3098
 8916TIP3    H248164   3.648   3.148   3.345  1.5164 -1.5561 -1.1305
 8917TIP3   OH248165   1.552   5.653   4.563 -0.4134 -0.1286  0.1885
 8917TIP3    H148166   1.550   5.682   4.654 -1.5985 -2.5066  1.0060
 8917TIP3    H248167   1.495   5.715   4.517 -0.2931  0.7377  1.1779
 8918TIP3   OH248168   4.856   4.068  14.583 -0.3901  0.1395 -0.4823
 8918TIP3    H148169   4.918   4.103  14.647  0.0235 -1.2039 -0.1119
 8918TIP3    H248170   4.901   3.993  14.544 -2.1621 -1.6476  0.6618
 8919TIP3   OH248171   5.942   6.708   6.739 -0.5403  0.4304  0.1283
 8919TIP3    H148172   6.014   6.654   6.707  0.2951  0.8314  1.2377
 8919TIP3    H248173   5.864   6.656   6.723 -0.0657  0.1219 -1.4204
 8920TIP3   OH248174   3.900   1.169   1.213 -0.2797 -0.3541 -0.1449
 8920TIP3    H148175   3.848   1.152   1.135 -0.8652  0.1893  0.1130
 8920TIP3    H248176   3.943   1.086   1.233 -0.8296 -0.7315 -0.5284
 8921TIP3   OH248177   2.057   0.729  15.194 -0.1477 -0.3802 -0.4847
 8921TIP3    H148178   2.141   0.714  15.239 -0.3995  0.2081  0.2069
 8921TIP3    H248179   2.066   0.684  15.110  0.9869 -0.0548 -0.5540
 8922TIP3   OH248180   1.151   1.543   0.618 -0.2927 -0.0077  0.3732
 8922TIP3    H148181   1.175   1.518   0.707  1.1414 -3.2083 -0.7726
 8922TIP3    H248182   1.235   1.558   0.574 -0.9072 -0.0886 -0.8646
 8923TIP3   OH248183   0.886   6.455   1.303  0.2571  0.2309  0.6543
 8923TIP3    H148184   0.793   6.477   1.307  0.2305  1.7219 -3.6261
 8923TIP3    H248185   0.931   6.531   1.340 -0.2139  1.5551 -1.3558
 8924TIP3   OH248186   6.549   2.754  12.252  0.7214 -0.0950  0.3757
 8924TIP3    H148187   6.499   2.829  12.285  0.2574 -0.5810  0.7963
 8924TIP3    H248188   6.490   2.710  12.191  0.5925 -0.7140  0.9294
 8925TIP3   OH248189   2.248   2.327   1.291  0.0148  0.1548 -0.3264
 8925TIP3    H148190   2.324   2.331   1.348  0.5111 -3.3115 -0.5629
 8925TIP3    H248191   2.175   2.358   1.346  1.0741  0.5971  0.8713
 8926TIP3   OH248192   6.164   2.282  16.743  0.2998  0.2364 -0.2914
 8926TIP3    H148193   6.162   2.316  16.653  0.0318  0.6135 -0.1441
 8926TIP3    H248194   6.148   2.359  16.798 -2.3826 -0.4099 -0.0329
 8927TIP3   OH248195   2.550   0.865  11.142  0.2216 -0.1760  0.2546
 8927TIP3    H148196   2.549   0.845  11.235  0.0681 -0.7381  0.1360
 8927TIP3    H248197   2.463   0.841  11.111 -0.4821  2.0279  0.3671
 8928TIP3   OH248198   6.227   5.136  13.020 -0.9532 -0.0220  0.0074
 8928TIP3    H148199   6.321   5.153  13.025 -0.9858  0.1955 -0.0880
 8928TIP3    H248200   6.217   5.066  12.956 -1.0711  1.8688 -2.1636
 8929TIP3   OH248201   5.356   1.703   6.492 -0.2172  0.6483 -1.1022
 8929TIP3    H148202   5.276   1.651   6.501 -0.3941  1.0729 -0.1118
 8929TIP3    H248203   5.341   1.758   6.415 -1.0793  1.0741 -0.6379
 8930TIP3   OH248204   2.509   1.934  16.697  0.2501  0.0681  0.6707
 8930TIP3    H148205   2.558   1.928  16.615 -0.0442 -0.3283  0.5197
 8930TIP3    H248206   2.507   1.844  16.731 -1.5680 -0.2052 -0.0408
 8931TIP3   OH248207   3.036   4.675  15.372 -0.2869  0.4269  0.0949
 8931TIP3    H148208   2.977   4.603  15.394 -1.2273  0.9641 -0.6126
 8931TIP3    H248209   2.993   4.752  15.409  0.8023  0.6180  1.0055
 8932TIP3   OH248210   4.756   5.095   0.229 -0.3171  0.6821  0.8362
 8932TIP3    H148211   4.752   5.063   0.320 -2.0043  0.5277  0.7376
 8932TIP3    H248212   4.666   5.087   0.197  0.5918 -1.3160 -1.5744
 8933TIP3   OH248213   1.634   5.876   0.879 -0.2804 -0.4634  0.6455
 8933TIP3    H148214   1.704   5.932   0.846 -1.6278  1.0586  0.2323
 8933TIP3    H248215   1.588   5.845   0.801 -2.7876  2.2496  0.8732
 8934TIP3   OH248216   6.169   6.316  11.101  0.6938  0.2736 -0.0814
 8934TIP3    H148217   6.230   6.379  11.062 -0.6786  1.2828 -0.6816
 8934TIP3    H248218   6.148   6.256  11.030 -0.7746  1.3217 -0.5864
 8935TIP3   OH248219   3.360   5.829  11.969  0.6052 -0.1662  0.2200
 8935TIP3    H148220   3.366   5.867  11.881  0.9455 -1.2245 -0.2426
 8935TIP3    H248221   3.450   5.827  12.000  0.6811 -1.1079 -0.0146
 8936TIP3   OH248222   4.583   5.608   3.620  0.0170 -0.1004 -0.4337
 8936TIP3    H148223   4.519   5.633   3.554  2.1396  0.3594 -2.4515
 8936TIP3    H248224   4.644   5.550   3.574  1.2909 -0.1883  1.2546
 8937TIP3   OH248225   5.914   5.284  12.620 -0.1908  0.6968  0.7809
 8937TIP3    H148226   5.899   5.202  12.573 -2.1195  1.2461  0.3635
 8937TIP3    H248227   6.003   5.309  12.596 -0.2366 -0.3190 -0.5602
 8938TIP3   OH248228   0.084   4.632   5.982 -0.0066  0.0108 -0.3649
 8938TIP3    H148229   0.038   4.566   5.930  3.1003 -2.5358 -0.1780
 8938TIP3    H248230   0.080   4.600   6.072 -0.1398  1.1502  0.0508
 8939TIP3   OH248231   6.013   4.671  14.011  0.1957 -0.2343  0.3071
 8939TIP3    H148232   5.988   4.618  13.935  0.4230  1.4268 -0.9956
 8939TIP3    H248233   6.032   4.758  13.974  2.1141  0.1573  2.0092
 8940TIP3   OH248234   2.601   2.238  11.764  0.8520 -0.2467 -0.3360
 8940TIP3    H148235   2.629   2.157  11.722 -0.6280 -0.1129 -1.6812
 8940TIP3    H248236   2.566   2.292  11.693  1.4824  1.4510  0.5858
 8941TIP3   OH248237   0.280   0.332   5.223  0.1833 -0.1761  0.0924
 8941TIP3    H148238   0.299   0.243   5.195  2.3909  0.1064  0.5372
 8941TIP3    H248239   0.307   0.335   5.315 -0.2540  0.8518  0.2037
 8942TIP3   OH248240   4.476   0.385   1.567  0.4093  0.4879  0.0180
 8942TIP3    H148241   4.437   0.319   1.508  0.7701 -0.5480  0.8992
 8942TIP3    H248242   4.564   0.352   1.584  0.0292  0.2864  1.8090
 8943TIP3   OH248243   3.022   5.061   2.411 -0.0373 -0.1960 -0.3778
 8943TIP3    H148244   2.967   5.135   2.385 -0.1766 -0.8915 -2.2814
 8943TIP3    H248245   2.971   4.984   2.387  1.9707 -0.8771 -2.9416
 8944TIP3   OH248246   0.387   0.531  13.129 -0.2071  0.4206  0.5053
 8944TIP3    H148247   0.400   0.471  13.202 -0.9865 -0.5280 -0.1101
 8944TIP3    H248248   0.400   0.476  13.051  2.7828  1.8514 -0.1361
 8945TIP3   OH248249   5.950   4.339   2.187  0.6946 -0.0749  0.3038
 8945TIP3    H148250   6.010   4.353   2.114  0.4454 -0.7958 -0.0550
 8945TIP3    H248251   5.900   4.261   2.162 -0.4069  0.5120  0.5832
 8946TIP3   OH248252   1.194   4.762  16.578 -0.4253 -0.0941  0.1038
 8946TIP3    H148253   1.253   4.752  16.503 -0.8835  1.4105 -0.4946
 8946TIP3    H248254   1.110   4.785  16.539 -1.1852 -1.2540  1.0029
 8947TIP3   OH248255   5.219   6.346   1.016 -0.3690  0.2909  0.3836
 8947TIP3    H148256   5.135   6.363   1.059 -0.9078 -3.4273  1.1227
 8947TIP3    H248257   5.199   6.349   0.922 -1.3493 -0.5045  0.5516
 8948TIP3   OH248258   6.409   0.380  15.222  0.7380  0.2916  0.4387
 8948TIP3    H148259   6.438   0.327  15.296 -0.2088  2.3408  2.3769
 8948TIP3    H248260   6.330   0.336  15.191  0.9226 -0.3711  0.8758
 8949TIP3   OH248261   2.789   1.135   5.976  0.0120 -0.0884 -0.2958
 8949TIP3    H148262   2.731   1.060   5.974 -0.2702  0.1183 -1.9121
 8949TIP3    H248263   2.732   1.209   5.996 -0.1520 -0.0044 -1.0309
 8950TIP3   OH248264   4.655   6.487   0.036  0.2769 -0.0762 -0.2786
 8950TIP3    H148265   4.577   6.540   0.020  0.1771  0.1342  0.7967
 8950TIP3    H248266   4.724   6.551   0.055 -0.1100 -0.2857  2.1798
 8951TIP3   OH248267   1.104   6.563   6.124  0.2346  0.5833  0.2916
 8951TIP3    H148268   1.147   6.483   6.151 -1.1741  0.0837  1.1679
 8951TIP3    H248269   1.036   6.578   6.190  0.4571  2.4979  0.1504
 8952TIP3   OH248270   2.164   2.223   1.689 -0.3527  0.7063 -0.2499
 8952TIP3    H148271   2.094   2.271   1.733 -0.5596  0.2807 -0.1107
 8952TIP3    H248272   2.127   2.198   1.604  0.2657  2.1053 -0.9791
 8953TIP3   OH248273   3.993   5.280  13.099 -0.0818  0.1015 -0.0622
 8953TIP3    H148274   4.029   5.359  13.058 -0.7216  1.1019  1.2261
 8953TIP3    H248275   3.910   5.265  13.053  0.1622  0.0087 -0.4823
 8954TIP3   OH248276   1.566   3.873  14.930  0.6649 -0.8370  0.2284
 8954TIP3    H148277   1.589   3.962  14.903  0.2863 -0.8808 -0.2485
 8954TIP3    H248278   1.581   3.872  15.025 -1.7873  0.5131  0.6984
 8955TIP3   OH248279   4.310   2.621   0.706  0.4422  0.0938  0.1880
 8955TIP3    H148280   4.270   2.597   0.789  0.9967 -0.3689  0.3235
 8955TIP3    H248281   4.254   2.580   0.640 -0.9133  1.7461  0.2379
 8956TIP3   OH248282   6.399   2.439   1.269 -0.3780 -0.2986  0.4651
 8956TIP3    H148283   6.375   2.508   1.332  1.2027  0.3173  0.4390
 8956TIP3    H248284   6.316   2.414   1.229 -1.0756  1.2028  0.8766
 8957TIP3   OH248285   5.722   4.610   2.974 -0.4328 -0.0750  0.4219
 8957TIP3    H148286   5.628   4.593   2.961 -0.4619 -0.0409  0.5778
 8957TIP3    H248287   5.758   4.618   2.886 -0.8341  1.3184  0.3585
 8958TIP3   OH248288   3.392   1.778   0.940  0.2520 -0.8297  0.1807
 8958TIP3    H148289   3.443   1.755   1.017 -0.6791 -0.4575  0.9283
 8958TIP3    H248290   3.382   1.695   0.892 -1.7235 -1.7697  2.0289
 8959TIP3   OH248291   2.203   5.711   1.588  0.2796 -0.4455 -0.4874
 8959TIP3    H148292   2.192   5.632   1.641  1.1713  0.0159  0.4192
 8959TIP3    H248293   2.124   5.715   1.534  0.1361 -1.8430 -0.4080
 8960TIP3   OH248294   3.803   0.980  12.743 -0.1665  0.1709  0.6694
 8960TIP3    H148295   3.779   0.897  12.784  0.4702 -1.8686 -2.6958
 8960TIP3    H248296   3.727   1.003  12.688 -0.2691  1.7800  1.4148
 8961TIP3   OH248297   3.827   5.959   6.348  0.0326  0.2902  0.5948
 8961TIP3    H148298   3.733   5.961   6.329  0.0404  0.2185  0.5533
 8961TIP3    H248299   3.839   5.882   6.404  0.1082  0.1559  0.3940
 8962TIP3   OH248300   1.607   0.834   4.132 -0.1840 -0.4615  0.2083
 8962TIP3    H148301   1.670   0.904   4.112  0.5835 -1.0994  0.3208
 8962TIP3    H248302   1.582   0.799   4.047 -0.1680 -0.3940  0.1757
 8963TIP3   OH248303   0.667   5.685   3.650  0.0351  0.4461  0.0114
 8963TIP3    H148304   0.735   5.710   3.587 -0.3591 -0.2269 -0.6982
 8963TIP3    H248305   0.608   5.760   3.653  0.1800  0.5711 -0.2558
 8964TIP3   OH248306   2.360   0.064  14.322  0.3487 -0.1924  0.4744
 8964TIP3    H148307   2.420   0.086  14.393  0.0567 -0.3649  0.7796
 8964TIP3    H248308   2.344  -0.030  14.333  0.9700 -0.3935 -0.3390
 8965TIP3   OH248309   1.580   1.396   6.251 -0.3048  0.0647 -0.2627
 8965TIP3    H148310   1.553   1.414   6.341  1.8534 -2.1347  0.9054
 8965TIP3    H248311   1.579   1.301   6.243  1.1758  0.1391 -2.0374
 8966TIP3   OH248312   0.277   4.962   5.625  0.4763 -0.1841 -0.2479
 8966TIP3    H148313   0.355   4.997   5.669  0.5134  0.5540 -0.8704
 8966TIP3    H248314   0.296   4.973   5.531 -0.2897 -0.1867 -0.4095
 8967TIP3   OH248315   1.533   0.723  17.037  0.2594 -0.1123  0.3717
 8967TIP3    H148316   1.491   0.681  17.112 -3.4556  0.3552 -1.2050
 8967TIP3    H248317   1.550   0.652  16.975 -3.7302  0.1075 -1.2699
 8968TIP3   OH248318   0.735   4.167   5.845 -0.5537 -0.3989  0.1315
 8968TIP3    H148319   0.773   4.123   5.769 -2.4576 -1.0003 -0.5334
 8968TIP3    H248320   0.693   4.097   5.895 -0.2822  0.1495  1.1777
 8969TIP3   OH248321   1.182   3.146   2.237  0.0256  0.4693 -0.2943
 8969TIP3    H148322   1.103   3.196   2.256  0.7450  2.0746 -1.2952
 8969TIP3    H248323   1.162   3.057   2.267 -1.3417  1.3075  1.4540
 8970TIP3   OH248324   5.234   3.293   4.919  0.3426  0.5466 -0.4491
 8970TIP3    H148325   5.274   3.363   4.868 -0.0664  2.6295  1.9125
 8970TIP3    H248326   5.150   3.329   4.948 -0.4881 -1.4336 -0.2450
 8971TIP3   OH248327   0.448   5.541  11.093  0.3184  0.0056 -0.1181
 8971TIP3    H148328   0.410   5.540  11.005 -0.0463 -1.9509  0.0326
 8971TIP3    H248329   0.540   5.561  11.079 -0.0172  1.1764 -0.7963
 8972TIP3   OH248330   3.762   0.846  11.804 -0.4129  0.1602  0.2609
 8972TIP3    H148331   3.815   0.883  11.874 -1.0021  0.6517  0.4580
 8972TIP3    H248332   3.806   0.764  11.781  0.2488  0.4034  0.6293
 8973TIP3   OH248333   5.379   5.757  12.424 -0.1641  0.1978  0.6878
 8973TIP3    H148334   5.374   5.662  12.432  0.3087  0.1452  0.3979
 8973TIP3    H248335   5.312   5.790  12.484 -0.1172 -0.3115  1.0266
 8974TIP3   OH248336   0.821   3.345   3.838 -0.3438  0.0922 -0.4368
 8974TIP3    H148337   0.738   3.391   3.847  0.1359  1.0441 -0.7564
 8974TIP3    H248338   0.831   3.333   3.743  0.0055  0.2247 -0.4195
 8975TIP3   OH248339   6.393   1.105   4.613 -0.4220 -0.6317 -0.8847
 8975TIP3    H148340   6.483   1.124   4.585 -0.0299 -1.1480 -0.0330
 8975TIP3    H248341   6.349   1.190   4.613  0.4478 -0.1624 -0.0173
 8976TIP3   OH248342   1.365   0.495   2.493 -0.0739  0.0993 -0.5878
 8976TIP3    H148343   1.307   0.472   2.566  0.5228 -0.0895 -0.1650
 8976TIP3    H248344   1.446   0.448   2.512  0.1809  0.2787 -1.2301
 8977TIP3   OH248345   1.349   4.457   4.503  0.0536  0.0661 -0.6146
 8977TIP3    H148346   1.321   4.414   4.422 -2.0075  3.0957 -1.7094
 8977TIP3    H248347   1.426   4.508   4.478 -1.5100  2.2761 -1.2417
 8978TIP3   OH248348   5.019   1.843   3.825  0.0746  0.3296 -0.0890
 8978TIP3    H148349   5.071   1.853   3.745 -0.5611 -0.4402 -0.6071
 8978TIP3    H248350   5.043   1.918   3.878 -1.1352  2.1010 -1.9106
 8979TIP3   OH248351   5.830   0.754   2.535  0.1798  0.5179  0.1901
 8979TIP3    H148352   5.747   0.749   2.489  0.8425 -1.4032 -0.9374
 8979TIP3    H248353   5.846   0.665   2.566  1.5803  0.9398  0.7882
 8980TIP3   OH248354   0.972   4.147  10.895 -0.5504 -0.0316 -0.5755
 8980TIP3    H148355   0.961   4.184  10.983 -0.6821 -0.1576 -0.5384
 8980TIP3    H248356   0.934   4.212  10.837 -0.8189 -0.1270 -0.5070
 8981TIP3   OH248357   2.979   1.072   1.108  0.0526 -0.0429 -0.0364
 8981TIP3    H148358   2.950   1.036   1.024  1.0454 -1.2770  0.1199
 8981TIP3    H248359   3.027   1.000   1.149  0.0153  0.7110  1.3748
 8982TIP3   OH248360   5.288   3.142  16.797  0.2159  0.0855  0.3488
 8982TIP3    H148361   5.321   3.052  16.790  2.9196  1.1480 -2.9420
 8982TIP3    H248362   5.225   3.151  16.725 -0.8025  0.5968  1.2704
 8983TIP3   OH248363   3.136   2.356  14.624  0.3554 -0.5485 -0.3927
 8983TIP3    H148364   3.090   2.378  14.544  0.6562  0.7983 -0.2063
 8983TIP3    H248365   3.216   2.312  14.595 -1.1125 -3.2214 -0.7142
 8984TIP3   OH248366   5.480   3.223   1.052  0.0444 -0.4059 -0.4213
 8984TIP3    H148367   5.435   3.269   1.123  0.5814  0.5565 -0.6839
 8984TIP3    H248368   5.555   3.279   1.031  2.0344 -2.4545  0.7186
 8985TIP3   OH248369   4.965   0.930   5.816 -0.3613 -0.7437  0.6861
 8985TIP3    H148370   5.000   1.015   5.788 -1.4295 -0.9639 -1.5727
 8985TIP3    H248371   5.013   0.866   5.765 -0.2944 -1.4427  1.6033
 8986TIP3   OH248372   4.949   3.587  11.754 -0.6170 -0.1265  0.3674
 8986TIP3    H148373   4.921   3.518  11.814  0.2862 -0.6903  0.1562
 8986TIP3    H248374   5.024   3.628  11.798  0.4203 -0.9241 -0.6149
 8987TIP3   OH248375   4.405   2.276  13.640  0.0273 -0.4964  0.0028
 8987TIP3    H148376   4.401   2.318  13.554  0.7494 -0.0640  0.1700
 8987TIP3    H248377   4.387   2.346  13.702  2.8654  0.0119  0.3846
 8988TIP3   OH248378   6.536   4.517  12.203 -0.0685 -0.0683  0.1873
 8988TIP3    H148379   6.552   4.611  12.202 -1.6203  0.2586 -1.9415
 8988TIP3    H248380   6.468   4.505  12.269 -0.2202  0.3762  0.1157
 8989TIP3   OH248381   3.355   6.486   3.818 -0.3851 -0.0198 -0.7388
 8989TIP3    H148382   3.361   6.503   3.912 -0.5993  2.2284 -1.0792
 8989TIP3    H248383   3.439   6.514   3.783 -0.1080 -1.3403 -1.1788
 8990TIP3   OH248384   2.749   4.047  11.409  0.4490 -0.1027 -0.5497
 8990TIP3    H148385   2.738   3.968  11.355 -0.8803  0.2885 -0.8989
 8990TIP3    H248386   2.824   4.092  11.371  1.1156 -1.0956 -0.4601
 8991TIP3   OH248387   4.969   4.084   0.740  0.2048  0.8033  0.5090
 8991TIP3    H148388   5.064   4.083   0.729  0.0638 -1.5790 -1.4934
 8991TIP3    H248389   4.950   4.171   0.773  3.0733  1.3635  0.9829
 8992TIP3   OH248390   6.242   0.367  15.499 -0.4715 -0.1379 -0.2575
 8992TIP3    H148391   6.202   0.454  15.494 -1.6774 -0.5603  1.2870
 8992TIP3    H248392   6.173   0.307  15.471  0.3230 -0.6287 -1.2188
 8993TIP3   OH248393   6.231   3.838  11.508 -0.5349  0.3454  0.0497
 8993TIP3    H148394   6.275   3.814  11.590 -2.5436  0.2175  1.1547
 8993TIP3    H248395   6.284   3.910  11.473  1.2262 -0.5958  0.6562
 8994TIP3   OH248396   0.954   2.470  11.750 -0.2156 -0.3199 -0.5164
 8994TIP3    H148397   0.881   2.411  11.732  0.1200 -0.3544 -1.8790
 8994TIP3    H248398   1.032   2.415  11.743  0.1931  0.4632 -3.0577
 8995TIP3   OH248399   0.859   6.724  13.288 -0.1266  0.4171 -0.9173
 8995TIP3    H148400   0.786   6.690  13.340  0.8920  0.3336  0.5005
 8995TIP3    H248401   0.905   6.646  13.257 -1.6848  0.3951 -3.4809
 8996TIP3   OH248402   1.499   3.529   4.051  0.1615 -0.3919 -0.8704
 8996TIP3    H148403   1.457   3.555   4.133  0.1696  0.9220 -1.2495
 8996TIP3    H248404   1.436   3.471   4.009 -2.1256  2.6708 -2.1279
 8997TIP3   OH248405   1.946   2.283  13.059  0.0549 -0.2121  0.4684
 8997TIP3    H148406   1.886   2.263  13.131  1.0115  0.3652  1.4751
 8997TIP3    H248407   1.973   2.197  13.026  1.1753 -0.5707  2.1896
 8998TIP3   OH248408   2.843   4.818   1.313 -0.3221 -0.3577 -0.3974
 8998TIP3    H148409   2.890   4.892   1.349  0.3659 -1.1737  0.4354
 8998TIP3    H248410   2.821   4.844   1.223  2.2815 -0.1633 -1.0711
 8999TIP3   OH248411   3.809   5.955  11.264  0.3734  0.2107  0.2616
 8999TIP3    H148412   3.766   6.039  11.278 -0.0032  0.4873 -2.1355
 8999TIP3    H248413   3.888   5.976  11.214  1.7775 -0.6238  2.0022
 9000TIP3   OH248414   0.158   1.384  11.505  0.0112 -0.5670  0.2629
 9000TIP3    H148415   0.142   1.395  11.411 -0.1453  1.8584  0.5182
 9000TIP3    H248416   0.253   1.389  11.514  0.2094 -2.8982  0.0639
 9001TIP3   OH248417   5.860   4.256  15.007 -0.1476  0.4042  0.0084
 9001TIP3    H148418   5.921   4.297  14.945  0.5832  0.0929  0.5031
 9001TIP3    H248419   5.901   4.270  15.093 -0.8018  0.2233  0.3536
 9002TIP3   OH248420   0.369   4.511   2.552  0.4234  0.0169  0.5756
 9002TIP3    H148421   0.289   4.564   2.555  0.7350  0.5755 -0.3554
 9002TIP3    H248422   0.432   4.566   2.506  0.3817 -1.6370 -1.6298
 9003TIP3   OH248423   4.033   6.057   1.117  0.3254 -0.2478 -0.0522
 9003TIP3    H148424   3.951   6.039   1.162  0.0346 -1.6422 -1.0931
 9003TIP3    H248425   4.085   5.978   1.129  1.0590  0.1701 -0.4070
 9004TIP3   OH248426   5.074   2.107  15.842 -0.4934 -0.5234  0.3403
 9004TIP3    H148427   5.066   2.027  15.791 -1.2193 -0.5089  0.4133
 9004TIP3    H248428   4.985   2.143  15.843  0.2101  1.5941 -1.8157
 9005TIP3   OH248429   2.558   5.045  11.650 -0.0055 -0.1173 -0.3636
 9005TIP3    H148430   2.573   5.087  11.735  1.9498  0.3373 -0.8771
 9005TIP3    H248431   2.585   4.954  11.664  0.3277 -0.0394 -0.4931
 9006TIP3   OH248432   0.291   0.048   0.374 -0.3062 -0.3822  0.5481
 9006TIP3    H148433   0.271   0.081   0.462  1.1570  0.7593  0.4849
 9006TIP3    H248434   0.268   0.121   0.316 -1.9106 -1.3687 -0.1210
 9007TIP3   OH248435   4.441   4.655  14.441 -0.0723 -0.4655  0.0980
 9007TIP3    H148436   4.456   4.592  14.370  0.3928 -0.3823  0.1244
 9007TIP3    H248437   4.524   4.659  14.488 -0.7221 -1.4642  1.4072
 9008TIP3   OH248438   0.692   4.467   4.753  0.4957  0.1190  0.0687
 9008TIP3    H148439   0.687   4.562   4.738  1.8190  0.2962  0.5647
 9008TIP3    H248440   0.624   4.449   4.818 -2.3137  0.0601 -2.6993
 9009TIP3   OH248441   4.093   2.109   5.980 -0.2705 -0.1747  0.1253
 9009TIP3    H148442   4.173   2.134   6.027  0.5489 -0.8521 -0.8646
 9009TIP3    H248443   4.023   2.159   6.023  0.4189 -0.8031  2.0904
 9010TIP3   OH248444   1.561   2.046  16.087  0.2649 -0.5255 -0.4336
 9010TIP3    H148445   1.564   1.964  16.038 -0.3049 -0.0856 -1.2349
 9010TIP3    H248446   1.480   2.088  16.059  0.0614 -0.1198  0.6940
 9011TIP3   OH248447   3.373   5.107   4.319  0.0035 -0.4476 -0.1521
 9011TIP3    H148448   3.363   5.164   4.243 -0.4043 -1.7533 -1.1031
 9011TIP3    H248449   3.320   5.030   4.299 -2.3050  0.2579  2.6098
 9012TIP3   OH248450   3.778   2.749   4.781 -0.1380  0.0260  0.5731
 9012TIP3    H148451   3.794   2.843   4.791  0.4787 -0.2584  2.6172
 9012TIP3    H248452   3.847   2.707   4.831  0.4659 -1.6066 -1.4942
 9013TIP3   OH248453   5.415   3.516   3.489 -0.2704 -0.0514  0.2105
 9013TIP3    H148454   5.375   3.452   3.548  0.9240 -0.3422  0.7376
 9013TIP3    H248455   5.391   3.486   3.401 -1.2452 -0.1775  0.5114
 9014TIP3   OH248456   3.692   0.981  14.552  0.4555 -0.2600  0.6402
 9014TIP3    H148457   3.745   0.915  14.597  1.7763 -0.6516 -1.3846
 9014TIP3    H248458   3.658   0.936  14.475 -1.1522  0.6006  0.8046
 9015TIP3   OH248459   0.807   0.567  17.272  0.2975  0.1245 -0.2296
 9015TIP3    H148460   0.840   0.566  17.182 -0.4721  1.0988 -0.5365
 9015TIP3    H248461   0.828   0.654  17.305 -0.9295  0.3845 -0.0600
 9016TIP3   OH248462   0.646   5.875   5.461 -0.3309 -0.7855  0.0963
 9016TIP3    H148463   0.601   5.817   5.522  0.1979 -1.1479  0.1549
 9016TIP3    H248464   0.697   5.816   5.406  1.2849 -0.3131  1.0252
 9017TIP3   OH248465   1.648   5.729   2.808  0.4935  0.1979 -0.0934
 9017TIP3    H148466   1.699   5.774   2.740  1.5997  1.5102  1.5228
 9017TIP3    H248467   1.619   5.800   2.865  0.7099 -0.9774  1.5199
 9018TIP3   OH248468   3.300   3.774   4.779 -0.3531 -0.6032  0.3315
 9018TIP3    H148469   3.318   3.728   4.697 -0.4419 -0.2717  0.1252
 9018TIP3    H248470   3.339   3.718   4.847 -1.2235 -1.4439  0.1726
 9019TIP3   OH248471   1.380   0.147  16.721  0.1473  0.4536  0.1851
 9019TIP3    H148472   1.415   0.076  16.775  0.4286  1.4704  1.3893
 9019TIP3    H248473   1.375   0.110  16.633  2.6348 -0.3032  0.2713
 9020TIP3   OH248474   2.063   2.837  12.629 -0.2912  0.3634  0.3780
 9020TIP3    H148475   2.017   2.919  12.608 -0.0006  0.2829 -0.6269
 9020TIP3    H248476   2.128   2.828  12.560 -0.3279 -0.7270  0.4679
 9021TIP3   OH248477   5.876   3.413  15.611  0.4488  0.7984  0.2029
 9021TIP3    H148478   5.967   3.392  15.589  0.3147 -1.0883  1.1827
 9021TIP3    H248479   5.841   3.454  15.533  2.3632  2.3606  0.0976
 9022TIP3   OH248480   5.870   2.634  15.888 -0.5036  0.2740  0.1553
 9022TIP3    H148481   5.788   2.617  15.935  0.3068  1.5896  2.1923
 9022TIP3    H248482   5.938   2.617  15.953  0.9597 -1.7791 -1.7898
 9023TIP3   OH248483   5.103   2.001  12.805 -0.1609  0.3174 -0.1481
 9023TIP3    H148484   5.071   2.074  12.858 -0.7402 -0.0918  0.0658
 9023TIP3    H248485   5.137   1.938  12.869 -2.5996 -1.0429 -0.0846
 9024TIP3   OH248486   0.422   5.371   6.039  0.2102  0.5449  0.5094
 9024TIP3    H148487   0.388   5.399   6.124 -2.2853 -0.0876 -0.2018
 9024TIP3    H248488   0.468   5.288   6.058  0.2146  0.7181  1.3129
 9025TIP3   OH248489   6.550   3.593  13.055 -0.0429 -0.3446  0.4847
 9025TIP3    H148490   6.508   3.629  13.133  0.0570 -0.2035  0.4729
 9025TIP3    H248491   6.589   3.668  13.011 -1.6391 -0.1088 -0.6607
 9026TIP3   OH248492   3.431   6.533  15.361  0.1137 -0.0278 -0.4714
 9026TIP3    H148493   3.373   6.457  15.357  0.2202 -0.0818 -1.1410
 9026TIP3    H248494   3.375   6.606  15.333  0.4101 -0.1131 -1.3286
 9027TIP3   OH248495   3.252   6.716   2.800 -0.3482  0.6621 -0.3987
 9027TIP3    H148496   3.157   6.726   2.798 -0.4937  0.8533  2.8785
 9027TIP3    H248497   3.266   6.634   2.846  1.0704  1.2409  0.2379
 9028TIP3   OH248498   2.813   5.420  14.380  0.2796 -0.5911 -0.6886
 9028TIP3    H148499   2.797   5.326  14.377  1.3548 -0.8646  0.6464
 9028TIP3    H248500   2.741   5.455  14.433 -0.1329 -0.6617 -1.2041
 9029TIP3   OH248501   6.361   4.426   0.012  0.1103 -0.2404  0.2092
 9029TIP3    H148502   6.323   4.444  -0.074  0.7907 -0.4136 -0.1376
 9029TIP3    H248503   6.390   4.335   0.007 -0.2344 -0.3858  0.7730
 9030TIP3   OH248504   3.425   5.458   4.101  0.1757 -0.0582  0.2823
 9030TIP3    H148505   3.443   5.370   4.069  0.8692 -0.3541  1.4199
 9030TIP3    H248506   3.333   5.456   4.127  0.2050 -0.4573  0.3586
 9031TIP3   OH248507   1.980   1.220  13.550  0.3191 -0.7381  0.6579
 9031TIP3    H148508   2.074   1.235  13.545 -0.0611  2.1776  0.4381
 9031TIP3    H248509   1.953   1.264  13.630 -1.1268  0.5552 -0.4690
 9032TIP3   OH248510   5.769   6.214  14.442 -0.6914  0.0055 -0.2684
 9032TIP3    H148511   5.735   6.143  14.387 -1.6796 -0.0360  0.3670
 9032TIP3    H248512   5.777   6.289  14.384 -0.5207 -0.3775 -0.7434
 9033TIP3   OH248513   0.539   6.418   6.216 -0.2199 -0.3086 -0.1803
 9033TIP3    H148514   0.526   6.323   6.212  2.1863 -0.6698 -1.3607
 9033TIP3    H248515   0.475   6.454   6.155 -1.3105 -1.1317  0.4445
 9034TIP3   OH248516   2.376   4.241  11.310 -0.0468 -0.0627 -0.4399
 9034TIP3    H148517   2.351   4.333  11.299 -1.7187 -0.3655  0.4554
 9034TIP3    H248518   2.305   4.203  11.363  0.8534 -1.7534 -0.3769
 9035TIP3   OH248519   5.128   2.801   1.208 -0.2818 -0.4307  0.0783
 9035TIP3    H148520   5.178   2.879   1.184  0.7851 -0.8140  0.9537
 9035TIP3    H248521   5.189   2.729   1.192 -1.2694 -1.1034 -0.7657
 9036TIP3   OH248522   3.011   2.589  13.087 -0.1609 -0.0302 -0.4253
 9036TIP3    H148523   2.926   2.562  13.120  0.4947 -0.8475  0.6605
 9036TIP3    H248524   3.040   2.516  13.032  0.4069 -0.3480  0.2810
 9037TIP3   OH248525   0.510   1.481  16.197 -0.5941  0.5036  0.1066
 9037TIP3    H148526   0.486   1.407  16.140 -0.0303  0.7865 -0.5116
 9037TIP3    H248527   0.464   1.464  16.279 -0.9215 -0.2414 -0.2229
 9038TIP3   OH248528   1.471   3.193  16.726  0.2642 -0.0754  0.2649
 9038TIP3    H148529   1.484   3.219  16.817  1.2659 -2.9181  1.0660
 9038TIP3    H248530   1.556   3.209  16.684  0.2639 -0.1770  0.2255
 9039TIP3   OH248531   6.686   2.321  12.177  0.0287  0.6491 -0.3925
 9039TIP3    H148532   6.763   2.375  12.161 -0.0388  0.2901 -2.2122
 9039TIP3    H248533   6.645   2.312  12.091 -0.7175 -1.1481  0.0996
 9040TIP3   OH248534   4.010   1.028  15.324  0.1038  0.0852  0.1157
 9040TIP3    H148535   3.917   1.010  15.331 -0.1538  0.1550 -2.2730
 9040TIP3    H248536   4.037   0.983  15.244  2.3242 -0.6357  1.1684
 9041TIP3   OH248537   3.681   3.860   1.035 -0.2141 -0.7185  0.4108
 9041TIP3    H148538   3.630   3.931   1.075 -0.7151  1.4412 -3.5297
 9041TIP3    H248539   3.757   3.849   1.092 -0.4914  2.5020  1.5931
 9042TIP3   OH248540   0.594   2.804   1.818  0.0518  0.1872 -0.9148
 9042TIP3    H148541   0.656   2.785   1.747  1.5980  1.6577 -0.0120
 9042TIP3    H248542   0.646   2.798   1.898 -0.5351  2.9424 -0.2220
 9043TIP3   OH248543   3.469   0.646  15.342 -0.4440  0.4285 -0.0337
 9043TIP3    H148544   3.554   0.615  15.311 -0.1884 -0.0913  1.1501
 9043TIP3    H248545   3.464   0.618  15.433 -1.3183  1.6334  0.3202
 9044TIP3   OH248546   3.930   6.275   2.090 -0.0435 -0.1223 -0.0839
 9044TIP3    H148547   3.977   6.312   2.015 -1.6993  0.0436 -1.0973
 9044TIP3    H248548   3.915   6.184   2.065 -0.3593 -0.1400  0.1731
 9045TIP3   OH248549   3.964   5.967  14.742  0.2385  0.0046  0.0445
 9045TIP3    H148550   3.947   5.898  14.807  2.1242  0.0906  0.6711
 9045TIP3    H248551   3.984   5.920  14.661  2.8358 -0.2955  0.7875
 9046TIP3   OH248552   4.797   6.592  17.139  0.1309 -0.0727  0.1758
 9046TIP3    H148553   4.715   6.597  17.091 -0.2248  0.1261  0.7918
 9046TIP3    H248554   4.806   6.499  17.161  0.7144 -0.3070 -0.9683
 9047TIP3   OH248555   4.757   0.602  10.736  0.2390  0.6190 -0.1728
 9047TIP3    H148556   4.813   0.670  10.698  0.6661 -0.1675 -0.9926
 9047TIP3    H248557   4.692   0.585  10.668 -0.0802  0.4516  0.1746
 9048TIP3   OH248558   6.434   0.289  16.068  0.3575 -0.0684 -0.5855
 9048TIP3    H148559   6.354   0.337  16.044 -0.6417 -0.3707  1.7721
 9048TIP3    H248560   6.408   0.197  16.067 -0.3070 -0.0699  2.8744
 9049TIP3   OH248561   1.976   0.405  12.426 -0.2682  0.0874  0.3854
 9049TIP3    H148562   1.959   0.420  12.333 -1.5620 -0.1054  0.5669
 9049TIP3    H248563   1.924   0.328  12.447 -0.8013  0.7316  1.4994
 9050TIP3   OH248564   2.136   0.615  16.712 -0.4246  0.0090  0.2203
 9050TIP3    H148565   2.110   0.707  16.705 -2.6006 -0.0797  4.4270
 9050TIP3    H248566   2.078   0.569  16.650  0.6676  1.3304 -1.9076
 9051TIP3   OH248567   0.997   5.166  16.825  0.3383 -0.4209 -0.3045
 9051TIP3    H148568   1.064   5.232  16.811  0.9356 -0.6585  1.2558
 9051TIP3    H248569   0.982   5.167  16.920 -1.6423 -0.5936 -0.5699
 9052TIP3   OH248570   3.628   1.733  16.418 -0.4288  0.2651  0.0054
 9052TIP3    H148571   3.661   1.699  16.335 -0.6087 -0.7366  0.3357
 9052TIP3    H248572   3.588   1.658  16.461  0.1121  0.6498  1.2324
 9053TIP3   OH248573   6.030   2.845   0.052 -0.2376 -0.3686  0.1296
 9053TIP3    H148574   5.958   2.893   0.011  1.1925  1.3106 -0.5509
 9053TIP3    H248575   6.000   2.826   0.141 -1.9424 -0.7559 -0.4979
 9054TIP3   OH248576   3.223   5.468   6.806 -0.5381  0.2194  0.0590
 9054TIP3    H148577   3.290   5.455   6.739  0.7757  0.6943  1.2094
 9054TIP3    H248578   3.140   5.472   6.758  0.3948  1.0417 -1.5810
 9055TIP3   OH248579   0.285   3.163   4.673  0.2690  0.4600  0.9153
 9055TIP3    H148580   0.321   3.145   4.586 -1.3895  2.4470 -0.2945
 9055TIP3    H248581   0.211   3.102   4.681  0.5927  0.0856  1.0478
 9056TIP3   OH248582   4.450   1.510  13.530 -0.0891 -0.0805 -0.7591
 9056TIP3    H148583   4.469   1.545  13.443  2.8164  0.7590  0.0951
 9056TIP3    H248584   4.429   1.587  13.582  1.5835 -0.1062  0.0209
 9057TIP3   OH248585   1.927   5.927  12.999  0.1181  0.3367 -0.5138
 9057TIP3    H148586   1.859   5.867  13.030 -0.5323  0.8861 -0.8817
 9057TIP3    H248587   2.009   5.881  13.019 -0.2905  0.2849  1.2430
 9058TIP3   OH248588   6.676   2.767   3.951  0.1576 -0.5554  0.0472
 9058TIP3    H148589   6.758   2.723   3.929 -0.4817 -1.5506 -0.4108
 9058TIP3    H248590   6.611   2.726   3.894 -0.6435  0.2886  0.3373
 9059TIP3   OH248591   3.798   4.410   2.754  0.6260  0.4324 -0.2658
 9059TIP3    H148592   3.703   4.421   2.762  0.5949  0.9438 -1.1632
 9059TIP3    H248593   3.817   4.330   2.801 -0.0829  0.9620  0.9786
 9060TIP3   OH248594   3.268   5.536  11.971 -0.7452  0.2498  0.6422
 9060TIP3    H148595   3.283   5.630  11.968  0.1088  0.1894  2.0580
 9060TIP3    H248596   3.285   5.512  12.062  2.5106 -1.8170 -0.3687
 9061TIP3   OH248597   1.607   0.040   0.514  0.3105  0.4562  0.4514
 9061TIP3    H148598   1.559   0.012   0.591  1.2837 -0.4719  0.7498
 9061TIP3    H248599   1.580  -0.021   0.445  1.3128 -0.3339  0.7232
 9062TIP3   OH248600   6.665   6.219  16.191 -0.6734 -0.3935  0.1202
 9062TIP3    H148601   6.679   6.309  16.221 -1.6364  0.1420 -0.9308
 9062TIP3    H248602   6.749   6.192  16.155 -0.6511  0.5254 -0.5789
 9063TIP3   OH248603   5.457   3.339  14.047 -0.3420  0.2862  0.2637
 9063TIP3    H148604   5.503   3.383  13.976  1.8369 -0.5279  1.0938
 9063TIP3    H248605   5.526   3.301  14.102 -1.9726 -0.2512  2.0963
 9064TIP3   OH248606   1.410   1.319   5.134  0.4063  0.5879 -0.1461
 9064TIP3    H148607   1.346   1.340   5.066  0.2086 -0.8397 -0.4473
 9064TIP3    H248608   1.358   1.315   5.214 -0.0726 -1.2481 -0.4924
 9065TIP3   OH248609   6.164   1.399   0.632 -0.1821  0.9276 -0.3779
 9065TIP3    H148610   6.228   1.332   0.657 -1.0545 -0.2828 -1.2740
 9065TIP3    H248611   6.140   1.441   0.714  0.9836  0.6973  0.1065
 9066TIP3   OH248612   3.816   2.854  16.051  0.0209 -0.0559  0.1002
 9066TIP3    H148613   3.819   2.920  16.121  1.1002 -0.2378  0.2348
 9066TIP3    H248614   3.855   2.776  16.090 -0.5619 -0.5584 -0.3041
 9067TIP3   OH248615   5.906   0.916   2.134 -0.6151 -0.0259 -0.3010
 9067TIP3    H148616   5.931   0.886   2.222 -1.5751  0.8856  0.3047
 9067TIP3    H248617   5.813   0.935   2.141 -0.5872  0.5576 -1.3800
 9068TIP3   OH248618   1.288   0.779  16.641 -0.6162 -0.2984 -0.9409
 9068TIP3    H148619   1.365   0.754  16.590  0.8409  1.6933  0.1335
 9068TIP3    H248620   1.232   0.825  16.578  1.1083  2.0481 -0.9060
 9069TIP3   OH248621   5.545   1.394  15.643  0.1094  0.4792 -0.2358
 9069TIP3    H148622   5.553   1.448  15.564 -1.9513 -0.0994 -0.9075
 9069TIP3    H248623   5.460   1.350  15.634 -1.1097  1.7911  3.1805
 9070TIP3   OH248624   6.005   0.019  13.764 -0.7458 -0.3873 -0.0887
 9070TIP3    H148625   6.031  -0.064  13.803 -1.7252 -1.4324 -1.5078
 9070TIP3    H248626   5.991   0.077  13.838  1.0738 -1.1173  0.8939
 9071TIP3   OH248627   5.877   0.279  16.520 -0.2821  0.2097  0.3622
 9071TIP3    H148628   5.894   0.363  16.564  0.8125  0.3766 -0.3403
 9071TIP3    H248629   5.849   0.303  16.432 -1.9291 -0.1402  0.7579
 9072TIP3   OH248630   2.224   0.935   0.356 -0.5366 -0.8060  0.1089
 9072TIP3    H148631   2.171   0.973   0.286  0.4152 -2.4780 -1.6257
 9072TIP3    H248632   2.176   0.857   0.383  0.4177 -1.6720 -0.6373
 9073TIP3   OH248633   0.422   5.177  17.318 -0.0725 -0.3465  0.0034
 9073TIP3    H148634   0.374   5.120  17.259 -1.2039 -0.2893  0.8330
 9073TIP3    H248635   0.454   5.248  17.262  1.0974 -1.6086 -0.9770
 9074TIP3   OH248636   0.936   0.147   2.293  0.3371 -0.3639  0.5831
 9074TIP3    H148637   0.957   0.236   2.266 -0.8976  0.2963  1.6942
 9074TIP3    H248638   0.889   0.110   2.219 -0.0207  0.2503  0.5032
 9075TIP3   OH248639   3.295   4.964  15.067  0.3576  0.1379  0.5512
 9075TIP3    H148640   3.260   4.948  14.979 -0.3016 -0.5128  0.9212
 9075TIP3    H248641   3.306   5.059  15.071 -1.3893  0.3811  0.4032
 9076TIP3   OH248642   1.120   5.915  16.401 -0.1905 -0.0499 -0.0289
 9076TIP3    H148643   1.191   5.874  16.450 -0.4328 -2.8324 -1.7915
 9076TIP3    H248644   1.163   5.980  16.346  0.3732  1.3363  1.9376
 9077TIP3   OH248645   4.361   0.509   1.766 -0.3801  0.1981  0.4086
 9077TIP3    H148646   4.395   0.450   1.698  0.0157  0.3344  0.4854
 9077TIP3    H248647   4.280   0.467   1.795 -0.8642  0.4348 -0.5489
 9078TIP3   OH248648   4.222   3.472  17.110 -0.1632  0.0668 -0.6628
 9078TIP3    H148649   4.275   3.412  17.058  0.8217  0.3448 -0.0148
 9078TIP3    H248650   4.133   3.460  17.077  0.1288 -1.1775 -1.0639
 9079TIP3   OH248651   1.321   2.087  11.859  0.3555 -0.6323 -0.6715
 9079TIP3    H148652   1.282   2.151  11.799 -1.0693  1.2379  2.0415
 9079TIP3    H248653   1.248   2.058  11.914  1.8743 -0.8085  1.3714
 9080TIP3   OH248654   1.086   6.521   2.267  0.3546  0.1331 -0.3804
 9080TIP3    H148655   0.998   6.533   2.302  0.5751 -0.9718  0.6083
 9080TIP3    H248656   1.093   6.585   2.196 -1.4272 -0.1234 -0.8291
 9081TIP3   OH248657   6.449   2.993  12.380  0.3075 -0.0954 -0.2141
 9081TIP3    H148658   6.410   3.073  12.344  2.0889  1.1818  0.5292
 9081TIP3    H248659   6.513   3.024  12.444  2.5944 -2.0145 -1.4033
 9082TIP3   OH248660   3.393   5.726  15.541 -0.3279  0.3498 -0.1517
 9082TIP3    H148661   3.347   5.733  15.457  2.1643  0.5559 -1.6284
 9082TIP3    H248662   3.420   5.816  15.561 -1.0308  0.3241  0.9813
 9083TIP3   OH248663   6.144   0.596  13.796  0.3663  0.6413  0.4755
 9083TIP3    H148664   6.168   0.680  13.757 -0.9864  0.6533 -0.4029
 9083TIP3    H248665   6.101   0.619  13.878  0.6080  0.7697  0.5669
 9084TIP3   OH248666   1.920   3.654  13.202  0.1374 -0.2239  0.1000
 9084TIP3    H148667   2.009   3.622  13.214 -0.0783 -1.7928 -2.0001
 9084TIP3    H248668   1.905   3.649  13.108 -2.0804  0.2592  0.3785
 9085TIP3   OH248669   2.743   3.422   3.860 -0.2676  0.9241 -0.9316
 9085TIP3    H148670   2.766   3.357   3.793 -1.3118 -1.4642  0.8400
 9085TIP3    H248671   2.740   3.505   3.813  1.1888 -0.2673 -3.3522
 9086TIP3   OH248672   3.325   5.980   1.868  0.3721  0.2630  0.0582
 9086TIP3    H148673   3.328   5.920   1.793  0.2948 -1.1196  1.1099
 9086TIP3    H248674   3.378   6.055   1.841  2.9392 -1.5322 -0.2804
 9087TIP3   OH248675   0.319   5.988   1.218 -0.9768  0.1511  0.1316
 9087TIP3    H148676   0.342   5.994   1.125  0.8313 -1.1930  0.4251
 9087TIP3    H248677   0.360   6.065   1.258 -0.5851  0.0081  0.0070
 9088TIP3   OH248678   1.043   0.751   1.527  0.2282  0.4023 -0.3633
 9088TIP3    H148679   1.132   0.716   1.516 -0.0295 -0.3378 -0.1070
 9088TIP3    H248680   1.057   0.835   1.572  0.8013  0.3075 -0.3496
 9089TIP3   OH248681   2.564   1.565   5.383 -0.0417  0.4130 -0.2435
 9089TIP3    H148682   2.589   1.474   5.367 -0.4130  0.4692 -1.2280
 9089TIP3    H248683   2.577   1.577   5.477  1.5469 -0.1802 -0.3608
 9090TIP3   OH248684   1.392   2.548  16.823  0.1671  0.0775  0.2966
 9090TIP3    H148685   1.334   2.621  16.846 -0.8285 -0.5053 -0.3278
 9090TIP3    H248686   1.393   2.548  16.727  0.4104 -0.5437  0.2972
 9091TIP3   OH248687   0.398   4.108   0.038  0.4170  0.2142  0.3026
 9091TIP3    H148688   0.381   4.073   0.125 -0.9414 -1.6090 -0.6330
 9091TIP3    H248689   0.483   4.072   0.013  0.0601 -0.6283  0.2566
 9092TIP3   OH248690   1.467   5.368   3.596 -0.5559  0.1669  0.0957
 9092TIP3    H148691   1.425   5.446   3.562 -2.4801 -0.3964  1.0754
 9092TIP3    H248692   1.406   5.297   3.576  0.3769 -0.8406  0.7150
 9093TIP3   OH248693   5.414   6.231   5.379 -0.0719 -0.2470  0.3269
 9093TIP3    H148694   5.411   6.149   5.428 -1.2713  0.5007  1.5790
 9093TIP3    H248695   5.425   6.298   5.446 -1.9768  0.8341 -0.3703
 9094TIP3   OH248696   4.106   2.915  15.072  0.0545 -0.1956 -0.4311
 9094TIP3    H148697   4.015   2.946  15.077  0.1506  0.0557 -0.2597
 9094TIP3    H248698   4.098   2.819  15.073 -0.1436 -0.1801  0.8596
 9095TIP3   OH248699   6.125   2.185  11.155 -0.0289  0.1694 -0.5178
 9095TIP3    H148700   6.106   2.278  11.139  0.6279  0.3095 -0.5392
 9095TIP3    H248701   6.118   2.144  11.069  1.6117  0.5719 -0.8841
 9096TIP3   OH248702   2.053   1.592  13.282  0.4740  0.1914  0.6265
 9096TIP3    H148703   2.074   1.515  13.227  1.4486 -0.2026  1.5187
 9096TIP3    H248704   2.089   1.666  13.233 -2.2671  0.4074 -1.2721
 9097TIP3   OH248705   6.039   3.118   5.589  0.2870 -0.3525 -0.0848
 9097TIP3    H148706   6.035   3.112   5.685  0.5952 -0.2811 -0.0667
 9097TIP3    H248707   5.990   3.198   5.569  0.4812 -0.2018  0.0361
 9098TIP3   OH248708   2.439   0.338   5.952 -0.6331 -0.2464 -0.4158
 9098TIP3    H148709   2.433   0.361   6.045 -0.3149  0.8941 -0.6711
 9098TIP3    H248710   2.384   0.402   5.908  0.4321  0.1777 -1.1615
 9099TIP3   OH248711   0.028   4.471   4.380  0.1310 -0.9064  0.0629
 9099TIP3    H148712   0.022   4.567   4.385  3.8972 -0.5281 -0.2905
 9099TIP3    H248713   0.077   4.453   4.300  1.8375 -2.9251  1.4415
 9100TIP3   OH248714   1.441   2.386  17.259 -0.1248  0.3701  0.6431
 9100TIP3    H148715   1.425   2.479  17.243  1.0447  0.4819 -0.0556
 9100TIP3    H248716   1.495   2.384  17.338 -0.6207  0.2516  0.9758
 9101TIP3   OH248717   4.056   0.466   5.738 -0.0752 -0.0236 -0.1506
 9101TIP3    H148718   4.111   0.388   5.724 -0.5901 -0.7944  1.7079
 9101TIP3    H248719   4.044   0.503   5.651  0.2350 -2.0092 -1.1036
 9102TIP3   OH248720   2.988   4.419  16.552  0.3328 -1.0176 -0.4979
 9102TIP3    H148721   2.985   4.429  16.457  0.3288 -0.8255 -0.4773
 9102TIP3    H248722   2.904   4.379  16.574  0.0915 -0.5155 -0.5098
 9103TIP3   OH248723   0.843   1.851  16.820 -0.2636 -0.2102 -0.0558
 9103TIP3    H148724   0.753   1.819  16.825 -0.6350  0.6835 -0.7729
 9103TIP3    H248725   0.869   1.834  16.729 -0.3135  1.0681 -0.3230
 9104TIP3   OH248726   2.959   5.653  12.056  0.7531 -0.1687  0.3200
 9104TIP3    H148727   2.896   5.581  12.061  0.4596  0.0451 -0.1559
 9104TIP3    H248728   2.989   5.665  12.146 -0.4436  0.2177  0.6931
 9105TIP3   OH248729   4.228   0.463  13.456  0.3622  0.4843 -0.1668
 9105TIP3    H148730   4.141   0.498  13.436  0.1242  0.5225  0.8470
 9105TIP3    H248731   4.252   0.411  13.380 -1.0187 -0.4093 -0.0187
 9106TIP3   OH248732   3.215   2.478  17.303 -0.1347  0.2384  0.5179
 9106TIP3    H148733   3.238   2.534  17.377  0.9352  0.3960  0.0838
 9106TIP3    H248734   3.126   2.504  17.280  0.5456  2.2417 -0.0812
 9107TIP3   OH248735   6.686   6.742   5.508 -0.5207 -0.1176  0.1557
 9107TIP3    H148736   6.611   6.774   5.558 -2.7504 -1.9569 -1.8425
 9107TIP3    H248737   6.697   6.651   5.536  1.7559  0.4156  1.2245
 9108TIP3   OH248738   1.758   5.663  15.741 -0.3730 -0.7213 -0.1692
 9108TIP3    H148739   1.710   5.716  15.678 -2.1094 -2.2601 -0.2252
 9108TIP3    H248740   1.743   5.706  15.825  1.5886  1.0846 -0.6519
 9109TIP3   OH248741   5.796   6.309  16.337  0.1310  0.2683 -0.2233
 9109TIP3    H148742   5.729   6.266  16.284  0.6623 -1.0628  0.1409
 9109TIP3    H248743   5.839   6.369  16.277 -1.9980  1.9330 -0.2385
 9110TIP3   OH248744   3.786   2.166   2.672 -0.5195 -0.5864  0.1054
 9110TIP3    H148745   3.804   2.248   2.625  0.1047  0.4912  2.0976
 9110TIP3    H248746   3.716   2.189   2.733  0.3331 -1.2667  1.3578
 9111TIP3   OH248747   0.268   3.910  11.298  0.5484 -0.2740  0.0514
 9111TIP3    H148748   0.216   3.983  11.331  2.3656  0.9010  0.4671
 9111TIP3    H248749   0.313   3.945  11.221  2.1200 -0.6482  0.7599
 9112TIP3   OH248750   2.918   4.321   4.282 -0.9118 -0.0763  0.0594
 9112TIP3    H148751   2.919   4.258   4.209  0.5263  0.2635 -0.2555
 9112TIP3    H248752   2.912   4.267   4.360  0.9366 -0.7012 -0.1770
 9113TIP3   OH248753   3.067   6.738  15.377 -0.2004  0.0849 -0.1206
 9113TIP3    H148754   3.120   6.733  15.456 -0.4887  1.5792  0.1842
 9113TIP3    H248755   2.992   6.682  15.394  0.1034 -0.1746  0.3697
 9114TIP3   OH248756   6.655   1.527   4.284 -0.2045  0.5230 -0.3703
 9114TIP3    H148757   6.745   1.555   4.266  0.2350  0.1341  1.1244
 9114TIP3    H248758   6.651   1.438   4.250 -0.2096  0.7444 -0.9632
 9115TIP3   OH248759   5.011   4.638  13.047 -0.1726  0.1937 -0.5579
 9115TIP3    H148760   5.076   4.578  13.084 -1.3329 -0.3018  0.7626
 9115TIP3    H248761   5.049   4.664  12.963  0.5304 -2.1712 -1.0767
 9116TIP3   OH248762   1.587   2.989   2.328  0.3923  0.4805  0.2373
 9116TIP3    H148763   1.635   2.991   2.245 -0.0806  1.6310 -0.0299
 9116TIP3    H248764   1.503   3.030   2.308 -0.4306 -0.8547  0.8800
 9117TIP3   OH248765   5.185   2.194   4.787 -0.3480 -0.0064  0.7068
 9117TIP3    H148766   5.209   2.269   4.733 -1.2049 -0.6691 -0.6267
 9117TIP3    H248767   5.135   2.232   4.860  0.6571  0.8660  0.9663
 9118TIP3   OH248768   5.923   0.720   3.460 -0.0129 -0.0885  0.3969
 9118TIP3    H148769   5.959   0.662   3.394  0.4790  0.5154  0.1283
 9118TIP3    H248770   5.976   0.705   3.538  0.4392  0.3617  0.1791
 9119TIP3   OH248771   5.291   2.343  13.601 -0.0082  0.0478  1.0270
 9119TIP3    H148772   5.334   2.429  13.599 -1.6532  0.9178  0.0984
 9119TIP3    H248773   5.328   2.296  13.527  0.1735  0.3431  0.9253
 9120TIP3   OH248774   5.714   5.971  14.995 -0.2373 -0.2418 -0.3990
 9120TIP3    H148775   5.774   5.961  15.069 -1.3522 -0.7795  0.4652
 9120TIP3    H248776   5.760   5.933  14.921  0.2418 -1.2415  0.3908
 9121TIP3   OH248777   6.505   3.958   0.913 -0.2710  0.6022 -0.2848
 9121TIP3    H148778   6.468   4.046   0.923 -0.4451  0.5574 -0.5312
 9121TIP3    H248779   6.595   3.966   0.944 -0.9385  0.3482  1.8832
 9122TIP3   OH248780   3.321   1.807  12.775  0.1682  0.4126 -1.2246
 9122TIP3    H148781   3.264   1.879  12.802  0.8909  0.3810  0.5002
 9122TIP3    H248782   3.290   1.732  12.826  2.3311  0.6304  0.5835
 9123TIP3   OH248783   5.177   4.205  15.559 -0.4365  0.4524 -1.0478
 9123TIP3    H148784   5.177   4.292  15.519 -0.8031  0.5773 -0.7740
 9123TIP3    H248785   5.243   4.210  15.628 -1.2870  0.8809 -0.2399
 9124TIP3   OH248786   5.032   6.657   6.670 -0.2988 -0.0954  0.2991
 9124TIP3    H148787   5.094   6.588   6.645  0.5761  1.0189 -0.7317
 9124TIP3    H248788   4.946   6.616   6.661  0.1868 -0.9948 -0.4938
 9125TIP3   OH248789   2.397   0.322  12.361  0.5312  1.0164 -0.3500
 9125TIP3    H148790   2.311   0.358  12.342  0.5147  0.4177 -1.5556
 9125TIP3    H248791   2.452   0.354  12.289  1.1597  0.8707  0.0576
 9126TIP3   OH248792   3.957   1.325  13.896  0.0361 -0.3174 -0.0289
 9126TIP3    H148793   4.009   1.357  13.822 -0.7858 -1.7535 -1.2787
 9126TIP3    H248794   3.866   1.338  13.869 -0.2841 -1.3399  0.4931
 9127TIP3   OH248795   6.415   6.100  12.744 -0.1772 -0.0060  0.3700
 9127TIP3    H148796   6.406   6.008  12.768  0.2420  0.3337  1.9580
 9127TIP3    H248797   6.509   6.117  12.750 -0.0247  0.1482 -1.5594
 9128TIP3   OH248798   0.480   6.125   6.244 -0.0732 -0.1569 -0.0598
 9128TIP3    H148799   0.499   6.079   6.326  0.7733 -1.2319 -0.8356
 9128TIP3    H248800   0.541   6.088   6.181  2.2775  3.5880 -0.2768
 9129TIP3   OH248801   2.059   3.621   2.140  0.2478 -0.2365 -0.1711
 9129TIP3    H148802   2.121   3.624   2.212 -0.0779  2.6790  0.0890
 9129TIP3    H248803   2.114   3.612   2.061  0.9765  1.5293  0.1091
 9130TIP3   OH248804   3.842   2.615  17.163  0.4888 -0.3396 -0.0775
 9130TIP3    H148805   3.910   2.655  17.217 -0.4584  1.6394 -0.2593
 9130TIP3    H248806   3.765   2.671  17.176 -0.4319 -1.1646 -1.6631
 9131TIP3   OH248807   5.600   0.224   4.458 -0.3593  0.6676 -0.2925
 9131TIP3    H148808   5.677   0.259   4.501  0.3252  0.1207 -1.0432
 9131TIP3    H248809   5.602   0.261   4.370 -2.5587  2.9906  0.4978
 9132TIP3   OH248810   1.727   0.982  15.782  0.3875 -0.4870  0.0006
 9132TIP3    H148811   1.772   0.899  15.797 -0.1022 -0.7047  0.2766
 9132TIP3    H248812   1.797   1.048  15.788  0.7581 -0.8669 -0.1058
 9133TIP3   OH248813   6.516   5.851   5.729 -0.2450 -0.2086 -0.4104
 9133TIP3    H148814   6.567   5.783   5.684 -1.4655 -1.4866  0.0375
 9133TIP3    H248815   6.568   5.874   5.806  1.2068  0.9937 -1.6936
 9134TIP3   OH248816   4.603   4.267   0.308  0.0949  0.3661  0.0880
 9134TIP3    H148817   4.659   4.190   0.305 -0.2170  0.1616 -1.6738
 9134TIP3    H248818   4.582   4.284   0.216 -1.4820  1.3423  0.6012
 9135TIP3   OH248819   2.855   0.559  14.569  0.0061 -0.5305  0.3056
 9135TIP3    H148820   2.801   0.542  14.646 -1.0580  0.0420 -0.2872
 9135TIP3    H248821   2.892   0.646  14.584 -0.7320 -0.1349 -0.1096
 9136TIP3   OH248822   0.132   5.347   5.927  0.6944 -0.2859 -0.0698
 9136TIP3    H148823   0.217   5.356   5.970  1.3011  0.5376 -1.3790
 9136TIP3    H248824   0.084   5.283   5.980  1.5783  0.3465  1.5286
 9137TIP3   OH248825   3.209   5.012   0.491  0.1224  0.0151 -0.2933
 9137TIP3    H148826   3.165   4.951   0.550 -0.7419 -0.0531 -0.9855
 9137TIP3    H248827   3.226   5.089   0.544  1.1594 -0.7797  0.5743
 9138TIP3   OH248828   2.724   0.910  14.884 -0.9109 -0.2138 -0.0807
 9138TIP3    H148829   2.669   0.833  14.875 -2.4112  0.8025  0.1603
 9138TIP3    H248830   2.675   0.981  14.842  0.4307  0.6370 -0.3107
 9139TIP3   OH248831   3.304   5.236   2.476 -0.4431  0.9564  0.1888
 9139TIP3    H148832   3.286   5.209   2.386  0.5169  0.7154  0.0666
 9139TIP3    H248833   3.224   5.282   2.503 -0.2700  2.1745 -1.2237
 9140TIP3   OH248834   4.693   2.267  17.373 -0.9133  0.4465 -0.1372
 9140TIP3    H148835   4.665   2.203  17.438 -1.3441  1.0763  0.3090
 9140TIP3    H248836   4.640   2.345  17.391 -1.8699  0.2695 -1.9409
 9141TIP3   OH248837   5.713   2.641  14.440 -0.0665 -0.3922  0.0216
 9141TIP3    H148838   5.796   2.675  14.472  0.6973 -1.0831 -1.1236
 9141TIP3    H248839   5.650   2.710  14.457  1.0031  0.6887 -0.2759
 9142TIP3   OH248840   5.848   1.362   2.754  0.0437 -0.3217  0.7296
 9142TIP3    H148841   5.821   1.308   2.828 -0.7595 -1.0620 -0.0766
 9142TIP3    H248842   5.767   1.379   2.706  0.5625  0.0928 -0.0216
 9143TIP3   OH248843   1.339   0.787  12.951 -0.5113  0.3961  0.3041
 9143TIP3    H148844   1.305   0.783  12.861 -1.9471 -1.7449  0.8816
 9143TIP3    H248845   1.261   0.777  13.006  0.3624  1.5758  1.8142
 9144TIP3   OH248846   2.189   4.810   3.875 -0.0227 -0.1413 -0.3455
 9144TIP3    H148847   2.275   4.852   3.877 -0.6654  1.2991 -1.6214
 9144TIP3    H248848   2.152   4.827   3.962  0.8228 -0.4475  0.0820
 9145TIP3   OH248849   0.485   5.596   0.606  0.5013  0.2144  0.6119
 9145TIP3    H148850   0.403   5.548   0.618  0.9084 -0.5252  0.4775
 9145TIP3    H248851   0.462   5.668   0.547  0.1810 -0.6477 -0.3517
 9146TIP3   OH248852   6.147   1.334  13.695 -0.0996  0.5299  0.0763
 9146TIP3    H148853   6.127   1.396  13.625 -1.9626 -1.0050 -0.8611
 9146TIP3    H248854   6.082   1.264  13.683 -0.9565  0.5022  3.7545
 9147TIP3   OH248855   3.095   0.833   0.028 -0.0853  0.2102 -0.7408
 9147TIP3    H148856   3.133   0.889   0.095 -0.1654 -1.3646  0.7029
 9147TIP3    H248857   3.073   0.892  -0.044  0.4579  1.8892  0.4149
 9148TIP3   OH248858   5.989   4.946   2.601  0.4432 -0.1272  0.2143
 9148TIP3    H148859   6.003   5.041   2.602 -0.6921  0.0774 -0.6516
 9148TIP3    H248860   6.076   4.909   2.591  0.7991  0.8769 -0.6250
 9149TIP3   OH248861   4.794   0.261   4.746  0.1991  0.4373  0.1119
 9149TIP3    H148862   4.860   0.330   4.754 -0.7096  1.4563 -0.8938
 9149TIP3    H248863   4.783   0.249   4.652  1.1680 -1.9387  0.2375
 9150TIP3   OH248864   1.538   4.144   4.968 -0.2392 -0.4845 -0.4677
 9150TIP3    H148865   1.470   4.101   5.021 -0.9609 -1.0882 -1.8351
 9150TIP3    H248866   1.500   4.229   4.946 -0.0026 -0.2965 -0.1567
 9151TIP3   OH248867   1.788   4.259  13.512  0.5521 -0.8902 -0.2686
 9151TIP3    H148868   1.853   4.188  13.508 -1.8987 -3.3090 -0.3931
 9151TIP3    H248869   1.735   4.247  13.434 -0.7003  0.3308  0.3525
 9152TIP3   OH248870   3.665   1.304   3.443 -0.6364  0.1684  0.0190
 9152TIP3    H148871   3.714   1.224   3.427  0.1560  0.5748  0.3395
 9152TIP3    H248872   3.700   1.338   3.526 -0.5740  1.1211 -0.3769
 9153TIP3   OH248873   0.939   5.453  15.769  0.1229 -0.2852  0.5522
 9153TIP3    H148874   0.846   5.477  15.769  0.2326  0.1547  0.5862
 9153TIP3    H248875   0.977   5.505  15.698  0.1561 -1.2126 -0.1266
 9154TIP3   OH248876   2.946   5.651   5.530  0.3169 -0.3243 -0.6967
 9154TIP3    H148877   3.005   5.722   5.558  0.7821 -1.5491  1.6925
 9154TIP3    H248878   2.858   5.682   5.555  0.4705 -0.3775 -0.0673
 9155TIP3   OH248879   5.983   0.869  14.668 -0.5969  0.2944 -0.5550
 9155TIP3    H148880   5.962   0.962  14.664  0.2889  0.4811 -1.4328
 9155TIP3    H248881   6.046   0.856  14.597 -0.8716 -1.0209 -0.5846
 9156TIP3   OH248882   2.868   4.946   5.700 -0.1247 -0.2680  0.8055
 9156TIP3    H148883   2.820   4.979   5.624  1.1132  0.5413  0.3489
 9156TIP3    H248884   2.887   4.855   5.679  1.8686  0.4347 -0.7755
 9157TIP3   OH248885   3.150   4.202  16.618 -1.0372 -0.2786 -0.3060
 9157TIP3    H148886   3.083   4.270  16.608 -1.1733 -0.5040 -0.9433
 9157TIP3    H248887   3.105   4.120  16.598 -0.6129 -0.4475 -0.5897
 9158TIP3   OH248888   2.587   6.763  13.466 -0.5853  0.4169 -0.1060
 9158TIP3    H148889   2.612   6.717  13.386  0.3213  1.4419 -0.4435
 9158TIP3    H248890   2.491   6.759  13.467 -0.5402 -1.2900 -0.1962
 9159TIP3   OH248891   4.767   0.127   0.567 -0.1594 -0.3048 -0.1859
 9159TIP3    H148892   4.824   0.183   0.619  0.3456 -0.4917 -0.5338
 9159TIP3    H248893   4.772   0.163   0.478 -1.8278  0.6526  0.0666
 9160TIP3   OH248894   2.419   2.012  14.515 -0.4919 -0.8424 -0.1801
 9160TIP3    H148895   2.471   2.041  14.440  0.4032 -2.2974 -0.1699
 9160TIP3    H248896   2.332   1.995  14.479 -0.6802  0.5519 -0.4294
 9161TIP3   OH248897   5.861   5.008  12.524  0.4232  0.0255  0.3917
 9161TIP3    H148898   5.850   4.938  12.588 -1.2811  0.2370  0.3698
 9161TIP3    H248899   5.794   4.991  12.458  0.3229  1.3783  0.1175
 9162TIP3   OH248900   6.376   0.310   0.180  0.2650  0.1584  0.0260
 9162TIP3    H148901   6.382   0.329   0.086 -0.5874  2.5461  0.3870
 9162TIP3    H248902   6.295   0.260   0.189  0.1496  0.2507 -0.4645
 9163TIP3   OH248903   2.706   4.717   6.479  0.1915 -0.4526 -0.3706
 9163TIP3    H148904   2.716   4.812   6.478 -0.6692 -0.3231  1.1105
 9163TIP3    H248905   2.624   4.700   6.433 -0.0904 -0.4048  0.1087
 9164TIP3   OH248906   2.750   6.271  15.151 -0.5915  0.0965  0.3358
 9164TIP3    H148907   2.680   6.227  15.104 -1.2995  0.0044  1.4632
 9164TIP3    H248908   2.709   6.349  15.188  0.0547  0.3732  0.4889
 9165TIP3   OH248909   2.709   0.409  17.230  0.5918 -0.3231  0.0900
 9165TIP3    H148910   2.736   0.455  17.309 -0.5779  1.2072 -0.3246
 9165TIP3    H248911   2.771   0.438  17.163  1.6734 -1.7349  0.4440
 9166TIP3   OH248912   1.186   2.803   3.031  0.0845 -0.6112 -0.0732
 9166TIP3    H148913   1.145   2.786   3.115  0.9754 -0.2643  0.4467
 9166TIP3    H248914   1.269   2.757   3.034 -0.0684 -0.9762 -0.9497
 9167TIP3   OH248915   1.015   3.817   6.807 -0.3459  0.2657 -0.1694
 9167TIP3    H148916   0.970   3.802   6.890  0.6846 -0.7781  0.2393
 9167TIP3    H248917   0.981   3.901   6.775 -1.4176  0.2411  0.8542
 9168TIP3   OH248918   1.245   4.150  16.400  0.6101  0.0642  0.1920
 9168TIP3    H148919   1.276   4.188  16.483  0.0321 -0.6781  0.7614
 9168TIP3    H248920   1.171   4.205  16.375  0.3379 -0.1344  0.5468
 9169TIP3   OH248921   6.299   3.687  14.669  0.6904 -0.9290  0.1804
 9169TIP3    H148922   6.251   3.739  14.604 -2.3523 -0.6700  2.4241
 9169TIP3    H248923   6.347   3.751  14.720  0.4300 -0.7646  0.2226
 9170TIP3   OH248924   1.749   1.301  11.354 -0.4912 -0.1201 -0.3841
 9170TIP3    H148925   1.792   1.326  11.273  1.4160 -0.5394  0.4396
 9170TIP3    H248926   1.657   1.321  11.340 -0.2836 -0.5976 -2.8040
 9171TIP3   OH248927   5.010   1.978   4.687  0.4046 -0.0411  0.4251
 9171TIP3    H148928   5.094   2.010   4.719  0.9253 -0.9591  0.0294
 9171TIP3    H248929   4.945   2.012   4.749  1.0753  0.6005  0.7824
 9172TIP3   OH248930   3.294   6.274   3.236 -0.2005  0.1116 -0.2157
 9172TIP3    H148931   3.376   6.245   3.276 -0.5309  0.4451  0.7425
 9172TIP3    H248932   3.226   6.228   3.285 -0.6559  1.2339  0.2387
 9173TIP3   OH248933   2.940   5.040   1.435  1.0057  0.3027  0.0151
 9173TIP3    H148934   2.902   5.118   1.395  1.4940  0.0090 -1.0529
 9173TIP3    H248935   2.943   5.060   1.529  2.7629  2.3043 -0.3869
 9174TIP3   OH248936   4.932   2.435   1.330  0.0670  0.0947  0.0747
 9174TIP3    H148937   4.885   2.519   1.329 -1.6050 -0.7464  2.0550
 9174TIP3    H248938   4.864   2.370   1.346  1.4248 -1.5995 -0.8269
 9175TIP3   OH248939   4.423   0.640  12.408 -0.5447 -0.2060  0.8203
 9175TIP3    H148940   4.427   0.690  12.490 -2.8243  0.3851  0.6518
 9175TIP3    H248941   4.478   0.689  12.347  1.1269 -0.6097  1.9381
 9176TIP3   OH248942   4.113   5.813  13.428 -0.1230 -0.0703 -0.3571
 9176TIP3    H148943   4.113   5.726  13.389 -3.6068 -0.6599  0.6005
 9176TIP3    H248944   4.160   5.803  13.511  1.4003 -0.4510 -1.2441
 9177TIP3   OH248945   0.197   0.149  16.667  0.1204  0.2834  0.0868
 9177TIP3    H148946   0.128   0.082  16.667  1.2688 -0.9388  0.6514
 9177TIP3    H248947   0.237   0.142  16.754  0.4630  1.5117  0.0474
 9178TIP3   OH248948   0.069   6.592  16.027  0.0269 -0.0828  0.0314
 9178TIP3    H148949  -0.003   6.625  15.973  0.0383 -1.2813 -0.7728
 9178TIP3    H248950   0.144   6.645  16.001 -0.5874  1.3523  1.0644
 9179TIP3   OH248951   5.204   6.392   4.800  0.0971 -0.2168 -0.2730
 9179TIP3    H148952   5.116   6.428   4.802 -0.0343 -0.4812 -0.9745
 9179TIP3    H248953   5.193   6.299   4.820  0.2917 -0.1322  0.2567
 9180TIP3   OH248954   0.727   3.032   6.797 -0.0131  0.1336  0.0493
 9180TIP3    H148955   0.656   3.076   6.844 -1.2224 -0.3582 -1.2475
 9180TIP3    H248956   0.763   3.099   6.739  1.0945  0.5763  1.1835
 9181TIP3   OH248957   3.966   1.169   1.855 -0.4442  0.4750  0.3447
 9181TIP3    H148958   3.929   1.246   1.812  0.7274  0.2516 -1.1069
 9181TIP3    H248959   3.956   1.188   1.949 -0.3728  2.3050  0.0284
 9182TIP3   OH248960   3.589   3.132  11.039 -0.1435  0.3762  0.0171
 9182TIP3    H148961   3.559   3.042  11.051  0.3620  0.1902 -0.0793
 9182TIP3    H248962   3.600   3.142  10.945  1.0991  0.0969  0.1124
 9183TIP3   OH248963   2.680   6.493  16.569  0.0607  0.1752  0.6710
 9183TIP3    H148964   2.644   6.485  16.658  0.4432 -0.9142  0.7556
 9183TIP3    H248965   2.773   6.472  16.580  0.2099  0.5257  0.0900
 9184TIP3   OH248966   1.917   1.693   5.052 -0.5332  0.1979 -0.6144
 9184TIP3    H148967   1.967   1.614   5.034  1.0562  1.6062 -2.8896
 9184TIP3    H248968   1.831   1.677   5.014 -0.3032 -0.5306 -0.8366
 9185TIP3   OH248969   0.978   1.540  14.449 -0.7264 -0.3791 -0.1962
 9185TIP3    H148970   0.912   1.561  14.383  0.9749 -0.8680 -2.1657
 9185TIP3    H248971   0.947   1.458  14.488 -1.3224 -0.5952 -1.0805
 9186TIP3   OH248972   1.370   6.731   6.027  0.3111 -0.1042 -0.1372
 9186TIP3    H148973   1.308   6.716   6.098 -0.0216  0.1360 -0.3769
 9186TIP3    H248974   1.455   6.707   6.064  0.2573  0.8050  0.6162
 9187TIP3   OH248975   1.150   6.580  14.150 -0.4162  0.1673 -0.0599
 9187TIP3    H148976   1.192   6.493  14.145  0.6718  0.6558  0.1456
 9187TIP3    H248977   1.112   6.583  14.238 -0.6087 -0.1758 -0.1319
 9188TIP3   OH248978   6.292   3.169  15.326 -0.7500  0.7564  0.1617
 9188TIP3    H148979   6.287   3.264  15.328 -0.2134  0.8117 -0.6484
 9188TIP3    H248980   6.384   3.150  15.306 -0.8263  0.0686  0.4155
 9189TIP3   OH248981   0.837   1.882   2.953  0.6910 -0.0334  0.2168
 9189TIP3    H148982   0.812   1.802   3.000  1.8250 -0.2602  0.4673
 9189TIP3    H248983   0.761   1.904   2.900  0.4221 -1.3795  0.0147
 9190TIP3   OH248984   1.958   6.536   4.857  0.4251 -0.1820 -0.7398
 9190TIP3    H148985   1.890   6.538   4.924  1.1102 -1.8613  0.0559
 9190TIP3    H248986   2.037   6.564   4.902  1.0474 -2.0439 -0.6011
 9191TIP3   OH248987   0.961   1.919   1.085  0.1993 -0.6228  0.1896
 9191TIP3    H148988   0.973   1.967   1.167  1.5906 -1.4709  0.4978
 9191TIP3    H248989   0.885   1.961   1.044  0.7022  1.1134  0.9611
 9192TIP3   OH248990   6.653   3.967   4.035  0.4869 -0.5680 -0.2426
 9192TIP3    H148991   6.563   3.984   4.063  1.4389  0.8871  2.2343
 9192TIP3    H248992   6.707   4.020   4.093  3.0707 -2.6968 -0.4931
 9193TIP3   OH248993   3.575   6.552  13.592 -0.2902  0.2113 -0.5193
 9193TIP3    H148994   3.623   6.501  13.658 -0.4221  0.7376 -0.0035
 9193TIP3    H248995   3.622   6.535  13.511 -0.2143 -0.5721 -0.3273
 9194TIP3   OH248996   5.122   1.083   4.866  0.1618  0.4024 -0.0285
 9194TIP3    H148997   5.078   1.145   4.925  1.7965 -0.3892  2.1492
 9194TIP3    H248998   5.103   1.116   4.778 -3.0800  1.2007  0.8264
 9195TIP3   OH248999   4.831   5.527  13.849 -0.0456  0.2288  0.5516
 9195TIP3    H149000   4.811   5.524  13.942  1.1762 -0.2250  0.8286
 9195TIP3    H249001   4.898   5.459  13.838 -1.2722 -0.8066 -0.9435
 9196TIP3   OH249002   2.001   3.980   5.290  0.5502  0.1344 -0.2142
 9196TIP3    H149003   1.977   3.997   5.381  1.6247  1.2454 -0.1073
 9196TIP3    H249004   1.938   4.029   5.238 -1.0274 -1.7287 -0.1580
 9197TIP3   OH249005   3.034   4.285  17.125 -0.3871 -0.2576  0.4885
 9197TIP3    H149006   3.002   4.320  17.042  1.5813 -1.0634 -0.6992
 9197TIP3    H249007   3.099   4.349  17.154  0.3604 -0.9292  0.3514
 9198TIP3   OH249008   5.968   1.643   3.026  0.2962  0.2342  0.0035
 9198TIP3    H149009   6.012   1.679   2.949 -0.5547  0.6987 -0.2870
 9198TIP3    H249010   5.886   1.692   3.031  0.1436 -0.0986  0.9554
 9199TIP3   OH249011   4.607   1.620   4.189 -0.1777 -0.8549 -0.5256
 9199TIP3    H149012   4.699   1.647   4.184 -0.1615 -0.7676  0.0662
 9199TIP3    H249013   4.585   1.631   4.282 -0.8657 -0.6004 -0.7133
 9200TIP3   OH249014   3.867   6.425  13.737  0.5701  0.1672  0.5010
 9200TIP3    H149015   3.919   6.354  13.775  0.9508 -0.3402 -0.9171
 9200TIP3    H249016   3.777   6.402  13.758  0.6916 -0.7437  0.0721
 9201TIP3   OH249017   0.066   3.596  14.866  0.5844  0.3753  0.2071
 9201TIP3    H149018   0.101   3.529  14.924  0.2563  1.1004  1.2661
 9201TIP3    H249019  -0.017   3.622  14.907 -0.0884  0.2886 -1.0466
 9202TIP3   OH249020   1.649   3.950   2.267  0.3800  0.1806 -0.4511
 9202TIP3    H149021   1.741   3.925   2.265  0.2708 -0.2563 -0.0885
 9202TIP3    H249022   1.605   3.884   2.214 -0.1345 -1.4119  1.8196
 9203TIP3   OH249023   6.649   0.114  14.560  0.0238 -0.2262  0.0572
 9203TIP3    H149024   6.718   0.050  14.576 -0.3185 -1.2316 -2.1101
 9203TIP3    H249025   6.568   0.067  14.579 -0.2200 -0.4374 -1.3635
 9204TIP3   OH249026   5.730   6.705   2.262 -0.0891  0.1493  0.4231
 9204TIP3    H149027   5.782   6.628   2.284  0.1909  0.1011 -0.3721
 9204TIP3    H249028   5.672   6.676   2.192 -0.5126  0.4648  0.6371
 9205TIP3   OH249029   6.526   5.273   3.702  0.2121 -0.0676 -0.5479
 9205TIP3    H149030   6.474   5.258   3.781 -0.0355  0.1365 -0.6729
 9205TIP3    H249031   6.466   5.315   3.641  0.5367  0.2040 -0.6799
 9206TIP3   OH249032   0.648   5.693  12.750  0.3224  0.1425  0.0081
 9206TIP3    H149033   0.599   5.717  12.671 -1.1109 -0.7555  0.5835
 9206TIP3    H249034   0.723   5.643  12.717  0.9754  1.6506 -0.8998
 9207TIP3   OH249035   2.950   2.492   2.618 -0.5389  0.2785 -0.8067
 9207TIP3    H149036   2.974   2.519   2.529 -1.6783 -0.8690 -1.5021
 9207TIP3    H249037   3.018   2.530   2.674 -0.0277  1.3789 -2.1148
 9208TIP3   OH249038   0.169   2.786   1.800 -0.3275 -0.3266  0.2476
 9208TIP3    H149039   0.099   2.726   1.826 -0.2998 -0.3609  0.2430
 9208TIP3    H249040   0.193   2.757   1.712  0.4299 -0.9825  0.6662
 9209TIP3   OH249041   6.593   4.011  12.692  0.0039  0.0606  0.1531
 9209TIP3    H149042   6.648   4.048  12.623  1.6850 -0.4805  1.1199
 9209TIP3    H249043   6.610   3.917  12.688  1.0796  0.1222  1.9904
 9210TIP3   OH249044   0.465   1.476   6.305  0.2912 -0.4121  0.5903
 9210TIP3    H149045   0.510   1.559   6.289  2.7703 -1.6119  0.8522
 9210TIP3    H249046   0.419   1.489   6.388  0.8682  0.6144  0.7683
 9211TIP3   OH249047   4.948   5.781  10.441 -0.2600 -0.4827 -0.5016
 9211TIP3    H149048   5.019   5.825  10.487  1.1450 -1.2655 -1.8182
 9211TIP3    H249049   4.875   5.842  10.444  0.7398  0.7111  0.1436
 9212TIP3   OH249050   4.551   2.101   3.532 -0.0380  0.4754  0.5751
 9212TIP3    H149051   4.508   2.050   3.463 -1.0427  2.6559 -0.4987
 9212TIP3    H249052   4.639   2.116   3.499 -0.2842  0.8843  0.0904
 9213TIP3   OH249053   5.191   1.658  17.391 -0.5341  0.4195 -0.5493
 9213TIP3    H149054   5.221   1.628  17.305 -1.2903  0.5174 -0.8529
 9213TIP3    H249055   5.264   1.712  17.424 -0.6117  1.1492 -1.5362
 9214TIP3   OH249056   4.392   6.128   2.588  0.0673 -1.1084  0.4205
 9214TIP3    H149057   4.472   6.074   2.592 -0.5850 -2.0888  0.6518
 9214TIP3    H249058   4.349   6.099   2.507 -0.2665 -0.8948  0.5225
 9215TIP3   OH249059   0.557   2.456  14.564  0.3145 -0.2795  0.0462
 9215TIP3    H149060   0.493   2.406  14.513 -0.5101  1.2291 -0.4801
 9215TIP3    H249061   0.536   2.435  14.655 -0.5066 -0.3205 -0.1409
 9216TIP3   OH249062   2.989   3.167  14.824  0.0011 -0.3671  1.0889
 9216TIP3    H149063   2.973   3.088  14.772 -0.6943 -0.0995  0.8824
 9216TIP3    H249064   3.083   3.185  14.812 -0.3364  0.3114 -1.0066
 9217TIP3   OH249065   5.399   3.237   2.761  0.4824 -0.2693 -0.6516
 9217TIP3    H149066   5.390   3.281   2.845  1.8925  0.3685 -0.8055
 9217TIP3    H249067   5.333   3.278   2.705  0.5221  0.3271 -0.2674
 9218TIP3   OH249068   3.831   3.086   0.456 -0.5018  0.0169  0.0449
 9218TIP3    H149069   3.867   3.131   0.532  0.3505 -0.2284 -0.2022
 9218TIP3    H249070   3.882   3.005   0.450  0.5205  0.7170 -1.6656
 9219TIP3   OH249071   5.732   1.365   6.439  0.0538  0.0268  0.3085
 9219TIP3    H149072   5.808   1.413   6.473 -0.2890  1.0387 -0.3221
 9219TIP3    H249073   5.657   1.414   6.473 -0.3093 -0.4970  0.2557
 9220TIP3   OH249074   1.583   2.438  15.576  0.1646  0.4517 -0.2278
 9220TIP3    H149075   1.662   2.461  15.527  0.5980 -0.1529  0.1832
 9220TIP3    H249076   1.560   2.518  15.623  2.2311 -0.1592  1.9823
 9221TIP3   OH249077   1.734   6.649   4.260  0.1815  0.3397 -1.0902
 9221TIP3    H149078   1.801   6.611   4.317  0.3558  0.6555 -1.0832
 9221TIP3    H249079   1.780   6.667   4.178  0.5646  2.1711 -0.5286
 9222TIP3   OH249080   0.147   5.626   4.044 -0.3783  0.2244 -0.4649
 9222TIP3    H149081   0.187   5.600   3.962  0.7999 -1.6671  0.6430
 9222TIP3    H249082   0.187   5.710   4.065 -1.7388  1.4490 -2.4602
 9223TIP3   OH249083   0.425   6.515   4.269 -0.0640 -0.0946 -0.1700
 9223TIP3    H149084   0.487   6.485   4.336  0.5898  0.6803 -0.4219
 9223TIP3    H249085   0.342   6.525   4.316  0.5466  1.1286  0.7020
 9224TIP3   OH249086   5.661   5.764  15.265 -0.4761  0.4693 -0.1806
 9224TIP3    H149087   5.751   5.754  15.233 -0.9777 -0.5414 -1.3629
 9224TIP3    H249088   5.607   5.757  15.187 -1.6936 -0.9185  0.7311
 9225TIP3   OH249089   2.402   3.219   2.265  0.1751  0.1376 -0.0102
 9225TIP3    H149090   2.470   3.255   2.323 -1.0905 -0.2499  1.8066
 9225TIP3    H249091   2.439   3.136   2.234  0.7640  0.1997  0.5029
 9226TIP3   OH249092   0.234   2.732   5.200  0.2527  0.1463 -0.2122
 9226TIP3    H149093   0.223   2.827   5.197 -0.6553  0.0924  0.6811
 9226TIP3    H249094   0.301   2.719   5.267  0.0536  0.1468 -0.0099
 9227TIP3   OH249095   6.124   2.915   1.133  0.3993  0.0407 -0.0504
 9227TIP3    H149096   6.203   2.926   1.079  1.6021 -0.3483  1.5274
 9227TIP3    H249097   6.076   2.997   1.124  0.9717  0.2751 -1.0753
 9228TIP3   OH249098   0.647   1.832   2.631 -0.3803 -0.6312 -0.0818
 9228TIP3    H149099   0.560   1.846   2.669  0.1247 -0.5342  1.1093
 9228TIP3    H249100   0.702   1.901   2.670 -0.0962  0.3054 -2.0458
 9229TIP3   OH249101   0.049   4.967   3.381 -0.1525 -0.3290 -0.4752
 9229TIP3    H149102   0.038   5.037   3.446 -1.0611 -0.9261  0.0272
 9229TIP3    H249103  -0.032   4.970   3.329 -0.1790 -0.9824 -0.4762
 9230TIP3   OH249104   5.228   5.871  16.376 -0.0893 -0.3655  0.2264
 9230TIP3    H149105   5.243   5.933  16.305 -2.3414  1.2768  1.0544
 9230TIP3    H249106   5.207   5.789  16.332  0.5634  0.0816 -0.9594
 9231TIP3   OH249107   0.601   5.794   1.865 -0.6826 -0.1133  0.3126
 9231TIP3    H149108   0.589   5.738   1.789 -2.9740  1.2903 -0.4577
 9231TIP3    H249109   0.678   5.848   1.845 -1.1838  0.1504 -0.9724
 9232TIP3   OH249110   4.491   0.512   2.868  0.4010  0.6577 -0.5911
 9232TIP3    H149111   4.558   0.530   2.803  2.0082  1.4120  1.1895
 9232TIP3    H249112   4.505   0.578   2.936 -2.5533  1.2351 -0.4182
 9233TIP3   OH249113   5.983   6.381  11.287 -0.8006  0.2782 -0.4177
 9233TIP3    H149114   6.053   6.382  11.222 -0.0870  1.1913  0.3314
 9233TIP3    H249115   5.927   6.307  11.261  0.2412 -0.2574 -1.2275
 9234TIP3   OH249116   6.577   4.541  14.709 -0.6702  0.8039  0.5180
 9234TIP3    H149117   6.611   4.509  14.793 -0.2674 -0.8725 -0.2583
 9234TIP3    H249118   6.542   4.628  14.730  0.7861  1.0653  2.1046
 9235TIP3   OH249119   6.090   2.107  16.965 -0.0758 -0.1531  0.1467
 9235TIP3    H149120   6.082   2.166  16.889 -2.7469 -0.2732  0.2396
 9235TIP3    H249121   6.108   2.021  16.927  0.0192  0.0406 -0.2533
 9236TIP3   OH249122   5.277   0.807   1.060 -0.0349  0.4771 -0.2214
 9236TIP3    H149123   5.229   0.869   1.004 -2.0124  0.0283  0.8907
 9236TIP3    H249124   5.211   0.774   1.121  1.8388  0.2182  1.7661
 9237TIP3   OH249125   0.506   5.971  16.678 -0.6092 -0.2367 -0.0230
 9237TIP3    H149126   0.499   5.915  16.601 -1.5062  0.5209 -0.5154
 9237TIP3    H249127   0.460   6.051  16.653 -1.8773 -0.3821  1.6567
 9238TIP3   OH249128   4.661   0.986   2.822 -0.4509 -0.4235  0.1746
 9238TIP3    H149129   4.576   0.997   2.780 -0.9861 -0.5262  1.1948
 9238TIP3    H249130   4.676   1.068   2.868 -1.0170 -1.1441  1.7423
 9239TIP3   OH249131   2.532   4.238   3.690 -0.1752 -0.5448  0.5383
 9239TIP3    H149132   2.557   4.314   3.637 -1.3292 -1.6667 -1.7406
 9239TIP3    H249133   2.546   4.267   3.780  1.7950  1.5030 -0.3044
 9240TIP3   OH249134   0.056   2.221   4.773  0.3786 -0.5888 -0.1636
 9240TIP3    H149135  -0.009   2.268   4.827 -0.2850 -0.2416 -1.2357
 9240TIP3    H249136   0.057   2.133   4.809 -0.0325 -0.3604  0.4359
 9241TIP3   OH249137   1.515   0.540  13.986 -0.2888  0.0594  0.0166
 9241TIP3    H149138   1.486   0.618  13.938  3.8545  2.0834  0.3715
 9241TIP3    H249139   1.476   0.549  14.072 -1.6078  0.5554 -0.6084
 9242TIP3   OH249140   2.593   0.240  13.896  0.4529  0.4982  0.9155
 9242TIP3    H149141   2.543   0.199  13.825  0.3122  0.1718  1.1999
 9242TIP3    H249142   2.527   0.270  13.958  0.5967  0.2231  1.2072
 9243TIP3   OH249143   1.628   6.207  14.598 -0.0860 -0.3958  0.1918
 9243TIP3    H149144   1.707   6.229  14.647  1.0338 -1.3456 -1.1013
 9243TIP3    H249145   1.597   6.291  14.563 -1.0889  0.3484  2.6808
 9244TIP3   OH249146   3.940   0.463  13.359  0.3651 -0.2784 -0.1646
 9244TIP3    H149147   3.890   0.533  13.402 -0.2144 -0.1588 -0.9984
 9244TIP3    H249148   3.947   0.394  13.425 -0.0641  0.0996  0.2867
 9245TIP3   OH249149   1.905   6.148   4.922  0.3153  0.0308  0.2990
 9245TIP3    H149150   1.966   6.222   4.931 -1.2266  1.4211 -0.2511
 9245TIP3    H249151   1.918   6.117   4.832  1.4945 -0.9046  0.7585
 9246TIP3   OH249152   4.565   6.564   4.752  0.2295 -0.1000 -0.2525
 9246TIP3    H149153   4.626   6.543   4.681  1.6223  2.0834  0.2115
 9246TIP3    H249154   4.598   6.646   4.789 -0.4957 -1.0894  2.8904
 9247TIP3   OH249155   0.415   5.900   3.462  0.3451 -0.6042  0.0238
 9247TIP3    H149156   0.428   5.820   3.412 -1.5353 -1.3719  0.6850
 9247TIP3    H249157   0.322   5.899   3.485  0.8142  0.4863  2.2164
 9248TIP3   OH249158   2.381   3.590   2.914  0.1703  0.0297  0.2311
 9248TIP3    H149159   2.368   3.521   2.849  1.0128 -0.3531  0.4634
 9248TIP3    H249160   2.323   3.566   2.987 -2.6624  1.7118 -1.2545
 9249TIP3   OH249161   0.670   6.669  11.461  0.2738 -0.2814  0.0718
 9249TIP3    H149162   0.623   6.595  11.500  0.2364 -0.4974 -0.3733
 9249TIP3    H249163   0.700   6.636  11.376  0.1339  0.2634 -0.1927
 9250TIP3   OH249164   6.096   0.032   0.558  0.1080  0.5504  0.8239
 9250TIP3    H149165   6.185   0.011   0.587 -0.4815 -0.5161  1.9205
 9250TIP3    H249166   6.068   0.103   0.617  0.3936  1.2401  0.1508
 9251TIP3   OH249167   2.869   0.248  15.129 -0.3113 -0.1382 -0.3498
 9251TIP3    H149168   2.832   0.213  15.210  1.9793  0.7606  1.1862
 9251TIP3    H249169   2.885   0.170  15.075  0.6784 -1.0689  1.2126
 9252TIP3   OH249170   6.458   3.836   1.817 -0.6689 -0.1611  0.2741
 9252TIP3    H149171   6.415   3.843   1.732  1.1032 -0.2687 -0.6830
 9252TIP3    H249172   6.423   3.756   1.856  0.6979 -1.8548 -1.7370
 9253TIP3   OH249173   5.850   2.085  13.913 -0.4711  0.2969 -0.1595
 9253TIP3    H149174   5.798   2.010  13.942 -0.0105 -0.0388 -0.2021
 9253TIP3    H249175   5.908   2.103  13.987 -1.5141  1.4969  0.4304
 9254TIP3   OH249176   2.090   3.936  13.339 -0.5170 -0.0093  0.1017
 9254TIP3    H149177   2.040   3.953  13.418  0.3703  0.1570  0.6345
 9254TIP3    H249178   2.124   3.847  13.350  1.1658  0.6794  0.7882
 9255TIP3   OH249179   5.545   0.658   6.243  0.9551  0.1084 -0.3615
 9255TIP3    H149180   5.526   0.746   6.274  0.3979 -0.1774  0.1325
 9255TIP3    H249181   5.625   0.633   6.290 -0.1987 -0.5417  1.3760
 9256TIP3   OH249182   4.841   5.305  14.464 -0.2419  0.5858  0.7641
 9256TIP3    H149183   4.780   5.378  14.475 -0.4045  0.2353  2.4814
 9256TIP3    H249184   4.835   5.256  14.547 -1.5325 -2.4659 -0.9808
 9257TIP3   OH249185   5.885   6.237   0.389  0.2302 -0.6878 -0.0788
 9257TIP3    H149186   5.916   6.187   0.313  2.1265 -0.1953  0.3227
 9257TIP3    H249187   5.945   6.212   0.460 -1.9917 -1.7747  1.5323
 9258TIP3   OH249188   6.211   1.888  13.641  0.1657 -0.6684 -0.0189
 9258TIP3    H149189   6.117   1.874  13.647 -0.3605  1.9226 -0.7589
 9258TIP3    H249190   6.250   1.814  13.688 -2.1562 -2.3663 -0.5873
 9259TIP3   OH249191   0.865   3.572  13.196  0.6320  0.0584 -0.1107
 9259TIP3    H149192   0.941   3.614  13.236  0.2026 -0.8770  1.8572
 9259TIP3    H249193   0.898   3.533  13.115  1.8913  0.8944 -0.0277
 9260TIP3   OH249194   1.720   6.145   5.655  0.0157  0.0596  0.5721
 9260TIP3    H149195   1.684   6.225   5.694 -0.4515 -0.2383  0.7611
 9260TIP3    H249196   1.774   6.107   5.724 -0.3794 -0.1851  0.7532
 9261TIP3   OH249197   5.825   2.984  16.243 -0.1783 -0.3006 -0.0421
 9261TIP3    H149198   5.814   3.063  16.296 -1.6975  0.5182 -1.4957
 9261TIP3    H249199   5.779   2.916  16.291 -1.3134  0.3679 -0.1579
 9262TIP3   OH249200   0.481   2.869   0.445  0.5713  0.1588 -0.4367
 9262TIP3    H149201   0.429   2.935   0.398 -0.3609 -0.0958  0.2200
 9262TIP3    H249202   0.448   2.785   0.411  2.7196 -0.0239 -2.3307
 9263TIP3   OH249203   5.104   6.333   0.278 -0.4767 -0.2276  0.2021
 9263TIP3    H149204   5.187   6.288   0.293 -0.0667  0.6611  0.7511
 9263TIP3    H249205   5.087   6.378   0.361 -1.9018 -0.9989  0.3535
 9264TIP3   OH249206   4.302   3.991  11.586  0.3590  0.0668 -0.1371
 9264TIP3    H149207   4.286   4.061  11.523 -1.1082 -0.0361  0.0760
 9264TIP3    H249208   4.396   3.994  11.603  0.1036  3.4095  1.5067
 9265TIP3   OH249209   3.646   6.663   5.885  0.5791  0.1614  0.0947
 9265TIP3    H149210   3.635   6.592   5.949 -1.2334 -1.0257 -1.4252
 9265TIP3    H249211   3.653   6.618   5.801  1.8683  1.7286 -0.6802
 9266TIP3   OH249212   0.901   6.671  14.028  0.5901  0.9810 -0.5736
 9266TIP3    H149213   0.982   6.679  13.978  1.1934  1.3387  0.4196
 9266TIP3    H249214   0.925   6.617  14.104  0.0603  1.5784  0.0414
 9267TIP3   OH249215   0.859   5.035  11.750 -0.2141  0.1143 -0.1388
 9267TIP3    H149216   0.783   5.013  11.804  1.8417 -0.0432  2.9200
 9267TIP3    H249217   0.888   4.951  11.713 -0.3410 -0.1395  0.3366
 9268TIP3   OH249218   0.956   2.731  15.620  0.1482  0.2789  0.5732
 9268TIP3    H149219   0.863   2.750  15.608  0.1044 -0.0775  0.3266
 9268TIP3    H249220   0.957   2.654  15.678  0.1586 -1.9842 -2.2209
 9269TIP3   OH249221   4.715   6.762   3.011  0.1498 -0.7914  0.0620
 9269TIP3    H149222   4.788   6.701   3.024  0.6544 -0.3179 -0.4667
 9269TIP3    H249223   4.657   6.719   2.949 -0.0414 -1.1887  0.5142
 9270TIP3   OH249224   6.695   1.423  13.429  0.5985  0.1479 -0.0463
 9270TIP3    H149225   6.648   1.499  13.463  2.0774  2.0263 -1.9221
 9270TIP3    H249226   6.703   1.441  13.335  1.2411 -2.2292 -0.5029
 9271TIP3   OH249227   5.087   4.749   1.143 -0.0663 -0.8374  0.1579
 9271TIP3    H149228   5.126   4.775   1.059  1.2936 -0.5558  0.8440
 9271TIP3    H249229   5.113   4.657   1.154 -0.7637 -1.0572 -0.0105
 9272TIP3   OH249230   0.356   2.088  11.596 -0.3806  0.0918  0.0776
 9272TIP3    H149231   0.331   2.159  11.656 -0.4433  0.1832 -0.0564
 9272TIP3    H249232   0.280   2.030  11.595 -0.0100 -0.4241  0.8451
 9273TIP3   OH249233   4.656   2.919   2.333 -0.1938 -0.1285  0.1356
 9273TIP3    H149234   4.596   2.942   2.403 -0.1512  0.0134  0.1246
 9273TIP3    H249235   4.637   2.827   2.314 -0.4148 -0.0803  0.1247
 9274TIP3   OH249236   3.903   4.385  10.515  0.2276 -0.1167 -0.0569
 9274TIP3    H149237   3.839   4.404  10.583 -1.2719  0.4091 -1.5641
 9274TIP3    H249238   3.906   4.289  10.510  1.4016 -0.2227  1.6448
 9275TIP3   OH249239   3.451   2.807   0.955  0.4167 -0.2610 -0.6110
 9275TIP3    H149240   3.411   2.886   0.917  0.2784 -0.5227 -1.0207
 9275TIP3    H249241   3.387   2.738   0.940 -0.2230 -0.1348  1.2662
 9276TIP3   OH249242   2.034   0.091  12.799  0.2018  0.8181 -0.0102
 9276TIP3    H149243   1.986   0.169  12.770 -1.3573  0.5229  1.6510
 9276TIP3    H249244   1.979   0.052  12.867  2.1984 -0.2635  1.0851
 9277TIP3   OH249245   0.811   4.805   1.905 -0.4252  0.0711 -0.3945
 9277TIP3    H149246   0.796   4.851   1.988  1.6198 -0.4116  0.3175
 9277TIP3    H249247   0.903   4.778   1.909 -0.9755 -2.3182 -1.6488
 9278TIP3   OH249248   0.620   1.042   2.277  0.6176  0.0040  0.3413
 9278TIP3    H149249   0.558   0.982   2.234  0.6719  0.2371 -0.0706
 9278TIP3    H249250   0.573   1.074   2.354  0.0249  0.5794 -0.2458
 9279TIP3   OH249251   2.158   1.609  13.526 -0.1327  0.7784 -0.1210
 9279TIP3    H149252   2.118   1.588  13.442  0.4262  0.8968 -0.4206
 9279TIP3    H249253   2.227   1.543  13.537 -0.3205  0.6559  0.3251
 9280TIP3   OH249254   1.317   0.749  12.162  0.2680  0.1648 -1.0479
 9280TIP3    H149255   1.378   0.820  12.185 -1.3425  1.2692  0.0013
 9280TIP3    H249256   1.254   0.789  12.103  0.2876 -0.8583 -1.7947
 9281TIP3   OH249257   4.546   1.708   6.160 -0.0259 -0.3406  0.3524
 9281TIP3    H149258   4.601   1.695   6.238  0.3048 -0.4837  0.0958
 9281TIP3    H249259   4.552   1.625   6.112  0.5508  0.0781 -0.3154
 9282TIP3   OH249260   1.813   3.297  14.573 -0.8727 -0.2150 -0.6944
 9282TIP3    H149261   1.818   3.356  14.498 -1.2898 -0.4411 -0.8989
 9282TIP3    H249262   1.747   3.336  14.630 -0.3684  0.1019 -0.3100
 9283TIP3   OH249263   4.776   6.143  13.649  0.6210 -0.3027 -0.4021
 9283TIP3    H149264   4.857   6.161  13.602  2.1619 -2.1849  1.3014
 9283TIP3    H249265   4.765   6.048  13.642  1.0126 -0.7270  2.9164
 9284TIP3   OH249266   2.521   5.338  15.332 -0.0027  0.2052 -0.0339
 9284TIP3    H149267   2.613   5.335  15.360  0.1818 -1.2620 -0.7053
 9284TIP3    H249268   2.496   5.430  15.340  0.9359  0.3238  2.0174
 9285TIP3   OH249269   6.307   6.035  15.015 -0.4009  0.2792 -0.2081
 9285TIP3    H149270   6.362   5.958  15.001 -1.2602 -0.5760  0.8617
 9285TIP3    H249271   6.333   6.068  15.101 -1.4734 -0.1046  0.2903
 9286TIP3   OH249272   2.632   1.072  14.434 -0.2756 -0.1661 -0.2318
 9286TIP3    H149273   2.598   0.999  14.487 -0.1641 -0.7946 -1.0167
 9286TIP3    H249274   2.655   1.032  14.350 -0.3512  0.8109 -0.7208
 9287TIP3   OH249275   6.195   4.113  15.837 -0.3925  0.7911 -0.1458
 9287TIP3    H149276   6.286   4.085  15.849 -0.3830  1.5623  1.8608
 9287TIP3    H249277   6.188   4.128  15.742  2.0200  2.1154 -0.1989
 9288TIP3   OH249278   3.183   3.277  12.045 -0.0056  0.4001 -0.3504
 9288TIP3    H149279   3.207   3.305  12.134  2.2819  0.5528 -0.9435
 9288TIP3    H249280   3.103   3.324  12.026 -0.1707  0.8990  1.3843
 9289TIP3   OH249281   2.776   4.415   1.842  0.3457 -0.0795  0.9564
 9289TIP3    H149282   2.771   4.427   1.747 -2.1103 -1.8084  0.7771
 9289TIP3    H249283   2.861   4.374   1.857  0.7170  0.1001 -0.5011
 9290TIP3   OH249284   4.420   0.319   0.769  0.4497 -0.2647 -0.1210
 9290TIP3    H149285   4.328   0.343   0.769  1.1280  2.8365 -0.2065
 9290TIP3    H249286   4.446   0.320   0.677  0.7959  0.0922 -0.0270
 9291TIP3   OH249287   1.979   4.749  13.085 -0.2199 -0.4061  0.5565
 9291TIP3    H149288   2.018   4.739  12.998 -0.3531 -0.8980  0.5486
 9291TIP3    H249289   1.989   4.842  13.106  0.1715 -0.3640  0.1855
 9292TIP3   OH249290   2.786   1.460  14.667  0.3302 -0.3419  0.2690
 9292TIP3    H149291   2.782   1.365  14.659 -2.5438 -0.1665 -1.4841
 9292TIP3    H249292   2.695   1.488  14.676  1.0154  2.3099 -0.0581
 9293TIP3   OH249293   1.569   5.510  14.263  0.1534 -0.0908 -0.7678
 9293TIP3    H149294   1.478   5.513  14.292  0.5790  1.1436  0.5962
 9293TIP3    H249295   1.618   5.482  14.340  1.4392  4.2211  0.2866
 9294TIP3   OH249296   4.644   5.453  15.628 -0.2632 -0.1353 -0.3873
 9294TIP3    H149297   4.579   5.453  15.558 -0.6988 -0.7539  0.0019
 9294TIP3    H249298   4.608   5.393  15.694 -0.7650  1.7873  1.1905
 9295TIP3   OH249299   3.990   5.458   0.073 -0.1939  0.2425 -0.2488
 9295TIP3    H149300   3.981   5.527   0.138  1.3841 -1.2365  1.6495
 9295TIP3    H249301   4.033   5.500  -0.001  0.5727  1.3369  0.7937
 9296TIP3   OH249302   3.707   0.836   0.639  0.2867 -0.2935  0.0852
 9296TIP3    H149303   3.765   0.861   0.711  1.0267  0.2504 -0.6954
 9296TIP3    H249304   3.647   0.910   0.629  0.7872  0.0356 -0.4807
 9297TIP3   OH249305   3.504   0.942  11.806  0.4738 -0.3383 -0.2627
 9297TIP3    H149306   3.597   0.955  11.784  0.6041 -0.9322 -0.0771
 9297TIP3    H249307   3.499   0.851  11.834 -0.1243 -0.2342 -0.0291
 9298TIP3   OH249308   6.409   5.917  12.167  0.1707  0.2929 -0.2688
 9298TIP3    H149309   6.390   6.010  12.174  0.9677  0.4026  0.7106
 9298TIP3    H249310   6.341   5.882  12.109 -1.7431  0.9893  1.4432
 9299TIP3   OH249311   2.144   2.207   4.603 -0.6641  0.2219 -0.0442
 9299TIP3    H149312   2.105   2.288   4.635  0.9326  0.6495  0.9342
 9299TIP3    H249313   2.238   2.221   4.610 -0.2687 -0.6865 -2.4799
 9300TIP3   OH249314   6.092   4.916  13.885  0.0584  0.7840 -0.1778
 9300TIP3    H149315   6.098   5.007  13.856  1.6395  0.1873 -1.9066
 9300TIP3    H249316   6.173   4.875  13.854 -0.5917 -1.2154  0.5827
 9301TIP3   OH249317   3.747   4.413  11.857 -0.0836 -0.0106  0.1258
 9301TIP3    H149318   3.695   4.335  11.874 -0.7260  0.0904 -1.2967
 9301TIP3    H249319   3.838   4.381  11.854 -0.4982 -1.2551 -3.1065
 9302TIP3   OH249320   6.348   1.331   1.827 -0.5031  0.0117  0.0531
 9302TIP3    H149321   6.425   1.336   1.885 -1.1674  1.0924  0.8870
 9302TIP3    H249322   6.274   1.323   1.887 -0.9931 -2.3171 -0.7695
 9303TIP3   OH249323   1.231   2.973  17.132  0.3315 -0.8172  0.0284
 9303TIP3    H149324   1.196   3.013  17.211  0.4436 -2.8557  1.1904
 9303TIP3    H249325   1.239   3.045  17.069 -0.6562  0.6807  1.5509
 9304TIP3   OH249326   2.032   5.921  14.596 -0.4351  0.3518 -0.3922
 9304TIP3    H149327   2.016   6.006  14.556 -0.7204  0.2858 -0.4159
 9304TIP3    H249328   2.045   5.861  14.522  1.6994  0.7263 -0.3994
 9305TIP3   OH249329   1.804   4.194   3.287  0.3355  0.1104 -0.0455
 9305TIP3    H149330   1.727   4.197   3.344 -0.1225 -0.7521 -0.5975
 9305TIP3    H249331   1.776   4.140   3.213  1.2560  0.3613 -0.5808
 9306TIP3   OH249332   6.046   5.465  17.328 -0.2036 -0.3711 -0.0579
 9306TIP3    H149333   6.039   5.529  17.257 -0.5057  0.6581  0.8777
 9306TIP3    H249334   6.140   5.463  17.349 -0.2501  0.1246  0.2188
 9307TIP3   OH249335   6.646   5.828   4.545 -0.3741 -0.0090  0.1770
 9307TIP3    H149336   6.632   5.741   4.582  0.3068 -0.0288  0.3960
 9307TIP3    H249337   6.637   5.815   4.450  0.1085 -0.3979  0.1811
 9308TIP3   OH249338   4.696   3.495   0.803  0.1343 -0.2245 -0.1841
 9308TIP3    H149339   4.653   3.580   0.800 -1.3393 -0.9580 -0.5950
 9308TIP3    H249340   4.750   3.493   0.724  1.1674  0.8081  0.4664
 9309TIP3   OH249341   4.606   5.752   5.578  1.0152  0.6740  0.1213
 9309TIP3    H149342   4.581   5.737   5.670  2.4212  0.0282  0.4268
 9309TIP3    H249343   4.700   5.770   5.582  1.3287 -0.4765 -1.3025
 9310TIP3   OH249344   4.344   4.469   0.938 -0.2225 -0.0147  0.3405
 9310TIP3    H149345   4.406   4.396   0.931 -0.6152 -0.1707 -2.9151
 9310TIP3    H249346   4.265   4.430   0.976  0.3078 -0.7430  0.7124
 9311TIP3   OH249347   6.566   5.413   0.851 -0.3358 -0.6005  0.3866
 9311TIP3    H149348   6.601   5.400   0.939  3.4969 -0.6277 -0.9530
 9311TIP3    H249349   6.567   5.326   0.811  2.3021 -0.0507 -0.9804
 9312TIP3   OH249350   1.189   0.521   5.100  0.0467  0.2209 -0.2809
 9312TIP3    H149351   1.175   0.488   5.189  1.1505  0.1126 -0.1317
 9312TIP3    H249352   1.108   0.500   5.054 -0.5869  0.3963  0.7310
 9313TIP3   OH249353   6.592   5.067  16.863 -0.5601 -0.1308 -0.5692
 9313TIP3    H149354   6.657   5.111  16.918 -0.2399  1.7043 -2.3047
 9313TIP3    H249355   6.644   5.028  16.792 -0.9210 -2.7701  0.5034
 9314TIP3   OH249356   0.553   5.427  16.004  0.1648 -0.8105  0.0238
 9314TIP3    H149357   0.602   5.470  16.074 -0.8685 -1.0160  0.8965
 9314TIP3    H249358   0.584   5.470  15.924  1.2293 -0.4409  0.6089
 9315TIP3   OH249359   2.535   1.096  11.706 -0.2085  0.1507 -0.0993
 9315TIP3    H149360   2.531   1.157  11.632  0.1295  1.9179  1.2451
 9315TIP3    H249361   2.491   1.017  11.675  0.4056  0.6182 -2.3449
 9316TIP3   OH249362   1.972   0.080   5.433  0.0575  0.0259 -0.5383
 9316TIP3    H149363   2.018   0.070   5.516  0.1044  0.5666 -0.4979
 9316TIP3    H249364   1.945  -0.009   5.410  0.4860 -0.1963 -0.1983
 9317TIP3   OH249365   0.853   1.195   1.082  0.0043  0.4865 -0.1077
 9317TIP3    H149366   0.793   1.268   1.067 -1.7664 -0.6632  0.9696
 9317TIP3    H249367   0.873   1.200   1.176  0.1266 -0.2128 -0.0943
 9318TIP3   OH249368   0.404   2.726  15.394 -0.5383  0.1822 -0.8368
 9318TIP3    H149369   0.358   2.673  15.328 -1.5037  0.0242 -0.0626
 9318TIP3    H249370   0.415   2.667  15.468 -0.6413  0.7470 -0.3710
 9319TIP3   OH249371   5.003   4.855   2.564  0.5089  0.2616  0.2394
 9319TIP3    H149372   5.048   4.826   2.484 -1.2080  0.9522 -1.0448
 9319TIP3    H249373   5.000   4.950   2.557 -0.3173  0.2809  0.7605
 9320TIP3   OH249374   0.200   1.139   3.394 -0.3611  0.1422  0.0170
 9320TIP3    H149375   0.295   1.138   3.393 -0.3560 -0.9482  0.6656
 9320TIP3    H249376   0.176   1.099   3.478 -1.3892  0.5345 -0.0746
 9321TIP3   OH249377   4.796   0.271  16.770 -0.3111 -0.1058 -0.3368
 9321TIP3    H149378   4.710   0.312  16.760 -1.0555 -1.8645 -1.7667
 9321TIP3    H249379   4.778   0.177  16.763  1.6825 -0.5290 -0.2219
 9322TIP3   OH249380   1.211   1.664  16.638 -0.1624 -0.4850 -0.5427
 9322TIP3    H149381   1.230   1.575  16.608  1.5396 -0.1573 -0.5694
 9322TIP3    H249382   1.219   1.658  16.734  0.7276 -0.2241 -0.5900
 9323TIP3   OH249383   3.923   4.944  12.918 -0.0369  0.3161 -0.1077
 9323TIP3    H149384   3.882   5.023  12.953 -0.1861 -0.0381  0.5480
 9323TIP3    H249385   3.921   4.956  12.823  0.6352  1.4325  0.0030
 9324TIP3   OH249386   4.689   5.155   0.881 -0.2095 -0.0748  0.1994
 9324TIP3    H149387   4.709   5.133   0.973  0.6544  0.2848  0.1094
 9324TIP3    H249388   4.607   5.204   0.885 -0.1642 -0.0379  0.7886
 9325TIP3   OH249389   2.183   3.545  13.574  0.0407  0.0473 -0.7572
 9325TIP3    H149390   2.256   3.503  13.618 -0.1639  0.5013  0.0362
 9325TIP3    H249391   2.201   3.639  13.582  0.0784  0.1433 -1.7850
 9326TIP3   OH249392   3.798   5.311   0.609  0.3580 -0.0343 -0.2419
 9326TIP3    H149393   3.847   5.287   0.531 -0.6722 -0.2191 -0.8492
 9326TIP3    H249394   3.770   5.402   0.593 -1.9340 -0.8262 -1.2406
 9327TIP3   OH249395   5.193   4.514  16.986 -0.1112 -0.2466  0.1831
 9327TIP3    H149396   5.175   4.509  17.079  0.2736  2.1001  0.4407
 9327TIP3    H249397   5.122   4.567  16.950 -0.4253 -1.3636 -0.9473
 9328TIP3   OH249398   6.068   6.715  12.103 -0.2771  0.1500  0.1759
 9328TIP3    H149399   5.975   6.703  12.084 -0.7220 -0.7767  2.5639
 9328TIP3    H249400   6.110   6.721  12.017 -2.3754 -0.6074 -0.9674
 9329TIP3   OH249401   2.097   3.451  13.047  0.8314  0.2932  0.4325
 9329TIP3    H149402   2.173   3.447  12.989  0.4556 -2.4858  0.0017
 9329TIP3    H249403   2.030   3.497  12.997  0.5358 -1.9799 -1.4141
 9330TIP3   OH249404   1.528   5.489   3.261  0.1621  0.0171  0.2261
 9330TIP3    H149405   1.588   5.550   3.218  0.1899  0.3280  0.7008
 9330TIP3    H249406   1.572   5.468   3.343 -0.0146 -0.3694  0.2213
 9331TIP3   OH249407   5.825   0.581  12.213  0.5734  0.2106  0.0435
 9331TIP3    H149408   5.845   0.510  12.273  1.5956  0.5125  0.0762
 9331TIP3    H249409   5.815   0.538  12.128 -1.1710 -0.2530  0.4570
 9332TIP3   OH249410   1.959   5.616  11.440  0.2219  0.1644 -0.4692
 9332TIP3    H149411   1.874   5.648  11.407  0.3891 -0.3903 -1.4934
 9332TIP3    H249412   1.946   5.523  11.454 -0.2247  0.5805  2.4001
 9333TIP3   OH249413   0.624   5.499   3.014  0.0260 -0.5435  0.3678
 9333TIP3    H149414   0.643   5.591   3.037  2.7609 -0.9093 -0.0405
 9333TIP3    H249415   0.596   5.503   2.923 -1.7977  0.0309  0.9155
 9334TIP3   OH249416   5.864   5.113   0.619 -0.0494 -0.0598  0.0999
 9334TIP3    H149417   5.866   5.134   0.526  0.3165 -1.8875 -0.3291
 9334TIP3    H249418   5.955   5.090   0.640 -0.0493  0.7088  1.0227
 9335TIP3   OH249419   3.439   1.949   6.218  0.1595  0.2115  0.3411
 9335TIP3    H149420   3.411   1.998   6.141 -0.8096 -2.0058 -0.8045
 9335TIP3    H249421   3.377   1.976   6.287 -0.8639  0.0264 -0.4799
 9336TIP3   OH249422   2.333   3.417   4.678 -0.4952 -0.0044 -0.3723
 9336TIP3    H149423   2.282   3.406   4.598 -1.4623  0.3375  0.1904
 9336TIP3    H249424   2.272   3.453   4.742 -0.2311 -1.9321  1.0603
 9337TIP3   OH249425   2.241   6.017   2.915  0.6827 -0.3284 -0.0234
 9337TIP3    H149426   2.147   6.013   2.899  0.2780 -0.7760  2.1304
 9337TIP3    H249427   2.273   5.930   2.893  1.0103  0.3949 -2.7106
 9338TIP3   OH249428   0.645   0.091  10.816 -0.5207 -0.4595  0.3745
 9338TIP3    H149429   0.600   0.164  10.858 -3.1111 -2.0433  0.5925
 9338TIP3    H249430   0.641   0.020  10.881  1.3724 -1.0283 -0.0639
 9339TIP3   OH249431   5.597   6.504   4.675 -0.0279 -0.4788 -0.4639
 9339TIP3    H149432   5.669   6.510   4.612 -0.6688  0.2640 -1.1547
 9339TIP3    H249433   5.521   6.535   4.627 -1.0753 -2.3687 -0.1254
 9340TIP3   OH249434   6.407   0.702   1.080 -0.1564 -0.0265 -0.4013
 9340TIP3    H149435   6.338   0.728   1.140  0.3991  2.5352 -0.7310
 9340TIP3    H249436   6.488   0.730   1.122  0.6575 -2.1121 -0.4494
 9341TIP3   OH249437   3.206   0.666  14.791 -0.3541  0.2421 -0.4476
 9341TIP3    H149438   3.256   0.585  14.778  1.3804  1.2054 -0.1327
 9341TIP3    H249439   3.118   0.637  14.812  0.9145 -1.7295  2.9336
 9342TIP3   OH249440   5.745   2.851  14.029  0.6012  0.1072  0.0246
 9342TIP3    H149441   5.673   2.800  13.994 -0.0075  1.4078 -0.7051
 9342TIP3    H249442   5.806   2.860  13.957  0.8022  0.2225  0.2075
 9343TIP3   OH249443   4.386   5.738  12.180 -0.0212  0.3656  0.6916
 9343TIP3    H149444   4.349   5.812  12.228 -1.4450 -0.5819  1.1136
 9343TIP3    H249445   4.419   5.680  12.248  1.7072  0.8933  0.3359
 9344TIP3   OH249446   6.015   6.097  15.406 -0.1060  0.2235 -0.0662
 9344TIP3    H149447   6.053   6.027  15.458 -1.2683 -0.1816  0.2463
 9344TIP3    H249448   5.975   6.156  15.470 -0.9647  0.0694 -0.4552
 9345TIP3   OH249449   2.683   6.527  13.894 -0.1645  0.0898  0.2744
 9345TIP3    H149450   2.759   6.585  13.906 -0.0543 -0.1591  0.7991
 9345TIP3    H249451   2.618   6.559  13.956 -0.5170  0.3335 -0.2104
 9346TIP3   OH249452   3.803   4.759   2.267 -0.1537 -0.0977 -0.8688
 9346TIP3    H149453   3.806   4.848   2.302 -0.4229 -0.3652 -0.1425
 9346TIP3    H249454   3.830   4.768   2.175  0.6005  0.6198 -0.5885
 9347TIP3   OH249455   4.527   4.086  11.043 -0.5859  0.1110  0.5770
 9347TIP3    H149456   4.538   4.162  10.987 -1.0942 -0.7447 -0.7182
 9347TIP3    H249457   4.608   4.035  11.031 -0.4030  0.2555  1.1600
 9348TIP3   OH249458   4.335   4.526  15.572  0.5918  0.8433  0.2600
 9348TIP3    H149459   4.271   4.524  15.501  0.0775  2.3148  0.6377
 9348TIP3    H249460   4.288   4.567  15.645  1.0684 -0.7348  1.5207
 9349TIP3   OH249461   1.951   4.518  15.416 -0.6453  0.0964 -0.2610
 9349TIP3    H149462   1.910   4.441  15.456 -1.2560  0.8198  0.5549
 9349TIP3    H249463   1.887   4.588  15.430  0.5179  1.0757  0.3122
 9350TIP3   OH249464   1.065   0.307  14.865 -0.2041 -0.3026  0.2287
 9350TIP3    H149465   0.989   0.319  14.923 -0.9429 -1.2837 -0.4989
 9350TIP3    H249466   1.137   0.349  14.912 -1.1419  0.4767  1.0399
 9351TIP3   OH249467   5.714   3.585  15.353 -0.0164  0.1707  0.0149
 9351TIP3    H149468   5.672   3.499  15.348  2.1264 -0.9211  0.0400
 9351TIP3    H249469   5.676   3.625  15.432 -0.4123 -1.0826  0.4819
 9352TIP3   OH249470   6.130   1.338  15.213  0.0440  0.0104  0.1490
 9352TIP3    H149471   6.191   1.264  15.218 -0.5316 -0.4276  1.0743
 9352TIP3    H249472   6.155   1.395  15.285 -0.8230 -0.3427  0.7554
 9353TIP3   OH249473   5.120   2.292   3.701 -0.0417 -0.6101  0.2317
 9353TIP3    H149474   5.062   2.289   3.776  0.3043 -1.8869  0.4687
 9353TIP3    H249475   5.169   2.373   3.712 -0.8772 -0.1539  0.6983
 9354TIP3   OH249476   1.048   0.594   1.285  0.2935  0.3249  0.1928
 9354TIP3    H149477   1.039   0.656   1.358  0.7734 -0.7445  1.1922
 9354TIP3    H249478   1.081   0.647   1.213 -2.6629  1.9961 -0.1213
 9355TIP3   OH249479   1.777   2.221  16.825  0.3867 -0.3074 -0.4123
 9355TIP3    H149480   1.844   2.286  16.803  0.5843 -0.7553 -1.1818
 9355TIP3    H249481   1.694   2.265  16.807  0.1079  1.8439  4.5748
 9356TIP3   OH249482   5.032   0.988  14.900  0.0022 -0.4085 -0.1038
 9356TIP3    H149483   5.040   0.932  14.822  1.2264 -1.3909  0.6810
 9356TIP3    H249484   4.989   1.067  14.868  1.1216 -0.4742 -1.9617
 9357TIP3   OH249485   6.288   6.257  11.673  0.4932  0.1576 -0.2218
 9357TIP3    H149486   6.209   6.266  11.621 -0.9938  1.0262  2.0469
 9357TIP3    H249487   6.282   6.326  11.740  1.8455 -1.3996  1.6406
 9358TIP3   OH249488   2.714   1.170  16.813 -0.2236 -0.2032  0.0007
 9358TIP3    H149489   2.704   1.079  16.785  0.7161 -0.7660  1.3559
 9358TIP3    H249490   2.709   1.165  16.909 -0.5886  1.2320  0.0636
 9359TIP3   OH249491   4.556   5.857  15.450  0.4695  0.3988  0.1183
 9359TIP3    H149492   4.529   5.768  15.426  0.5548  0.2115  0.7183
 9359TIP3    H249493   4.651   5.857  15.437  0.6392  0.0408  1.2385
 9360TIP3   OH249494   2.212   1.006   1.862 -0.0258 -0.0167 -0.3339
 9360TIP3    H149495   2.165   1.051   1.933  1.0701  0.1558  0.3213
 9360TIP3    H249496   2.229   0.918   1.897 -1.2475 -0.6095 -1.1998
 9361TIP3   OH249497   5.931   4.015   0.512 -0.4797 -0.7371  0.3431
 9361TIP3    H149498   5.913   4.051   0.599  2.8036 -0.0558  0.8868
 9361TIP3    H249499   5.937   3.921   0.525 -1.3730 -0.7702  0.5444
 9362TIP3   OH249500   1.504   4.875  14.657  0.7066  1.0730 -0.5917
 9362TIP3    H149501   1.446   4.804  14.629 -0.2326  2.0219 -1.1343
 9362TIP3    H249502   1.576   4.831  14.702 -0.3768 -0.1635  0.0108
 9363TIP3   OH249503   6.489   1.932  15.914  1.1194  0.1069 -0.4097
 9363TIP3    H149504   6.505   1.861  15.852  1.7923  0.9565 -1.2443
 9363TIP3    H249505   6.475   2.009  15.859  0.2289  0.6022  0.4710
 9364TIP3   OH249506   0.229   2.038   1.173  0.3402  0.0786 -0.4964
 9364TIP3    H149507   0.172   1.968   1.139 -0.7516  0.7490 -0.1043
 9364TIP3    H249508   0.318   2.004   1.161 -0.1354 -1.0524 -1.0217
 9365TIP3   OH249509   1.227   2.735  10.695  0.8198  0.4084  0.7030
 9365TIP3    H149510   1.173   2.669  10.651  1.0295  1.2189 -0.8270
 9365TIP3    H249511   1.165   2.806  10.714  0.9767  0.5630  0.6314
 9366TIP3   OH249512   6.141   4.019   2.005  0.1358  0.4346 -0.0608
 9366TIP3    H149513   6.103   4.003   2.091 -0.5954 -2.7819 -0.8333
 9366TIP3    H249514   6.235   4.008   2.018 -0.1401 -3.3578 -0.0608
 9367TIP3   OH249515   2.768   1.586  16.108  0.0064 -0.5348 -0.0395
 9367TIP3    H149516   2.806   1.557  16.025  1.1442  1.5082 -0.2903
 9367TIP3    H249517   2.842   1.586  16.169 -0.4595 -0.3731  0.5280
 9368TIP3   OH249518   6.103   0.101  12.331 -0.6081 -0.1493 -0.2704
 9368TIP3    H149519   6.057   0.048  12.396 -0.5787 -0.0967 -0.2068
 9368TIP3    H249520   6.088   0.055  12.249 -0.1028 -0.5751 -0.1311
 9369TIP3   OH249521   2.608   4.713   1.808  0.2440  0.0881  0.2172
 9369TIP3    H149522   2.570   4.632   1.772  1.7746 -1.2837  1.5515
 9369TIP3    H249523   2.665   4.746   1.738 -1.5575  0.9365 -0.9341
 9370TIP3   OH249524   1.085   2.148   3.525  0.5596 -0.1004 -0.1173
 9370TIP3    H149525   1.129   2.063   3.528 -0.4133 -0.5824  1.7492
 9370TIP3    H249526   0.993   2.129   3.544  0.3281  1.3838  0.3867
 9371TIP3   OH249527   5.666   4.059   4.694  0.0772  0.2773  0.1179
 9371TIP3    H149528   5.745   4.112   4.686  0.3950 -0.2311 -0.1003
 9371TIP3    H249529   5.695   3.977   4.734 -0.8064  1.1813  2.8933
 9372TIP3   OH249530   0.988   4.180  14.302 -0.0029 -0.0512 -0.1375
 9372TIP3    H149531   0.998   4.274  14.318 -2.0197  0.0356  1.0047
 9372TIP3    H249532   0.935   4.175  14.222  0.2314 -0.2127 -0.2821
 9373TIP3   OH249533   0.211   5.856   3.830 -0.0891  0.3048 -0.0399
 9373TIP3    H149534   0.222   5.866   3.925  0.4172  0.0923 -0.0723
 9373TIP3    H249535   0.124   5.893   3.812 -1.4887 -2.2357  0.9313
 9374TIP3   OH249536   3.910   0.315  11.531  0.2644 -0.8501 -0.1984
 9374TIP3    H149537   3.980   0.265  11.489  1.0271  0.4520 -0.5586
 9374TIP3    H249538   3.909   0.398  11.484 -0.5209 -0.2834  0.7805
 9375TIP3   OH249539   2.600   4.383   4.214 -0.0016  0.2726 -0.2269
 9375TIP3    H149540   2.591   4.463   4.266 -1.0193 -0.0141  0.0630
 9375TIP3    H249541   2.595   4.312   4.278  1.7970 -0.0276 -0.3717
 9376TIP3   OH249542   2.747   5.841  13.814  0.6661  0.1152  0.0222
 9376TIP3    H149543   2.812   5.781  13.776 -0.8162 -1.2966 -0.3973
 9376TIP3    H249544   2.712   5.889  13.739 -0.1052 -0.4983 -0.0237
 9377TIP3   OH249545   2.301   0.217  15.956 -0.1972  0.1616 -0.3030
 9377TIP3    H149546   2.324   0.127  15.978  0.7287  0.8553  1.8197
 9377TIP3    H249547   2.213   0.211  15.917 -0.2037 -1.6213 -0.0769
 9378TIP3   OH249548   2.735   3.927   2.970  0.8566 -0.2253 -0.1930
 9378TIP3    H149549   2.803   3.907   2.906 -0.1008 -1.9106 -0.7438
 9378TIP3    H249550   2.676   3.988   2.925  1.6047  0.6939  0.0455
 9379TIP3   OH249551   1.186   3.219  16.941  0.1638  0.0812 -0.6143
 9379TIP3    H149552   1.189   3.180  16.854  0.9747 -0.2198 -0.4578
 9379TIP3    H249553   1.268   3.268  16.948  0.3675 -0.3778  0.2023
 9380TIP3   OH249554   5.640   2.855   1.006  0.5746  0.5363  0.0584
 9380TIP3    H149555   5.714   2.807   1.043 -0.1244  0.6789  1.7188
 9380TIP3    H249556   5.679   2.936   0.972  1.3478  0.0572 -0.2228
 9381TIP3   OH249557   0.341   5.393   6.303 -0.3253  0.6547 -0.4217
 9381TIP3    H149558   0.253   5.394   6.341 -0.0118  0.0558  0.3511
 9381TIP3    H249559   0.400   5.398   6.379  0.3397  3.4921 -1.0177
 9382TIP3   OH249560   3.504   6.363  14.389 -1.1777  0.1738 -0.0637
 9382TIP3    H149561   3.478   6.303  14.319 -0.4173  0.4062 -0.5547
 9382TIP3    H249562   3.588   6.398  14.360 -0.7973  0.1822  1.0277
 9383TIP3   OH249563   1.744   4.758   1.841  0.2082 -0.8423  0.0584
 9383TIP3    H149564   1.802   4.810   1.786  1.2033 -1.8932  0.0910
 9383TIP3    H249565   1.720   4.683   1.787 -0.4062 -0.8723  0.3625
 9384TIP3   OH249566   6.586   3.422   4.356  0.1636  0.6659 -0.1699
 9384TIP3    H149567   6.591   3.327   4.364  3.7780  0.6904 -0.3684
 9384TIP3    H249568   6.494   3.440   4.340 -0.6005 -2.8146 -0.5424
 9385TIP3   OH249569   4.645   2.004  13.783 -0.5559  0.4473 -0.0472
 9385TIP3    H149570   4.581   1.952  13.734 -0.6894  0.5191  0.0491
 9385TIP3    H249571   4.666   2.077  13.726 -0.6369  0.4778 -0.0377
 9386TIP3   OH249572   1.966   5.515  14.290 -0.2880  0.2618 -0.1452
 9386TIP3    H149573   1.973   5.422  14.269  0.9947  0.5086 -0.8890
 9386TIP3    H249574   1.891   5.521  14.350 -0.4913 -1.2160 -0.2344
 9387TIP3   OH249575   4.206   1.644  12.082  0.7594  0.6403  0.7667
 9387TIP3    H149576   4.285   1.643  12.137 -0.2761  0.7332  2.3119
 9387TIP3    H249577   4.135   1.660  12.143 -0.4568  0.7385 -0.6330
 9388TIP3   OH249578   4.036   6.356  17.030  0.2330  0.0705 -0.0401
 9388TIP3    H149579   4.014   6.344  16.937 -2.2290  1.2492  0.3157
 9388TIP3    H249580   4.125   6.322  17.038 -0.0316 -1.4575 -2.5146
 9389TIP3   OH249581   3.078   5.901   2.825  0.1983 -0.7071 -0.0556
 9389TIP3    H149582   3.016   5.974   2.811 -0.5790 -0.7159  2.6541
 9389TIP3    H249583   3.133   5.931   2.897  0.8957 -2.2013  0.0591
 9390TIP3   OH249584   4.382   2.822  15.948  0.3354  0.4414 -0.5210
 9390TIP3    H149585   4.398   2.860  16.035  0.6819 -0.5095 -0.1516
 9390TIP3    H249586   4.303   2.866  15.917 -1.0005 -0.6249  1.1501
 9391TIP3   OH249587   0.944   4.464  11.270  0.3634  0.9039  0.0293
 9391TIP3    H149588   1.012   4.398  11.256 -1.4387 -1.1266  0.4475
 9391TIP3    H249589   0.993   4.543  11.295  2.6029 -0.1686 -0.6789
 9392TIP3   OH249590   6.094   3.126  14.601  0.0951  0.7565  0.4094
 9392TIP3    H149591   6.114   3.219  14.587 -0.5169  0.7105 -0.8949
 9392TIP3    H249592   6.060   3.123  14.690 -0.3768  1.8907  0.2951
 9393TIP3   OH249593   5.960   3.746   2.405 -0.1561  0.1573  0.7534
 9393TIP3    H149594   5.872   3.718   2.378 -0.2304  1.0352  0.0447
 9393TIP3    H249595   5.943   3.809   2.475 -0.1116  0.6902  0.2853
 9394TIP3   OH249596   0.512   3.470  10.552  0.6206 -0.3333 -0.9913
 9394TIP3    H149597   0.452   3.441  10.622  3.1196 -3.8139 -0.0431
 9394TIP3    H249598   0.493   3.413  10.479 -0.3209  1.7281 -2.4660
 9395TIP3   OH249599   0.783   1.080   2.064  0.7011  0.5136  0.2926
 9395TIP3    H149600   0.735   1.057   2.143  1.0238 -1.7749 -0.1005
 9395TIP3    H249601   0.724   1.059   1.992  1.5511 -0.4764 -0.1393
 9396TIP3   OH249602   0.457   1.684   1.799 -0.5472  0.6265  0.0653
 9396TIP3    H149603   0.474   1.768   1.756  1.2299  1.1463  1.6543
 9396TIP3    H249604   0.535   1.668   1.851 -1.2640 -1.5747  0.5413
 9397TIP3   OH249605   5.817   0.092   1.017  0.1437  0.2611 -0.1367
 9397TIP3    H149606   5.829   0.187   1.016  0.4341  0.2719  1.3684
 9397TIP3    H249607   5.906   0.056   1.025 -0.0494 -0.0877  0.4896
 9398TIP3   OH249608   0.091   2.497  14.368 -0.1315  0.6053 -0.3117
 9398TIP3    H149609   0.123   2.577  14.409 -0.1212  0.8154 -0.7263
 9398TIP3    H249610   0.026   2.526  14.304  0.1739  0.3197 -0.7621
 9399TIP3   OH249611   5.836   6.115   1.380 -0.4447  0.6018  0.1450
 9399TIP3    H149612   5.742   6.129   1.371 -0.9075 -0.9650  1.9210
 9399TIP3    H249613   5.857   6.048   1.315 -0.6986  0.4287  0.2406
 9400TIP3   OH249614   0.443   0.475   5.050  0.7936 -0.0339  0.0734
 9400TIP3    H149615   0.369   0.495   4.994 -0.2283  1.1445  1.7781
 9400TIP3    H249616   0.405   0.429   5.125  1.8741  0.0154  0.6700
 9401TIP3   OH249617   4.369   5.013   0.250  0.0519  0.0344  0.5807
 9401TIP3    H149618   4.282   5.042   0.277  0.5275  0.7539  1.3695
 9401TIP3    H249619   4.379   4.926   0.288 -0.4442 -0.1795  0.2244
 9402TIP3   OH249620   5.603   1.539   1.958 -0.1501  0.0797  0.1112
 9402TIP3    H149621   5.603   1.632   1.936 -0.0498 -0.3211 -1.8045
 9402TIP3    H249622   5.657   1.498   1.890 -0.6188 -1.4376  0.6016
 9403TIP3   OH249623   1.653   1.377   0.321  0.1145  0.0844  0.1185
 9403TIP3    H149624   1.615   1.352   0.238  1.6050 -0.5987 -0.3959
 9403TIP3    H249625   1.591   1.346   0.387 -0.5199 -0.4069 -0.6971
 9404TIP3   OH249626   1.977   3.400   6.408 -0.5566 -0.0701 -0.5042
 9404TIP3    H149627   1.916   3.431   6.341 -0.3591  0.8113 -0.2898
 9404TIP3    H249628   2.003   3.312   6.378 -0.2357  0.4247 -1.7499
 9405TIP3   OH249629   1.276   4.586   5.992 -0.6465 -0.2422  0.0567
 9405TIP3    H149630   1.250   4.657   6.051 -1.0586 -0.8155  0.5904
 9405TIP3    H249631   1.224   4.600   5.913 -0.9046 -0.0838  0.2511
 9406TIP3   OH249632   1.244   3.663  14.726  0.1325  0.6053  0.8699
 9406TIP3    H149633   1.260   3.569  14.730 -0.3564  0.4674 -0.0820
 9406TIP3    H249634   1.155   3.671  14.692  0.5222  1.4193 -0.0020
 9407TIP3   OH249635   6.477   1.027   4.280 -0.1402  0.3588  0.0544
 9407TIP3    H149636   6.464   0.969   4.205 -0.5092 -1.3856  1.4048
 9407TIP3    H249637   6.391   1.035   4.320  0.3599 -0.2665  1.3336
 9408TIP3   OH249638   4.236   5.262  15.740 -0.4556 -0.1364  0.1306
 9408TIP3    H149639   4.317   5.236  15.783  0.0703  1.0269 -0.1250
 9408TIP3    H249640   4.200   5.331  15.797 -0.8120 -0.0440 -0.2037
 9409TIP3   OH249641   6.234   3.743   5.190 -0.5664 -0.1161 -0.1942
 9409TIP3    H149642   6.263   3.809   5.253 -1.4948  0.2269 -0.0969
 9409TIP3    H249643   6.171   3.690   5.238 -1.1375  0.0233 -0.7662
 9410TIP3   OH249644   4.258   3.953  16.614 -0.0883 -0.7809 -0.1141
 9410TIP3    H149645   4.171   3.988  16.632  0.3845  0.7090 -0.6137
 9410TIP3    H249646   4.264   3.950  16.519 -0.2569 -2.6668 -0.1111
 9411TIP3   OH249647   2.266   6.061   2.512 -0.2155  0.4391 -0.4404
 9411TIP3    H149648   2.272   5.995   2.581 -2.0410 -0.9222 -1.4789
 9411TIP3    H249649   2.220   6.134   2.554  1.4421  0.9188  0.6038
 9412TIP3   OH249650   4.630   6.364  16.454  0.2212  0.0964  0.1491
 9412TIP3    H149651   4.607   6.355  16.362 -0.8085  0.5325  0.3486
 9412TIP3    H249652   4.582   6.441  16.484 -0.0497 -0.4703  1.2268
 9413TIP3   OH249653   4.161   4.275   1.005 -0.2538 -0.2494 -0.2071
 9413TIP3    H149654   4.151   4.230   0.922 -0.3035  0.6246 -0.6862
 9413TIP3    H249655   4.071   4.293   1.033 -0.2945 -1.7618  0.7354
 9414TIP3   OH249656   1.672   2.526  14.115  0.4056  0.4413 -0.1962
 9414TIP3    H149657   1.723   2.518  14.195  1.6558 -0.6196 -1.0512
 9414TIP3    H249658   1.663   2.436  14.083 -0.5977  0.7856 -0.9350
 9415TIP3   OH249659   5.229   2.313  11.521 -0.1890 -0.1064 -0.8095
 9415TIP3    H149660   5.305   2.371  11.530 -0.6922  0.4215  0.2466
 9415TIP3    H249661   5.155   2.373  11.511 -0.8508 -0.5081  1.3245
 9416TIP3   OH249662   1.407   3.608  16.096 -0.2557  0.0087  0.1853
 9416TIP3    H149663   1.353   3.559  16.034 -0.4171  1.8143 -1.1836
 9416TIP3    H249664   1.352   3.618  16.174 -0.4763 -1.3238  0.2155
 9417TIP3   OH249665   4.460   4.802   1.888  0.6388  0.3436 -0.4456
 9417TIP3    H149666   4.381   4.780   1.839  1.3622 -1.0928 -1.0191
 9417TIP3    H249667   4.437   4.784   1.979  0.8385 -1.8697 -0.7755
 9418TIP3   OH249668   3.657   2.397  12.677  0.1327 -0.1296 -0.0666
 9418TIP3    H149669   3.599   2.451  12.622  1.1833  0.8132 -0.2771
 9418TIP3    H249670   3.703   2.341  12.614  0.6241  0.2610 -0.0556
 9419TIP3   OH249671   5.576   4.502   2.144  0.7630  0.4510  0.3560
 9419TIP3    H149672   5.575   4.467   2.233  0.9368 -0.1551  0.1231
 9419TIP3    H249673   5.497   4.556   2.139  1.5901  1.8174  1.3849
 9420TIP3   OH249674   2.213   1.522  13.799  0.2001  0.4369  0.0594
 9420TIP3    H149675   2.269   1.536  13.723 -1.2372  0.3481 -1.0759
 9420TIP3    H249676   2.159   1.601  13.803 -0.0525  0.2372  0.7137
 9421TIP3   OH249677   0.729   0.671   3.134 -0.0731  0.0208 -0.6440
 9421TIP3    H149678   0.716   0.583   3.099 -1.6855 -0.6047  1.3490
 9421TIP3    H249679   0.822   0.673   3.160 -0.2836 -1.5392  0.3654
 9422TIP3   OH249680   1.528   4.348   1.493  0.1901  0.4796 -0.5093
 9422TIP3    H149681   1.560   4.430   1.456  0.5895  0.6327  0.1504
 9422TIP3    H249682   1.584   4.280   1.454 -1.4700  0.2678 -2.6591
 9423TIP3   OH249683   2.370   2.231  15.941 -0.7438  0.0265 -0.2843
 9423TIP3    H149684   2.299   2.184  15.986 -0.3039 -0.4183 -0.0437
 9423TIP3    H249685   2.331   2.315  15.915 -1.0330  0.2809  0.8937
 9424TIP3   OH249686   2.510   6.714  10.892  0.1506  0.4132  0.0720
 9424TIP3    H149687   2.585   6.725  10.833  1.0636 -0.7852  0.9464
 9424TIP3    H249688   2.449   6.784  10.868  0.0588 -0.5811 -2.9061
 9425TIP3   OH249689   5.569   5.774   1.191 -0.7235 -0.3357  0.1366
 9425TIP3    H149690   5.520   5.760   1.272 -1.6333 -0.2734 -0.3864
 9425TIP3    H249691   5.575   5.869   1.183  2.0542 -0.2523  1.6730
 9426TIP3   OH249692   2.850   5.338  12.334 -0.1308 -0.1712  0.2001
 9426TIP3    H149693   2.945   5.328  12.334 -0.1984 -1.4215 -1.7807
 9426TIP3    H249694   2.832   5.388  12.254 -1.0131  2.2447  1.8212
 9427TIP3   OH249695   2.727   6.728   3.442 -0.1088 -0.3139 -0.2308
 9427TIP3    H149696   2.781   6.795   3.401  0.7663 -0.9897 -0.2102
 9427TIP3    H249697   2.709   6.664   3.372 -1.4367  0.2171 -0.4082
 9428TIP3   OH249698   5.506   2.853  14.439 -0.2590 -0.2039  0.4878
 9428TIP3    H149699   5.494   2.948  14.436 -0.7749 -0.1854  2.1811
 9428TIP3    H249700   5.422   2.817  14.408 -0.2405 -0.1202  0.3365
 9429TIP3   OH249701   5.045   2.362  13.692  0.0533  0.0153 -0.8422
 9429TIP3    H149702   5.024   2.429  13.627  0.5910 -0.1434 -1.1893
 9429TIP3    H249703   5.139   2.351  13.685  0.2373  0.5739  0.5449
 9430TIP3   OH249704   3.485   4.616   4.905  0.0585  0.0213  0.0153
 9430TIP3    H149705   3.511   4.675   4.976 -2.3479 -0.6063  1.5413
 9430TIP3    H249706   3.442   4.673   4.841  1.0958  0.4118 -0.3516
 9431TIP3   OH249707   3.384   2.826  13.474 -0.3212  0.4561 -0.4017
 9431TIP3    H149708   3.361   2.832  13.567 -1.9596  0.3965 -0.7721
 9431TIP3    H249709   3.323   2.763  13.437  0.4869  0.2646 -1.4826
 9432TIP3   OH249710   1.192   3.861   1.170  0.4577 -0.5508 -0.5387
 9432TIP3    H149711   1.239   3.904   1.098 -0.7405 -0.6879 -1.4235
 9432TIP3    H249712   1.126   3.925   1.197  0.1998 -0.9202 -0.2789
 9433TIP3   OH249713   1.084   2.907   1.357  0.6168 -0.1698 -0.3054
 9433TIP3    H149714   1.069   2.844   1.427  0.9361 -0.2754 -0.3309
 9433TIP3    H249715   1.171   2.885   1.323  0.5854  0.0651 -0.5410
 9434TIP3   OH249716   1.455   4.605  17.207  0.4300  0.0752 -0.4772
 9434TIP3    H149717   1.523   4.552  17.164  1.4906  1.0414 -0.0376
 9434TIP3    H249718   1.455   4.576  17.298 -0.2738 -0.4286 -0.6290
 9435TIP3   OH249719   1.702   1.630  14.395  0.4198 -0.4388  0.2060
 9435TIP3    H149720   1.691   1.665  14.307  0.1911 -2.1004 -0.4736
 9435TIP3    H249721   1.633   1.673  14.447  1.5257  1.7115 -0.0007
 9436TIP3   OH249722   3.769   1.672  13.290 -0.3413  0.0434  0.1552
 9436TIP3    H149723   3.708   1.703  13.357  0.6112  0.8198  0.7133
 9436TIP3    H249724   3.734   1.704  13.208 -1.4298 -0.7545  0.2940
 9437TIP3   OH249725   4.043   0.998  16.593  0.2814 -0.4125  0.1665
 9437TIP3    H149726   4.112   1.062  16.577  1.4527 -2.1075 -2.1754
 9437TIP3    H249727   3.962   1.048  16.586  1.1868  1.2965  1.2497
 9438TIP3   OH249728   5.819   2.429   4.072 -0.0122  0.1153 -0.2073
 9438TIP3    H149729   5.742   2.450   4.017 -0.1496 -0.8662 -0.3981
 9438TIP3    H249730   5.880   2.501   4.055 -0.3337  0.1865 -1.1187
 9439TIP3   OH249731   4.430   0.872  17.312 -0.3056 -0.1120  0.1755
 9439TIP3    H149732   4.515   0.896  17.351  0.1288 -0.0792 -0.7684
 9439TIP3    H249733   4.405   0.792  17.359  0.2228 -0.0932  0.5057
 9440TIP3   OH249734   4.649   5.441   2.533  0.3956  0.3812  0.1815
 9440TIP3    H149735   4.696   5.473   2.457  0.2465 -1.4232 -0.7249
 9440TIP3    H249736   4.558   5.469   2.519  1.0404  4.0357  2.0284
 9441TIP3   OH249737   4.774   6.598   1.529  0.7802  0.2779  0.4744
 9441TIP3    H149738   4.851   6.575   1.581  1.1113  2.3100  0.9796
 9441TIP3    H249739   4.805   6.594   1.439  0.4577 -2.3553  0.3947
 9442TIP3   OH249740   1.559   3.267  11.201 -0.0466 -0.0660 -0.3751
 9442TIP3    H149741   1.562   3.174  11.179 -1.1169 -0.2193  0.0630
 9442TIP3    H249742   1.616   3.275  11.278 -1.4009 -0.7281  0.7454
 9443TIP3   OH249743   3.341   1.474  12.505 -0.4138 -0.5072 -0.0705
 9443TIP3    H149744   3.333   1.379  12.498 -0.8627 -0.4600 -0.2512
 9443TIP3    H249745   3.416   1.488  12.563  0.7570 -0.9622 -1.4111
 9444TIP3   OH249746   6.389   0.948  15.676 -0.2618 -0.4226  0.1669
 9444TIP3    H149747   6.306   0.926  15.633  0.0441  0.5852 -0.9967
 9444TIP3    H249748   6.422   0.865  15.708  0.0165 -1.4308 -2.5375
 9445TIP3   OH249749   4.403   6.002  12.386  0.3387 -0.4987 -0.3908
 9445TIP3    H149750   4.437   6.078  12.433  0.8612 -0.7195 -0.4073
 9445TIP3    H249751   4.398   6.030  12.295 -2.3550  0.5334 -0.0149
 9446TIP3   OH249752   5.322   0.151   1.058  0.3596 -0.3328 -0.3860
 9446TIP3    H149753   5.245   0.096   1.070 -0.0563  0.3911  0.3227
 9446TIP3    H249754   5.331   0.161   0.963  0.1900 -1.2566 -0.5043
 9447TIP3   OH249755   0.141   3.341  14.193 -0.4107 -0.2382  0.3503
 9447TIP3    H149756   0.060   3.338  14.141  0.0140 -0.5154 -0.2949
 9447TIP3    H249757   0.138   3.261  14.245 -0.0026 -0.8333 -0.5128
 9448TIP3   OH249758   0.762   1.263  15.556  0.3060  0.5371 -0.7148
 9448TIP3    H149759   0.739   1.171  15.571 -0.8260  1.1311  1.6093
 9448TIP3    H249760   0.731   1.281  15.467 -0.1274 -1.1051 -0.9323
 9449TIP3   OH249761   5.283   6.148  12.683  0.0815  0.4565 -0.1233
 9449TIP3    H149762   5.279   6.076  12.746 -0.8181 -0.5344 -1.2684
 9449TIP3    H249763   5.224   6.214  12.717  0.2309  0.2854  0.4812
 9450TIP3   OH249764   0.186   6.577   5.213 -0.1377 -0.9225 -0.3973
 9450TIP3    H149765   0.281   6.589   5.209 -0.2476  0.3899  0.3894
 9450TIP3    H249766   0.160   6.621   5.294 -1.3916 -1.4756 -0.4775
 9451TIP3   OH249767   3.081   0.148   3.189  0.0893 -0.7320 -0.2777
 9451TIP3    H149768   3.170   0.182   3.179  0.2905 -1.4427 -1.0512
 9451TIP3    H249769   3.043   0.200   3.259  1.5200 -1.2374  0.9265
 9452TIP3   OH249770   0.011   5.179   6.099 -0.2590 -0.4197  0.1074
 9452TIP3    H149771  -0.081   5.203   6.082  0.1714 -0.2228 -2.2585
 9452TIP3    H249772   0.013   5.084   6.090 -0.3098 -0.4830  0.7069
 9453TIP3   OH249773   5.777   3.416  12.881  0.1147  0.7225 -0.1735
 9453TIP3    H149774   5.795   3.488  12.942 -1.1710  0.1201  0.9767
 9453TIP3    H249775   5.745   3.459  12.802  0.7365  1.4661 -0.0382
 9454TIP3   OH249776   5.899   5.531  12.755 -0.3035 -0.1955  0.6904
 9454TIP3    H149777   5.956   5.599  12.791  0.4722 -0.9049  0.8412
 9454TIP3    H249778   5.960   5.464  12.722 -1.0449 -1.1824  1.2674
 9455TIP3   OH249779   0.504   4.437   3.382  0.2031  0.0615  0.3669
 9455TIP3    H149780   0.531   4.347   3.363 -1.1612 -0.1668 -0.6457
 9455TIP3    H249781   0.418   4.428   3.421  0.5536  0.8916  1.3690
 9456TIP3   OH249782   5.869   5.720  13.571  0.2884  0.0726 -0.2433
 9456TIP3    H149783   5.939   5.698  13.509 -0.0266 -0.9850 -0.2547
 9456TIP3    H249784   5.899   5.799  13.614  1.9992 -0.9220  0.4970
 9457TIP3   OH249785   0.720   1.665   1.923 -0.0275 -0.0195  0.0382
 9457TIP3    H149786   0.703   1.751   1.961  0.0973  0.4444 -0.9270
 9457TIP3    H249787   0.815   1.663   1.912  0.0125 -0.4514  0.4273
 9458TIP3   OH249788   0.559   4.433  16.908  0.4059 -0.4694 -0.0317
 9458TIP3    H149789   0.585   4.470  16.824 -0.7385 -1.9499 -1.1000
 9458TIP3    H249790   0.557   4.338  16.892 -0.0800 -0.7604  1.6037
 9459TIP3   OH249791   3.332   3.865   4.040 -0.0905  0.4495  0.4335
 9459TIP3    H149792   3.353   3.778   4.006 -0.3906  0.9619 -1.1706
 9459TIP3    H249793   3.416   3.900   4.070 -0.1443 -0.8063  2.1997
 9460TIP3   OH249794   3.382   1.495  14.866 -0.2667  0.3084  0.3269
 9460TIP3    H149795   3.372   1.517  14.774  0.8654  0.6928  0.2807
 9460TIP3    H249796   3.466   1.450  14.872 -0.8274 -0.6944  1.0184
 9461TIP3   OH249797   0.638   0.027  17.076 -0.1880  0.1152 -0.4928
 9461TIP3    H149798   0.630   0.116  17.110 -0.7846 -0.5372  1.1339
 9461TIP3    H249799   0.689  -0.020  17.142 -0.2061 -0.8550 -1.1413
 9462TIP3   OH249800   5.985   2.598  16.343 -0.1799 -0.0969  0.6224
 9462TIP3    H149801   5.923   2.527  16.327  0.2982 -0.8186  1.8595
 9462TIP3    H249802   5.969   2.625  16.433 -1.4400  2.4989 -0.2519
 9463TIP3   OH249803   6.628   2.540  13.116 -0.1348 -0.6543 -0.3030
 9463TIP3    H149804   6.672   2.555  13.032 -0.4084 -2.4703 -0.8231
 9463TIP3    H249805   6.544   2.586  13.107  1.1605  1.9943  0.3259
 9464TIP3   OH249806   5.122   2.313  14.177  0.3421  0.2646 -0.3935
 9464TIP3    H149807   5.119   2.223  14.144 -0.8060  0.2476 -0.2797
 9464TIP3    H249808   5.033   2.330  14.208  0.9633  0.8701  1.1484
 9465TIP3   OH249809   5.139   0.291  13.615  0.5729 -0.5367  0.0569
 9465TIP3    H149810   5.092   0.372  13.634 -0.6872 -0.9058 -1.2653
 9465TIP3    H249811   5.169   0.302  13.525 -1.4546 -2.3154 -0.9235
 9466TIP3   OH249812   4.321   2.030   2.390 -0.2028 -0.1755  0.7668
 9466TIP3    H149813   4.361   2.113   2.366 -1.4082  0.5730  1.2431
 9466TIP3    H249814   4.229   2.050   2.403 -0.3220 -1.3396  2.0434
 9467TIP3   OH249815   3.391   6.223   4.025 -0.2383 -0.2104 -0.6376
 9467TIP3    H149816   3.395   6.238   4.119  1.1436  3.7144 -1.1124
 9467TIP3    H249817   3.298   6.233   4.002 -0.0804  4.2146 -0.1491
 9468TIP3   OH249818   6.467   4.454   0.569 -0.1783  0.2905 -0.1541
 9468TIP3    H149819   6.532   4.491   0.509  0.5829 -0.2088  0.3462
 9468TIP3    H249820   6.393   4.430   0.513 -0.3771  1.8108 -0.6019
 9469TIP3   OH249821   3.183   3.267   4.474  0.2403  0.4606  0.2309
 9469TIP3    H149822   3.221   3.194   4.426  1.9563  0.8395  0.9267
 9469TIP3    H249823   3.226   3.345   4.438 -0.1152  0.9354  0.8055
 9470TIP3   OH249824   0.932   3.397   6.472 -0.8916  0.3823  0.1522
 9470TIP3    H149825   0.969   3.376   6.386 -0.4705  0.1840  0.3767
 9470TIP3    H249826   0.948   3.491   6.481 -0.6472  0.3431  0.1469
 9471TIP3   OH249827   6.049   3.402   1.814 -0.8613  0.1592  0.5384
 9471TIP3    H149828   6.016   3.487   1.787 -0.4596  0.7242  1.7654
 9471TIP3    H249829   5.990   3.339   1.771 -0.0687  0.9574 -1.8340
 9472TIP3   OH249830   2.486   5.274   2.968 -0.4870 -0.1957  0.2843
 9472TIP3    H149831   2.551   5.211   3.000  1.2930  1.1929 -0.4675
 9472TIP3    H249832   2.415   5.269   3.032  1.3434 -0.1380  2.4266
 9473TIP3   OH249833   2.030   5.642  16.167  1.0076  0.0047 -0.1656
 9473TIP3    H149834   2.045   5.551  16.141 -0.9506 -0.5400  0.4713
 9473TIP3    H249835   2.075   5.694  16.100 -0.0221 -1.4025 -2.0306
 9474TIP3   OH249836   3.173   0.299   1.830  0.1859  0.7866  0.2098
 9474TIP3    H149837   3.124   0.238   1.775 -1.5104  3.4012 -1.3993
 9474TIP3    H249838   3.221   0.243   1.891 -0.9843 -2.1176 -1.3378
 9475TIP3   OH249839   1.575   1.330   0.070  0.3009 -0.3187  0.4071
 9475TIP3    H149840   1.539   1.377  -0.005  2.7466  0.8132 -0.1416
 9475TIP3    H249841   1.569   1.237   0.045  1.5690  0.0500 -1.4768
 9476TIP3   OH249842   5.322   6.274  14.778 -0.2437 -0.5533 -0.0071
 9476TIP3    H149843   5.228   6.263  14.792 -0.3243  0.6096  0.4580
 9476TIP3    H249844   5.350   6.191  14.741 -1.0562 -1.7429  1.8799
 9477TIP3   OH249845   3.581   4.010   3.487  0.5227  0.5303 -0.1626
 9477TIP3    H149846   3.662   4.028   3.439  1.0120  0.5723  0.6694
 9477TIP3    H249847   3.553   4.096   3.519 -0.2798  0.6326 -1.1042
 9478TIP3   OH249848   3.835   6.535   5.698  0.1057  0.1124 -0.2459
 9478TIP3    H149849   3.865   6.566   5.613  0.8064  1.2930  0.4122
 9478TIP3    H249850   3.915   6.519   5.748 -0.2742  2.0355  1.0846
 9479TIP3   OH249851   1.826   2.692   2.507  0.0425  0.4019 -0.2941
 9479TIP3    H149852   1.773   2.772   2.507 -0.9614 -0.2144 -2.0151
 9479TIP3    H249853   1.801   2.646   2.427  0.4625 -1.7390  0.7200
 9480TIP3   OH249854   6.643   2.431   3.925 -0.1554  0.4230  0.0429
 9480TIP3    H149855   6.724   2.479   3.909  0.6454 -0.8484  0.1522
 9480TIP3    H249856   6.597   2.433   3.841  1.9395 -2.3523 -1.3186
 9481TIP3   OH249857   3.151   0.147   5.316  0.3962  0.2998 -0.4259
 9481TIP3    H149858   3.076   0.194   5.281  0.9018  0.9244 -0.6912
 9481TIP3    H249859   3.165   0.186   5.403  0.4080  0.1739 -0.3705
 9482TIP3   OH249860   1.367   5.707  12.203 -0.2859  0.7471 -0.2445
 9482TIP3    H149861   1.398   5.616  12.199 -1.4989  0.3408 -0.9508
 9482TIP3    H249862   1.419   5.747  12.273  0.6041 -0.3519 -0.2504
 9483TIP3   OH249863   4.663   0.422   2.633  0.0520 -0.2153  0.2838
 9483TIP3    H149864   4.711   0.492   2.676  1.0741 -0.4554 -0.4434
 9483TIP3    H249865   4.704   0.342   2.665 -1.1489 -0.5228  1.1628
 9484TIP3   OH249866   0.008   5.020   5.560  0.1781  0.0630  0.1578
 9484TIP3    H149867   0.054   4.948   5.516 -0.8932 -0.9406  0.6124
 9484TIP3    H249868   0.076   5.065   5.610  1.0925  0.1572 -1.1429
 9485TIP3   OH249869   2.643   6.192   6.199  0.0430 -0.4385  0.2322
 9485TIP3    H149870   2.689   6.263   6.244 -0.9332  1.3224 -1.3468
 9485TIP3    H249871   2.550   6.217   6.205 -0.3309 -1.6238 -0.3228
 9486TIP3   OH249872   2.027   4.187   6.360  0.3061 -0.5636  0.1122
 9486TIP3    H149873   2.102   4.185   6.419 -1.0376 -2.3325  1.8782
 9486TIP3    H249874   1.970   4.255   6.396  0.0492 -0.7743  0.1058
 9487TIP3   OH249875   4.931   0.879  12.074  0.8766 -0.3666 -0.3702
 9487TIP3    H149876   4.971   0.964  12.095 -0.6639  0.2989  0.0282
 9487TIP3    H249877   4.962   0.820  12.143  1.5234  0.0011 -0.3361
 9488TIP3   OH249878   0.792   2.205   4.129  0.3882 -0.2541  0.6288
 9488TIP3    H149879   0.711   2.154   4.135 -0.0719  0.4642  0.6878
 9488TIP3    H249880   0.810   2.210   4.036  1.0133 -1.3988  0.6740
 9489TIP3   OH249881   5.603   1.401   2.192 -0.1266  0.3650  0.5050
 9489TIP3    H149882   5.520   1.426   2.232 -0.7450  0.1003 -0.5678
 9489TIP3    H249883   5.607   1.452   2.111  0.6507  0.2059  0.4337
 9490TIP3   OH249884   1.660   0.444  12.340 -0.4003 -0.2860 -0.1457
 9490TIP3    H149885   1.575   0.405  12.360 -0.4505  0.1975  0.6501
 9490TIP3    H249886   1.711   0.434  12.421  1.0064 -2.3165 -1.2273
 9491TIP3   OH249887   4.106   1.564   4.878  0.1673 -0.3635  0.0425
 9491TIP3    H149888   4.097   1.487   4.933  0.9097 -0.0627  0.6028
 9491TIP3    H249889   4.126   1.530   4.791 -1.7207 -0.8706 -0.2252
 9492TIP3   OH249890   6.080   6.184   0.573 -0.8770 -0.0741 -0.0757
 9492TIP3    H149891   6.119   6.271   0.564 -1.1196  0.3258  2.2175
 9492TIP3    H249892   6.154   6.125   0.588 -0.8393  0.0261  0.1350
 9493TIP3   OH249893   4.684   2.982   4.132  0.6015 -0.2682 -0.0336
 9493TIP3    H149894   4.656   3.073   4.126  0.3526 -0.3038  0.4845
 9493TIP3    H249895   4.603   2.932   4.144  0.5837 -0.7296 -1.8155
 9494TIP3   OH249896   0.334   1.428  12.928  0.6631 -0.3105 -0.0395
 9494TIP3    H149897   0.397   1.358  12.910 -1.1320 -1.5449 -2.2096
 9494TIP3    H249898   0.290   1.400  13.009  2.2244  0.1155  0.9974
 9495TIP3   OH249899   2.111   5.837  13.941 -0.5789  0.0779  0.5592
 9495TIP3    H149900   2.185   5.794  13.983 -0.9213 -0.5187  0.5685
 9495TIP3    H249901   2.146   5.871  13.859 -0.4936 -0.9718  0.1487
 9496TIP3   OH249902   1.710   6.140  16.945 -0.1210 -0.0341 -0.0128
 9496TIP3    H149903   1.622   6.103  16.943  0.2716 -0.9733 -1.0665
 9496TIP3    H249904   1.767   6.066  16.966  0.6372  0.0431 -1.6532
 9497TIP3   OH249905   4.916   2.043   1.287  0.2938  0.7933 -0.0887
 9497TIP3    H149906   4.834   2.088   1.309 -0.8585 -1.4146  0.3523
 9497TIP3    H249907   4.982   2.086   1.343 -0.6421  2.1791  0.0069
 9498TIP3   OH249908   5.245   4.138  14.870 -0.0938  0.0118 -0.1645
 9498TIP3    H149909   5.320   4.119  14.927 -0.4349  1.1008  0.6952
 9498TIP3    H249910   5.179   4.073  14.895  0.6433 -1.1237 -1.1163
 9499TIP3   OH249911   2.813   1.129   2.495 -0.2944  0.1448  0.6257
 9499TIP3    H149912   2.751   1.103   2.563  0.0260  0.0866  0.9022
 9499TIP3    H249913   2.899   1.105   2.531 -0.2103 -1.1126 -0.3385
 9500TIP3   OH249914   2.796   5.740  12.395 -0.4407  0.6644 -0.1459
 9500TIP3    H149915   2.868   5.723  12.334  0.3326  0.8176  0.7077
 9500TIP3    H249916   2.731   5.787  12.343 -0.4072 -0.4233 -1.2111
 9501TIP3   OH249917   5.508   0.579   2.026  0.3149 -0.1945  0.2503
 9501TIP3    H149918   5.588   0.582   1.973 -0.3998 -2.8486 -1.1430
 9501TIP3    H249919   5.437   0.595   1.963 -0.3794 -0.0129  1.0608
 9502TIP3   OH249920   1.507   5.078   5.950  0.7501  0.1999 -0.6080
 9502TIP3    H149921   1.505   4.987   5.918 -0.4243  0.3122 -0.8939
 9502TIP3    H249922   1.529   5.070   6.043 -0.4422 -0.4727 -0.3626
 9503TIP3   OH249923   3.093   2.714  11.561 -0.0413 -0.2946  0.2132
 9503TIP3    H149924   3.119   2.623  11.576 -0.6436 -0.1937  2.1142
 9503TIP3    H249925   3.157   2.747  11.499 -0.3359 -2.2533 -1.2572
 9504TIP3   OH249926   0.862   6.007   5.227 -0.4918 -0.4006  0.1933
 9504TIP3    H149927   0.866   5.942   5.297  1.9239 -0.1948  0.3464
 9504TIP3    H249928   0.874   6.091   5.271  2.4965 -0.3664 -0.4808
 9505TIP3   OH249929   0.310   4.402   5.489 -0.3633 -0.3435  0.0484
 9505TIP3    H149930   0.220   4.434   5.482 -1.0419 -1.9580  0.8707
 9505TIP3    H249931   0.354   4.467   5.544 -0.9911  0.5212 -0.4502
 9506TIP3   OH249932   5.059   4.770  11.778  0.3460  0.0112  0.7254
 9506TIP3    H149933   4.982   4.756  11.833 -0.5788  0.2450 -0.4681
 9506TIP3    H249934   5.129   4.722  11.822 -0.8586 -1.6077  0.9822
 9507TIP3   OH249935   2.852   5.750   2.668 -0.5795  0.0259  0.1791
 9507TIP3    H149936   2.841   5.741   2.762 -1.6747  0.7796  0.1382
 9507TIP3    H249937   2.938   5.712   2.650 -0.2864  0.0299  1.4976
 9508TIP3   OH249938   6.404   6.622   0.246 -0.0762  0.0805 -0.3602
 9508TIP3    H149939   6.421   6.694   0.308 -1.3818  1.1029 -1.1288
 9508TIP3    H249940   6.335   6.656   0.189  0.1404 -1.3531 -1.5243
 9509TIP3   OH249941   5.298   4.429  16.750  0.5531 -0.2187  0.1367
 9509TIP3    H149942   5.250   4.483  16.688  0.0185  1.2204  1.7393
 9509TIP3    H249943   5.271   4.460  16.836  2.7017 -0.8409  1.1241
 9510TIP3   OH249944   2.289   5.158   3.798 -0.0180 -0.5031  0.1731
 9510TIP3    H149945   2.265   5.069   3.823  0.2771 -0.8220 -0.6563
 9510TIP3    H249946   2.220   5.185   3.738 -0.6772  0.2296  1.2139
 9511TIP3   OH249947   3.831   2.000  14.110  0.3553  0.3823 -0.5829
 9511TIP3    H149948   3.896   2.015  14.178 -1.9263 -0.8054  2.0321
 9511TIP3    H249949   3.804   2.087  14.082 -1.2509  1.1240  2.7924
 9512TIP3   OH249950   2.979   2.107   2.358  0.4596  0.1385  0.0069
 9512TIP3    H149951   2.982   2.038   2.424 -0.8630 -0.3453 -0.4034
 9512TIP3    H249952   3.069   2.139   2.352  0.7764 -0.4266  1.3790
 9513TIP3   OH249953   5.736   0.879  12.438 -1.0307 -0.0643 -0.1356
 9513TIP3    H149954   5.723   0.960  12.488  0.4929 -0.2089  0.5689
 9513TIP3    H249955   5.671   0.818  12.475 -2.9315  1.0872 -1.4053
 9514TIP3   OH249956   5.931   4.896   5.370  0.1955 -0.0142  0.0157
 9514TIP3    H149957   6.000   4.851   5.320 -0.7538 -1.1359 -0.3419
 9514TIP3    H249958   5.904   4.832   5.436 -0.3593  0.4882  0.2797
 9515TIP3   OH249959   5.050   2.615   2.289 -0.1714  0.3470 -0.5757
 9515TIP3    H149960   4.987   2.548   2.261  0.7436  0.0347 -2.0196
 9515TIP3    H249961   5.055   2.675   2.215 -2.1956  3.0520  1.2845
 9516TIP3   OH249962   6.265   3.620  12.969 -0.5688 -0.1422  0.3630
 9516TIP3    H149963   6.214   3.552  13.014 -1.8896  0.2160 -0.5113
 9516TIP3    H249964   6.332   3.646  13.032 -2.4123  0.4230  2.2086
 9517TIP3   OH249965   1.246   2.547   6.210  0.2559  0.0989  0.7086
 9517TIP3    H149966   1.302   2.567   6.136  0.8716 -2.1797  0.4963
 9517TIP3    H249967   1.305   2.544   6.285  0.1584 -0.6375  0.7637
 9518TIP3   OH249968   6.725   3.987  11.607  0.5164  0.5198 -0.0440
 9518TIP3    H149969   6.808   3.940  11.609 -0.1049 -0.6119  0.0065
 9518TIP3    H249970   6.750   4.078  11.595  1.7817  0.2609  0.4417
 9519TIP3   OH249971   1.395   5.647   3.045  0.0836  0.3455  0.7640
 9519TIP3    H149972   1.384   5.562   3.087 -0.0228  0.9446  1.9761
 9519TIP3    H249973   1.417   5.707   3.116  3.1411  0.8089 -0.4071
 9520TIP3   OH249974   4.232   5.166   1.429 -0.0589  0.2121 -0.2730
 9520TIP3    H149975   4.299   5.109   1.390  1.1004 -0.3677  2.3164
 9520TIP3    H249976   4.266   5.255   1.418 -0.2445  0.1509 -1.4033
 9521TIP3   OH249977   0.384   2.762   2.040 -0.9138  0.0641 -0.1890
 9521TIP3    H149978   0.470   2.785   2.004 -0.7076 -2.2890 -1.4091
 9521TIP3    H249979   0.321   2.796   1.976 -0.7702 -0.0357 -0.3852
 9522TIP3   OH249980   0.286   4.153   0.306  0.6597 -0.3648 -0.2027
 9522TIP3    H149981   0.328   4.234   0.277  2.2222 -0.6617  1.0758
 9522TIP3    H249982   0.206   4.182   0.350 -0.2174  0.2602 -2.0946
 9523TIP3   OH249983   5.112   2.164   4.374  0.1982 -0.0908  0.9797
 9523TIP3    H149984   5.064   2.109   4.312  0.5343 -0.4635  1.0493
 9523TIP3    H249985   5.179   2.106   4.410  1.7489  0.8363 -0.2765
 9524TIP3   OH249986   3.916   1.160  12.434 -0.0562  0.2847 -0.4057
 9524TIP3    H149987   3.876   1.081  12.397  0.4451  0.4196 -1.2773
 9524TIP3    H249988   4.010   1.143  12.428  0.1054 -0.4836  2.5846
 9525TIP3   OH249989   5.386   1.293  16.020  0.0584 -0.3155 -0.0345
 9525TIP3    H149990   5.421   1.376  15.988  1.1871  0.1540  2.2215
 9525TIP3    H249991   5.299   1.315  16.055  0.0907 -0.2208 -0.0137
 9526TIP3   OH249992   3.943   1.615  12.210 -0.0118 -0.2569  0.6434
 9526TIP3    H149993   3.889   1.553  12.161 -2.3900  2.4905 -0.5372
 9526TIP3    H249994   3.963   1.569  12.292 -2.1795 -2.3384  0.1372
 9527TIP3   OH249995   0.815   5.612   3.294 -0.3653 -0.1661  0.0667
 9527TIP3    H149996   0.822   5.618   3.199 -0.1179  0.0536  0.0976
 9527TIP3    H249997   0.758   5.537   3.309 -1.3685  0.5153 -0.2756
 9528TIP3   OH249998   1.141   2.288  12.747 -0.7077 -0.7157  0.7236
 9528TIP3    H149999   1.118   2.216  12.689 -2.0973 -0.2758  0.6918
 9528TIP3    H250000   1.061   2.340  12.754  0.3240  0.9945  0.5024
 9529TIP3   OH250001   3.494   1.834   5.474  0.1517  0.0590 -0.0112
 9529TIP3    H150002   3.442   1.781   5.414 -0.2452 -0.2387  0.5823
 9529TIP3    H250003   3.573   1.855   5.425 -0.4068  0.2978 -0.8404
 9530TIP3   OH250004   2.296   4.346  11.958  0.2649 -0.6602  0.1922
 9530TIP3    H150005   2.245   4.266  11.967  0.9437 -1.0685  0.5519
 9530TIP3    H250006   2.325   4.346  11.867 -0.6714 -0.2333 -0.1150
 9531TIP3   OH250007   2.317   6.418  13.454 -0.3093 -0.2956  0.0676
 9531TIP3    H150008   2.259   6.487  13.485 -0.9973 -1.0744  0.5468
 9531TIP3    H250009   2.402   6.439  13.492 -0.6249  0.0185  0.6028
 9532TIP3   OH250010   3.643   4.906   2.680  0.0782 -0.1039  0.3427
 9532TIP3    H150011   3.648   4.832   2.619  2.6149  1.3144 -1.3613
 9532TIP3    H250012   3.700   4.882   2.752  0.4312 -0.0745  0.0764
 9533TIP3   OH250013   3.328   3.757  13.531  0.1008  0.0295 -0.0131
 9533TIP3    H150014   3.242   3.794  13.509  0.2586 -0.3530 -1.3528
 9533TIP3    H250015   3.336   3.681  13.473  1.7328  0.5936 -0.5801
 9534TIP3   OH250016   2.019   5.127   5.034 -0.3053  0.0397  0.1239
 9534TIP3    H150017   1.933   5.097   5.062  0.3104 -0.0095  2.1159
 9534TIP3    H250018   2.042   5.196   5.096 -0.2425  2.4145 -2.3164
 9535TIP3   OH250019   6.311   2.217   1.487  0.1629  0.2689 -0.1241
 9535TIP3    H150020   6.222   2.213   1.452  0.2313  0.5210 -0.3264
 9535TIP3    H250021   6.318   2.304   1.525  0.2322  0.1485  0.1453
 9536TIP3   OH250022   5.722   5.322  13.915  0.2709  0.2309  0.0979
 9536TIP3    H150023   5.791   5.258  13.894  0.2519  0.8562 -2.1462
 9536TIP3    H250024   5.713   5.317  14.010 -0.2597 -3.6576  0.0167
 9537TIP3   OH250025   1.533   4.570  16.524 -0.1388 -0.4314 -0.6460
 9537TIP3    H150026   1.606   4.591  16.466 -0.4776 -0.9667 -1.2810
 9537TIP3    H250027   1.558   4.607  16.609 -0.7100  2.5404 -1.6419
 9538TIP3   OH250028   6.310   5.607   4.629 -0.1383  0.6006 -0.3432
 9538TIP3    H150029   6.237   5.593   4.689  1.2124  0.9556  1.4652
 9538TIP3    H250030   6.312   5.529   4.574 -0.3229 -0.6029  1.3042
 9539TIP3   OH250031   1.058   1.009  16.528 -0.1654  0.4662 -0.2360
 9539TIP3    H150032   0.972   1.007  16.570  0.7445 -2.9152  1.7995
 9539TIP3    H250033   1.042   0.981  16.438 -1.2999  1.1147 -0.2581
 9540TIP3   OH250034   0.484   0.610  13.518  0.6062 -0.4552  0.5298
 9540TIP3    H150035   0.390   0.593  13.523  0.4431 -0.2128 -1.1994
 9540TIP3    H250036   0.502   0.665  13.594 -1.0234  1.0882 -0.1183
 9541TIP3   OH250037   4.534   0.111  11.267  0.4088 -0.1532  0.8743
 9541TIP3    H150038   4.525   0.016  11.276 -0.3171  0.0264  2.2851
 9541TIP3    H250039   4.605   0.135  11.326  0.3038  0.2326  0.8516
 9542TIP3   OH250040   1.768   4.740   2.293  0.6803  0.1087 -0.3727
 9542TIP3    H150041   1.798   4.750   2.383 -0.6012  2.7492 -0.1375
 9542TIP3    H250042   1.672   4.744   2.299  0.4135 -2.2885 -1.6579
 9543TIP3   OH250043   5.376   1.742   5.668 -0.0108 -0.0606  0.4065
 9543TIP3    H150044   5.386   1.733   5.573  0.6462  3.2227  0.0633
 9543TIP3    H250045   5.285   1.767   5.680  0.0893  0.2195  0.5798
 9544TIP3   OH250046   0.184   3.191   2.853 -0.1691 -0.4241  0.4497
 9544TIP3    H150047   0.094   3.217   2.838  0.4405  1.3851 -0.3344
 9544TIP3    H250048   0.200   3.123   2.787  0.0491  1.7573 -1.8715
 9545TIP3   OH250049   6.227   0.829  13.700  0.8226  0.0537  0.3895
 9545TIP3    H150050   6.274   0.888  13.759  0.6181  0.0851  0.5241
 9545TIP3    H250051   6.287   0.815  13.626  0.9079  0.3567  0.4017
 9546TIP3   OH250052   3.671   0.141  11.913  0.2611  0.3913  0.5375
 9546TIP3    H150053   3.688   0.197  11.836  1.4821 -0.2859  0.2831
 9546TIP3    H250054   3.576   0.136  11.918  0.1312 -0.0653 -1.3416
 9547TIP3   OH250055   0.335   0.710  15.709 -0.3182 -0.5246 -1.0912
 9547TIP3    H150056   0.414   0.658  15.719  0.1308  0.3681  0.1363
 9547TIP3    H250057   0.298   0.681  15.625  0.4873 -2.0246 -0.9545
 9548TIP3   OH250058   0.028   0.908   5.810 -0.3366 -0.2064 -0.5327
 9548TIP3    H150059   0.026   0.831   5.866 -0.9634 -0.4032 -0.8155
 9548TIP3    H250060   0.003   0.981   5.867 -2.0664 -0.5676 -0.7849
 9549TIP3   OH250061   1.796   5.263   5.598 -0.3338  0.0234 -0.0313
 9549TIP3    H150062   1.867   5.232   5.541 -0.3166 -0.4331  0.2358
 9549TIP3    H250063   1.839   5.321   5.661  0.0605 -1.4557  1.0923
 9550TIP3   OH250064   1.246   5.862  11.296  0.1324 -0.6959  0.0384
 9550TIP3    H150065   1.245   5.957  11.284  0.4618 -0.7168 -0.1720
 9550TIP3    H250066   1.154   5.836  11.287  0.2443 -0.6241 -1.8378
 9551TIP3   OH250067   1.832   6.558   6.370  0.1018 -0.4534 -0.7360
 9551TIP3    H150068   1.819   6.463   6.363 -2.6225 -0.1540 -1.1918
 9551TIP3    H250069   1.879   6.570   6.452 -0.6978 -2.1497  0.0298
 9552TIP3   OH250070   1.622   1.762   0.192  0.4702 -0.4042  0.2846
 9552TIP3    H150071   1.705   1.745   0.146  0.0779 -0.0198 -0.5793
 9552TIP3    H250072   1.556   1.718   0.138 -0.2701  1.8080 -0.7283
 9553TIP3   OH250073   0.135   3.788  11.562 -0.2200 -0.8519 -0.3231
 9553TIP3    H150074   0.102   3.785  11.472  2.3860 -1.8909 -1.3411
 9553TIP3    H250075   0.161   3.698  11.581  0.3888 -0.4174  1.0236
 9554TIP3   OH250076   6.179   4.874  14.171  0.6326 -0.5949  0.1238
 9554TIP3    H150077   6.249   4.933  14.196  0.3668 -0.1279 -0.2258
 9554TIP3    H250078   6.140   4.913  14.093  0.1089 -0.9461  0.1975
 9555TIP3   OH250079   2.535   2.855  14.602 -0.0118 -0.2328  0.4990
 9555TIP3    H150080   2.453   2.865  14.652  0.7786  1.2303  1.5932
 9555TIP3    H250081   2.567   2.945  14.591  1.1216 -0.7382 -0.4754
 9556TIP3   OH250082   3.698   2.228  15.811  0.2886 -0.2019  0.1990
 9556TIP3    H150083   3.604   2.213  15.800  0.0009  1.0507  0.8497
 9556TIP3    H250084   3.720   2.181  15.892  0.3236 -0.8459 -0.1751
 9557TIP3   OH250085   0.341   1.616   2.212  0.4184  0.4383 -0.0824
 9557TIP3    H150086   0.284   1.639   2.138  0.3567  0.0348 -0.1625
 9557TIP3    H250087   0.291   1.644   2.289 -1.0932 -2.1771  0.0276
 9558TIP3   OH250088   5.713   6.225  14.909 -0.4956 -0.3785  0.0458
 9558TIP3    H150089   5.657   6.232  14.831  0.5046  0.0613 -0.6571
 9558TIP3    H250090   5.700   6.136  14.940  0.4798 -1.1909 -1.7232
 9559TIP3   OH250091   2.968   2.575  11.857 -0.1203 -0.5363 -0.0023
 9559TIP3    H150092   2.906   2.592  11.786  0.1132  2.9280  0.4620
 9559TIP3    H250093   3.046   2.625  11.833  1.5627 -2.6300  0.7497
 9560TIP3   OH250094   1.162   5.995  14.396 -0.4398 -0.5059 -0.0911
 9560TIP3    H150095   1.092   5.933  14.374  0.0807 -0.9578 -0.5278
 9560TIP3    H250096   1.227   5.942  14.441  0.0787 -0.3110 -0.5992
 9561TIP3   OH250097   4.261   3.109   3.691  0.8800  0.5030 -0.4729
 9561TIP3    H150098   4.197   3.174   3.720 -0.4685 -2.1117  3.1729
 9561TIP3    H250099   4.221   3.025   3.711  3.8846 -1.4234 -1.8168
 9562TIP3   OH250100   1.812   3.824  11.967 -0.4280 -0.0738 -0.4397
 9562TIP3    H150101   1.791   3.917  11.980 -0.2439 -0.3266  2.1036
 9562TIP3    H250102   1.750   3.777  12.023  0.7971 -1.3552 -0.0964
 9563TIP3   OH250103   6.365   0.646   3.680  0.1692  0.4326 -0.2385
 9563TIP3    H150104   6.351   0.684   3.593  2.9519  0.4076 -0.8171
 9563TIP3    H250105   6.354   0.719   3.740  0.3866  0.9857 -0.8534
 9564TIP3   OH250106   0.910   5.843  13.831 -0.3384 -0.1751 -0.7476
 9564TIP3    H150107   0.891   5.814  13.920  1.3317 -0.5271 -0.4631
 9564TIP3    H250108   0.923   5.762  13.782 -0.1810  0.0259 -1.0367
 9565TIP3   OH250109   1.514   1.056   4.592  0.1280  0.2638 -0.3354
 9565TIP3    H150110   1.468   0.973   4.576 -1.7878  1.0688  0.8144
 9565TIP3    H250111   1.497   1.108   4.513  0.0181  0.1614 -0.3793
 9566TIP3   OH250112   6.522   0.291  11.782 -0.0444  0.3968 -0.4726
 9566TIP3    H150113   6.597   0.289  11.722  0.3088  0.9960 -0.0570
 9566TIP3    H250114   6.490   0.201  11.783  1.2121 -0.0652  0.0137
 9567TIP3   OH250115   2.561   3.702  14.618  1.0353 -0.5979 -0.1577
 9567TIP3    H150116   2.479   3.708  14.569  0.2127 -1.2690  1.0774
 9567TIP3    H250117   2.617   3.645  14.565  0.1785 -1.2815 -0.3620
 9568TIP3   OH250118   6.402   2.093   3.825  0.6934 -0.1894  0.5294
 9568TIP3    H150119   6.368   2.176   3.791 -0.0346 -1.3900 -1.9442
 9568TIP3    H250120   6.329   2.056   3.874  0.1467 -0.4662 -0.4710
 9569TIP3   OH250121   5.108   4.170  11.920  0.3107 -0.2357  0.0319
 9569TIP3    H150122   5.027   4.123  11.942  1.5123 -2.4023  0.0777
 9569TIP3    H250123   5.159   4.108  11.868  1.7426  1.2615 -0.4340
 9570TIP3   OH250124   1.920   4.742   5.313 -0.2944 -0.0190  0.4544
 9570TIP3    H150125   1.946   4.672   5.252 -0.0776 -0.0185  0.5444
 9570TIP3    H250126   2.002   4.786   5.335 -0.2313 -0.6203  1.4926
 9571TIP3   OH250127   3.666   1.997  16.676 -0.0901 -0.1521  0.0161
 9571TIP3    H150128   3.731   1.928  16.669 -0.5692 -0.8776  1.9282
 9571TIP3    H250129   3.628   1.985  16.763  0.8086  3.4107  1.0790
 9572TIP3   OH250130   0.504   0.338   2.405 -0.0237  0.2487  0.2143
 9572TIP3    H150131   0.570   0.365   2.470  0.2390 -0.3184  0.1902
 9572TIP3    H250132   0.537   0.373   2.322  0.1525  0.1315  0.2334
 9573TIP3   OH250133   1.468   4.941  16.868  0.1904  0.5492 -0.0101
 9573TIP3    H150134   1.440   4.954  16.959 -1.7098  1.1040 -0.6251
 9573TIP3    H250135   1.391   4.964  16.816  0.8458 -0.9034 -1.7249
 9574TIP3   OH250136   0.901   3.976  15.437  0.6026 -0.1789  0.5443
 9574TIP3    H150137   0.906   4.051  15.377  0.7144  0.0002  0.7740
 9574TIP3    H250138   0.962   3.912  15.400  0.7058 -0.0508  0.4909
 9575TIP3   OH250139   6.001   1.555   5.164 -0.2943  0.4965 -0.3396
 9575TIP3    H150140   6.087   1.515   5.169 -0.9814 -0.9636  0.6205
 9575TIP3    H250141   5.988   1.596   5.249 -0.0408  1.8928 -0.9409
 9576TIP3   OH250142   2.187   2.181   4.290 -0.3988  0.0857  0.4856
 9576TIP3    H150143   2.247   2.147   4.224  0.1282  0.8964  0.5333
 9576TIP3    H250144   2.211   2.135   4.370 -1.1232 -0.9939  0.1108
 9577TIP3   OH250145   3.455   3.588   5.972  0.1587  0.8865 -0.2210
 9577TIP3    H150146   3.501   3.672   5.978  0.8091  0.4731  0.9071
 9577TIP3    H250147   3.459   3.553   6.061 -0.7668  0.0010 -0.5170
 9578TIP3   OH250148   5.277   3.629   0.352 -0.1371  0.2766 -0.3133
 9578TIP3    H150149   5.329   3.683   0.293 -0.8347  1.3692  0.0348
 9578TIP3    H250150   5.271   3.680   0.433 -0.0071 -0.7655  0.3780
 9579TIP3   OH250151   5.402   2.441   2.024  0.1468 -0.0435  0.0533
 9579TIP3    H150152   5.309   2.429   2.040  0.2214 -0.6102  0.0652
 9579TIP3    H250153   5.420   2.531   2.054 -0.1221 -0.3839  1.3025
 9580TIP3   OH250154   0.549   2.717  11.539 -0.3736  0.4823 -0.1775
 9580TIP3    H150155   0.629   2.713  11.591 -0.0075 -0.0461 -0.7629
 9580TIP3    H250156   0.540   2.809  11.515 -0.2365  0.6339  0.3356
 9581TIP3   OH250157   2.157   6.458   2.065 -0.4794  0.0523 -0.8734
 9581TIP3    H150158   2.072   6.454   2.021 -0.0425 -1.4742 -1.6548
 9581TIP3    H250159   2.219   6.423   2.002  0.4566 -0.5040  0.2999
 9582TIP3   OH250160   3.872   2.574  16.445  0.1154  0.4189 -0.2296
 9582TIP3    H150161   3.944   2.554  16.504  0.9009 -0.7750 -1.5164
 9582TIP3    H250162   3.845   2.663  16.468 -0.7014 -0.5445  2.9648
 9583TIP3   OH250163   6.051   2.737   4.244  0.7866 -1.2951 -0.3409
 9583TIP3    H150164   6.028   2.697   4.160 -1.3893 -0.7367 -0.0768
 9583TIP3    H250165   5.985   2.703   4.305  0.8493  0.1989  0.5939
 9584TIP3   OH250166   4.481   3.862   0.551  0.6148 -0.8175 -0.5799
 9584TIP3    H150167   4.562   3.876   0.501  1.0055 -0.7063  0.0738
 9584TIP3    H250168   4.457   3.949   0.582  0.9858 -1.0214  0.3382
 9585TIP3   OH250169   0.883   5.107  16.589 -0.7351  0.0155  0.9531
 9585TIP3    H150170   0.931   5.129  16.669 -1.8033  0.4718  1.4887
 9585TIP3    H250171   0.949   5.110  16.520  0.2421 -0.5747  1.8374
 9586TIP3   OH250172   4.744   3.052  11.624 -0.1162 -0.0954 -0.0857
 9586TIP3    H150173   4.747   2.965  11.666 -0.6944 -0.1181 -0.0891
 9586TIP3    H250174   4.731   3.113  11.697 -1.1796 -0.1394 -0.2220
 9587TIP3   OH250175   2.855   2.789  10.911  0.2697  0.1836  0.3694
 9587TIP3    H150176   2.907   2.850  10.859  0.3474  0.0414  0.2794
 9587TIP3    H250177   2.779   2.769  10.856  0.2965  0.1192  0.3551
 9588TIP3   OH250178   4.346   0.867  15.422 -0.3097 -0.5921 -0.8638
 9588TIP3    H150179   4.388   0.812  15.488 -0.3363  0.0628 -0.2878
 9588TIP3    H250180   4.384   0.838  15.339 -1.8294 -2.9099 -0.8591
 9589TIP3   OH250181   4.990   6.708  16.943 -0.3149 -0.1170  0.0154
 9589TIP3    H150182   4.895   6.720  16.945 -0.4027 -0.8145  0.5435
 9589TIP3    H250183   5.021   6.740  17.027 -0.2550 -1.1454  0.3992
 9590TIP3   OH250184   0.711   0.386   3.316 -0.2336 -0.0723 -0.0936
 9590TIP3    H150185   0.759   0.410   3.396  2.6976  0.2268 -1.8005
 9590TIP3    H250186   0.641   0.328   3.346  0.9021 -0.1592  2.6516
 9591TIP3   OH250187   5.824   4.398   6.175  0.2642  0.0302 -0.1237
 9591TIP3    H150188   5.771   4.421   6.252 -0.2898 -1.8986  0.1134
 9591TIP3    H250189   5.880   4.474   6.161 -0.6276  0.9989  1.3174
 9592TIP3   OH250190   2.597   2.588  12.949 -0.2756  0.2019  0.5659
 9592TIP3    H150191   2.502   2.593  12.946 -0.2873  0.5472  1.4069
 9592TIP3    H250192   2.617   2.535  13.026  0.1968 -0.6508 -0.1276
 9593TIP3   OH250193   0.442   6.749   2.182 -0.0243  0.2038  0.3199
 9593TIP3    H150194   0.496   6.727   2.257  0.5083  1.1732  0.2403
 9593TIP3    H250195   0.432   6.844   2.186  0.1012  0.2907 -0.8786
 9594TIP3   OH250196   4.985   0.968  11.650 -0.4049 -0.1011 -0.1203
 9594TIP3    H150197   4.921   0.919  11.702 -1.1468 -0.5599 -1.4169
 9594TIP3    H250198   4.933   1.010  11.581  0.5477  0.5174 -0.4875
 9595TIP3   OH250199   4.240   0.760   3.511  0.3514 -0.4238  0.2360
 9595TIP3    H150200   4.225   0.702   3.586  1.8215  0.4080  1.2277
 9595TIP3    H250201   4.325   0.732   3.476  0.6408  0.5257  0.1608
 9596TIP3   OH250202   4.637   0.324   0.220  0.6012  0.7634 -0.3377
 9596TIP3    H150203   4.631   0.337   0.125  1.8485 -0.4672 -0.6141
 9596TIP3    H250204   4.551   0.350   0.253 -1.3011 -2.3552 -2.2612
 9597TIP3   OH250205   3.410   1.976  10.790  0.2748  0.0046 -0.0565
 9597TIP3    H150206   3.375   2.059  10.822  0.0251 -0.2673  0.4020
 9597TIP3    H250207   3.473   2.000  10.723  1.3897  0.6502  1.1751
 9598TIP3   OH250208   2.083   5.205   0.397 -0.3019 -0.2193 -0.0587
 9598TIP3    H150209   2.056   5.288   0.358 -1.1271  0.1561  1.2335
 9598TIP3    H250210   2.164   5.226   0.445 -1.2406  0.2066  1.4104
 9599TIP3   OH250211   1.479   5.211  13.209  0.8651  0.1631  0.5259
 9599TIP3    H150212   1.467   5.124  13.171  2.3305 -0.1731  0.7864
 9599TIP3    H250213   1.479   5.197  13.303  0.5967  0.5231  0.5814
 9600TIP3   OH250214   2.017   2.020  12.980  0.0713 -0.1706 -0.2712
 9600TIP3    H150215   1.935   1.978  13.006  0.3722 -1.3930 -1.2021
 9600TIP3    H250216   2.026   1.999  12.887  1.5844 -0.3058 -0.1146
 9601TIP3   OH250217   5.436   3.544   5.242 -0.2200 -0.1084  0.0236
 9601TIP3    H150218   5.417   3.636   5.257 -0.9446 -0.6192  2.8751
 9601TIP3    H250219   5.352   3.506   5.217 -0.4859 -0.3759  1.2578
 9602TIP3   OH250220   3.374   6.238   2.366  0.0066 -0.1293  0.1335
 9602TIP3    H150221   3.360   6.220   2.459  0.0977  1.8002  0.5539
 9602TIP3    H250222   3.461   6.277   2.362 -0.0441 -0.0835 -0.7591
 9603TIP3   OH250223   0.793   2.999   3.412 -0.3876 -0.0599  0.7237
 9603TIP3    H150224   0.855   3.020   3.342 -0.0241  0.4513  1.1904
 9603TIP3    H250225   0.720   3.059   3.399 -0.1091  0.3536  1.0572
 9604TIP3   OH250226   4.974   0.846   4.830 -0.0289 -0.2709  0.1175
 9604TIP3    H150227   4.993   0.928   4.876  0.5398 -0.2210 -0.1984
 9604TIP3    H250228   5.058   0.800   4.827 -0.4813 -1.1993  0.9242
 9605TIP3   OH250229   4.760   0.665   2.737  0.4513 -0.0991  0.3419
 9605TIP3    H150230   4.724   0.689   2.652 -1.2766  0.1346  1.1048
 9605TIP3    H250231   4.826   0.732   2.756 -0.7732  1.1763  0.1974
 9606TIP3   OH250232   1.890   3.422   1.034  0.1595 -0.0618 -0.4155
 9606TIP3    H150233   1.866   3.330   1.047 -0.9376  0.4628  1.5896
 9606TIP3    H250234   1.823   3.471   1.082  1.4263  1.7472 -0.4285
 9607TIP3   OH250235   4.826   1.161   4.952  0.5334 -0.2846  0.6837
 9607TIP3    H150236   4.763   1.092   4.930 -0.4386  1.0474 -1.0306
 9607TIP3    H250237   4.839   1.153   5.046 -1.8018 -0.9825  1.0086
 9608TIP3   OH250238   5.406   0.162   5.091  0.2593 -0.7441  0.2249
 9608TIP3    H150239   5.501   0.171   5.103  0.1605  0.0570  0.4466
 9608TIP3    H250240   5.397   0.124   5.003  0.7708  0.2760 -0.2964
 9609TIP3   OH250241   5.198   1.927  14.308 -0.9089 -0.2843  0.1974
 9609TIP3    H150242   5.242   1.843  14.322  1.4103  0.8510  0.1342
 9609TIP3    H250243   5.199   1.940  14.214 -0.9294 -0.0031  0.2354
 9610TIP3   OH250244   2.289   3.392   6.246 -0.5258 -0.4810 -0.3031
 9610TIP3    H150245   2.339   3.346   6.179 -1.9217 -1.4136 -0.7695
 9610TIP3    H250246   2.321   3.356   6.329 -0.7461 -1.4459 -0.6150
 9611TIP3   OH250247   6.005   0.620  11.419 -0.3276 -0.5570  0.0494
 9611TIP3    H150248   5.933   0.566  11.387  0.0832 -1.6859  0.9533
 9611TIP3    H250249   6.082   0.563  11.417  0.4634  0.4782 -0.4330
 9612TIP3   OH250250   1.135   6.455   4.444  0.1373  0.0629  0.3632
 9612TIP3    H150251   1.159   6.547   4.448  0.8785 -0.0609 -0.7978
 9612TIP3    H250252   1.208   6.413   4.399 -1.0608 -0.7754 -0.8830
 9613TIP3   OH250253   4.067   2.240   2.329  0.0549  0.0714  0.7146
 9613TIP3    H150254   3.999   2.174   2.341  0.1081 -0.4862 -1.6131
 9613TIP3    H250255   4.093   2.263   2.418 -2.5713 -0.2826  1.6809
 9614TIP3   OH250256   3.805   2.800   1.678 -0.0927  0.5078 -0.1896
 9614TIP3    H150257   3.718   2.822   1.711  0.4007  3.6359 -0.6569
 9614TIP3    H250258   3.860   2.796   1.756 -0.3725  0.0394 -0.0153
 9615TIP3   OH250259   6.737   1.166  15.794  0.2384 -0.1513  0.0438
 9615TIP3    H150260   6.736   1.085  15.743  0.3180  0.4104 -0.8615
 9615TIP3    H250261   6.692   1.230  15.739  1.6080  0.8465  0.0325
 9616TIP3   OH250262   6.041   0.532   3.299  0.3190  0.1545  0.0581
 9616TIP3    H150263   5.959   0.493   3.268 -0.3940  2.5000 -1.1676
 9616TIP3    H250264   6.105   0.510   3.232  0.4342 -0.6366  0.4130
 9617TIP3   OH250265   0.128   3.588  12.415  0.6162 -0.3824 -0.9649
 9617TIP3    H150266   0.114   3.677  12.381  0.8229  0.7001  1.5971
 9617TIP3    H250267   0.192   3.600  12.486 -3.5633 -1.5452  3.4956
 9618TIP3   OH250268   4.200   0.547   1.086 -0.0273 -0.5632  0.4992
 9618TIP3    H150269   4.246   0.630   1.073 -0.3774 -0.4994 -0.4593
 9618TIP3    H250270   4.182   0.543   1.180  0.2195  0.3234  0.5923
 9619TIP3   OH250271   4.663   5.708  15.078  0.1529  0.1614 -0.0597
 9619TIP3    H150272   4.622   5.634  15.034  0.4366  0.1412 -0.2903
 9619TIP3    H250273   4.630   5.703  15.168  0.0743 -0.1685 -0.1060
 9620TIP3   OH250274   4.673   6.014  10.767 -0.1689  0.1448 -0.3911
 9620TIP3    H150275   4.649   5.980  10.853 -1.4233  1.0783 -0.3319
 9620TIP3    H250276   4.678   6.109  10.780  1.9171  0.1275 -0.8410
 9621TIP3   OH250277   2.134   3.252   5.073 -0.3516  0.1282  0.3580
 9621TIP3    H150278   2.150   3.193   5.147 -0.2179 -0.4767 -0.1461
 9621TIP3    H250279   2.040   3.248   5.059 -0.3214 -0.1058  0.2137
 9622TIP3   OH250280   4.919   3.803   4.830 -0.7248 -0.4088 -0.0393
 9622TIP3    H150281   4.846   3.841   4.782 -0.8999  1.0904  1.3005
 9622TIP3    H250282   4.886   3.794   4.920  0.8787  0.8820  0.7306
 9623TIP3   OH250283   4.333   2.111   0.420  0.2234 -0.4835  0.4947
 9623TIP3    H150284   4.281   2.076   0.347 -0.2998 -1.1639  1.1820
 9623TIP3    H250285   4.394   2.040   0.442  0.0099 -0.4881  1.0734
 9624TIP3   OH250286   0.772   3.347  16.411  0.3491  0.0105 -0.3793
 9624TIP3    H150287   0.831   3.422  16.399  2.7203 -1.5384  0.8671
 9624TIP3    H250288   0.731   3.361  16.496 -0.2590  0.5217 -0.7443
 9625TIP3   OH250289   5.839   4.350   3.672 -0.0683  0.3153 -1.0721
 9625TIP3    H150290   5.917   4.337   3.725 -0.5409  0.1569 -0.3987
 9625TIP3    H250291   5.767   4.323   3.729 -0.7348  1.8588 -1.1501
 9626TIP3   OH250292   5.694   6.764  12.062 -0.5929 -0.3853 -0.3298
 9626TIP3    H150293   5.666   6.847  12.024  1.9146  0.8795  0.4086
 9626TIP3    H250294   5.661   6.766  12.151 -0.2429  0.0029 -0.2044
 9627TIP3   OH250295   0.672   6.131  12.921  0.0755 -0.7287  0.0803
 9627TIP3    H150296   0.642   6.222  12.914 -0.8277 -0.9055  1.3939
 9627TIP3    H250297   0.606   6.080  12.875  0.2494 -0.7933 -0.1025
 9628TIP3   OH250298   2.377   1.547  12.810  0.7697  0.8955  0.6937
 9628TIP3    H150299   2.407   1.629  12.773  1.4507  1.0940  1.6389
 9628TIP3    H250300   2.289   1.535  12.776  1.0346  1.5147 -0.2295
 9629TIP3   OH250301   4.743   0.328   5.709 -0.1435 -0.4622 -0.1047
 9629TIP3    H150302   4.724   0.421   5.710 -1.3321 -0.6882 -0.4170
 9629TIP3    H250303   4.727   0.300   5.799 -2.0127 -0.7627 -0.4880
 9630TIP3   OH250304   6.549   1.417   0.966  0.1234 -0.3933  0.0776
 9630TIP3    H150305   6.456   1.419   0.990 -0.3854  0.3163 -1.7768
 9630TIP3    H250306   6.562   1.496   0.913  1.7940 -0.5088  0.2514
 9631TIP3   OH250307   3.338   3.062  14.343  0.4440 -0.0727 -0.2929
 9631TIP3    H150308   3.317   3.050  14.435 -1.5708 -0.3336 -0.7268
 9631TIP3    H250309   3.421   3.109  14.342 -0.1306  1.0667  1.6609
 9632TIP3   OH250310   0.139   5.767  10.717 -0.0460  0.4306 -0.9267
 9632TIP3    H150311   0.066   5.791  10.775  0.8090  0.8305  0.0278
 9632TIP3    H250312   0.148   5.841  10.658  1.1264  1.5305  0.5452
 9633TIP3   OH250313   4.503   4.882   0.598  0.1510  0.3476  0.0401
 9633TIP3    H150314   4.594   4.903   0.620  0.2343 -1.0966  1.2765
 9633TIP3    H250315   4.505   4.859   0.505  0.9897  0.6398 -0.0246
 9634TIP3   OH250316   1.669   1.870  12.068 -0.0792 -0.1230 -0.0074
 9634TIP3    H150317   1.633   1.927  12.000  0.2080 -1.3534 -1.2544
 9634TIP3    H250318   1.613   1.793  12.067  0.2885 -0.4120  0.7545
 9635TIP3   OH250319   0.777   2.169   3.834  0.0354  0.0574 -0.3610
 9635TIP3    H150320   0.811   2.109   3.768  0.1529 -0.8467  0.5017
 9635TIP3    H250321   0.808   2.255   3.806 -0.1278 -0.2718 -1.6142
 9636TIP3   OH250322   4.793   3.023  13.948 -0.0766 -0.7843 -0.2057
 9636TIP3    H150323   4.750   3.103  13.978 -0.3905 -1.3281  0.8565
 9636TIP3    H250324   4.721   2.963  13.928  0.1483 -0.7000 -1.3177
 9637TIP3   OH250325   1.684   2.982  14.462  0.2716  0.3114  0.2010
 9637TIP3    H150326   1.766   2.998  14.509  0.6898  1.1468 -0.7800
 9637TIP3    H250327   1.692   3.032  14.381 -1.8100  1.5934  0.7258
 9638TIP3   OH250328   1.925   5.145  11.872  0.3757  0.2400  0.0587
 9638TIP3    H150329   1.970   5.086  11.812  2.2540  2.9536 -1.4287
 9638TIP3    H250330   1.962   5.231  11.853 -1.8101  1.8589  2.4459
 9639TIP3   OH250331   2.824   2.138  10.711  0.0319  0.6884 -0.4308
 9639TIP3    H150332   2.851   2.103  10.796 -0.8071  0.3087 -0.3154
 9639TIP3    H250333   2.776   2.067  10.669  1.0043  0.6360 -1.5214
 9640TIP3   OH250334   5.969   2.970   5.363 -0.4161  0.3044  0.2074
 9640TIP3    H150335   6.019   3.041   5.402 -0.3947 -0.9642  2.6836
 9640TIP3    H250336   5.882   3.008   5.347 -0.4619  0.8736  1.6617
 9641TIP3   OH250337   3.454   0.152  11.631  0.3095 -0.4556 -0.2651
 9641TIP3    H150338   3.526   0.097  11.662  0.9208  1.3202  1.7188
 9641TIP3    H250339   3.428   0.113  11.547  2.1063 -2.4386  0.0168
 9642TIP3   OH250340   1.340   0.751   5.273 -0.6091  0.5803  0.1193
 9642TIP3    H150341   1.269   0.706   5.316  0.0315  0.0675  0.6617
 9642TIP3    H250342   1.385   0.683   5.223 -1.4286  1.1858 -1.5087
 9643TIP3   OH250343   1.382   6.203  12.645  0.0163  0.9044  0.1986
 9643TIP3    H150344   1.331   6.167  12.572  0.7288  2.0722 -0.9255
 9643TIP3    H250345   1.413   6.126  12.693 -2.2985  0.1602  0.5960
 9644TIP3   OH250346   2.188   4.530  14.975  0.2181 -0.2525 -0.3041
 9644TIP3    H150347   2.184   4.615  14.932 -1.1152 -0.6256 -1.0037
 9644TIP3    H250348   2.106   4.525  15.025  0.2246 -1.1493 -0.3622
 9645TIP3   OH250349   0.576   2.971   4.888 -0.3199 -0.1912 -0.3281
 9645TIP3    H150350   0.509   3.000   4.950 -1.1780 -0.4152 -1.1192
 9645TIP3    H250351   0.656   3.014   4.917 -0.7396 -0.1332  0.8100
 9646TIP3   OH250352   5.347   1.023   4.424  0.5274  0.4318  0.5544
 9646TIP3    H150353   5.346   1.118   4.440 -0.4422  0.8360 -1.5486
 9646TIP3    H250354   5.338   1.015   4.329  1.6843 -1.7762  0.5781
 9647TIP3   OH250355   3.483   4.028   4.566  0.0774  0.1590 -0.2446
 9647TIP3    H150356   3.423   4.057   4.497 -0.8457 -1.4203 -0.1725
 9647TIP3    H250357   3.482   4.099   4.630 -0.5584  0.8157 -0.9623
 9648TIP3   OH250358   2.131   5.618   2.603 -0.6704 -0.2206 -0.2921
 9648TIP3    H150359   2.072   5.545   2.620 -0.5473  0.1847  2.2779
 9648TIP3    H250360   2.218   5.578   2.596 -0.6028 -0.3666  1.1015
 9649TIP3   OH250361   0.703   5.753  16.595  0.4380 -0.2913 -0.6836
 9649TIP3    H150362   0.633   5.690  16.581 -0.3448  0.5125 -0.4745
 9649TIP3    H250363   0.694   5.816  16.523  0.5986  0.1197 -0.3512
 9650TIP3   OH250364   6.343   1.126   6.265  0.0564 -0.0905  0.1782
 9650TIP3    H150365   6.389   1.182   6.204  0.0159  1.2832  1.3508
 9650TIP3    H250366   6.341   1.175   6.347 -0.7174 -1.4544  1.0370
 9651TIP3   OH250367   5.010   5.018   3.004  0.6509 -0.0073 -0.3144
 9651TIP3    H150368   5.092   5.001   3.051  0.8910 -1.8034 -1.2818
 9651TIP3    H250369   4.997   4.940   2.950 -1.3338  0.5578 -0.7342
 9652TIP3   OH250370   4.492   5.356  12.709 -0.3516 -0.0674  1.0558
 9652TIP3    H150371   4.427   5.391  12.647 -1.5842  0.4437  2.5749
 9652TIP3    H250372   4.450   5.278  12.746 -0.9978  1.3135  3.4512
 9653TIP3   OH250373   5.464   1.545   5.877 -0.6397  0.2798 -0.1614
 9653TIP3    H150374   5.378   1.549   5.919 -0.9065 -0.0884 -0.6602
 9653TIP3    H250375   5.447   1.571   5.786 -0.2644 -0.0455 -0.3272
 9654TIP3   OH250376   6.213   0.565  15.802 -0.1889 -0.7329  0.2437
 9654TIP3    H150377   6.166   0.644  15.826  0.8561 -0.1342  0.3820
 9654TIP3    H250378   6.149   0.513  15.753 -1.1664 -0.2368  0.9690
 9655TIP3   OH250379   2.765   1.310   2.322 -0.5079  0.1490 -0.5110
 9655TIP3    H150380   2.822   1.254   2.269 -0.3420  0.3129 -0.5069
 9655TIP3    H250381   2.751   1.260   2.403 -0.9447 -0.2019 -0.7936
 9656TIP3   OH250382   1.316   0.812   6.453 -0.4175 -0.4252  0.2531
 9656TIP3    H150383   1.270   0.883   6.499 -0.4169 -0.1843 -0.1129
 9656TIP3    H250384   1.317   0.740   6.516 -2.2524 -0.8151 -0.1005
 9657TIP3   OH250385   2.830   5.763  13.029  0.4225  0.4191 -0.1305
 9657TIP3    H150386   2.904   5.819  13.054  1.0986 -0.4858 -0.0649
 9657TIP3    H250387   2.822   5.701  13.102 -0.1883  0.3004 -0.2990
 9658TIP3   OH250388   6.488   6.087   5.644  0.1709 -0.1699 -0.1574
 9658TIP3    H150389   6.508   6.024   5.713 -1.2377 -1.6110 -1.0120
 9658TIP3    H250390   6.404   6.058   5.608 -1.5618  3.2894  0.6549
 9659TIP3   OH250391   1.978   2.981  15.911 -0.3501 -0.1215  0.0016
 9659TIP3    H150392   2.034   2.919  15.958  1.3386  0.4456 -1.1557
 9659TIP3    H250393   1.889   2.952  15.930  0.3297 -1.4281  1.4376
 9660TIP3   OH250394   4.756   4.622   4.821 -0.2278  0.0830 -0.2930
 9660TIP3    H150395   4.763   4.708   4.861 -1.2321 -0.4944  1.2284
 9660TIP3    H250396   4.722   4.638   4.733  0.5325  1.2925 -0.3729
 9661TIP3   OH250397   5.883   0.747   5.536 -0.3123 -0.2224  0.4898
 9661TIP3    H150398   5.803   0.697   5.519  0.1993 -0.7646 -0.3805
 9661TIP3    H250399   5.954   0.684   5.525  0.4499  0.9156 -1.9685
 9662TIP3   OH250400   6.101   3.082   1.531 -0.2686 -0.6917 -0.4884
 9662TIP3    H150401   6.106   3.161   1.477 -0.6431  0.9600  1.7777
 9662TIP3    H250402   6.148   3.104   1.611 -0.6481 -2.6806  0.3470
 9663TIP3   OH250403   4.651   3.500   1.195  0.4681  0.6973 -0.5956
 9663TIP3    H150404   4.565   3.538   1.214  0.7805  1.1429 -0.0464
 9663TIP3    H250405   4.655   3.421   1.249  0.7191  1.1050 -0.0151
 9664TIP3   OH250406   3.418   1.209   4.163 -0.2837 -0.0622  0.0918
 9664TIP3    H150407   3.406   1.213   4.258 -1.8862 -1.1383 -0.0302
 9664TIP3    H250408   3.411   1.299   4.133  0.0237  0.2567  0.9619
 9665TIP3   OH250409   1.837   4.002   1.537 -0.7564 -0.0757  0.0736
 9665TIP3    H150410   1.878   3.926   1.495 -0.3546 -1.3770  2.6281
 9665TIP3    H250411   1.784   4.041   1.468  1.1321 -1.0623 -2.0837
 9666TIP3   OH250412   0.394   6.150   3.168  0.0616 -0.1645  0.0032
 9666TIP3    H150413   0.441   6.227   3.133  1.7067 -1.1045  0.0224
 9666TIP3    H250414   0.394   6.087   3.096 -1.8519  0.0531 -0.2242
 9667TIP3   OH250415   6.199   5.220  11.333 -0.4951 -0.2576  0.3049
 9667TIP3    H150416   6.245   5.260  11.259 -0.8836  1.0769  0.7519
 9667TIP3    H250417   6.269   5.183  11.387  0.2937  2.8649  1.6526
 9668TIP3   OH250418   4.446   2.697  12.874 -0.6773  0.3749  0.3751
 9668TIP3    H150419   4.362   2.652  12.859 -1.6333  1.8034  1.2432
 9668TIP3    H250420   4.424   2.790  12.872  0.7947  0.7710  1.1962
 9669TIP3   OH250421   5.465   5.911  15.513  0.0332  0.2275  0.1220
 9669TIP3    H150422   5.395   5.897  15.578 -0.5003 -2.5821 -0.8901
 9669TIP3    H250423   5.527   5.840  15.530  0.9834  0.7441 -1.0833
 9670TIP3   OH250424   0.214   0.453  16.662 -0.0093 -0.1550 -0.4965
 9670TIP3    H150425   0.194   0.363  16.637 -0.5838  0.1689 -1.2722
 9670TIP3    H250426   0.289   0.446  16.720  1.3241 -0.9763 -2.2201
 9671TIP3   OH250427   6.462   3.731  16.629  0.1891 -0.0104 -0.0550
 9671TIP3    H150428   6.383   3.749  16.680  0.4140 -0.8684  0.6178
 9671TIP3    H250429   6.430   3.681  16.553  0.0624 -0.1896  0.1163
 9672TIP3   OH250430   3.875   1.972   1.457 -0.9899  0.4538 -0.3829
 9672TIP3    H150431   3.853   2.021   1.378 -1.3549  0.3559 -0.3416
 9672TIP3    H250432   3.797   1.921   1.476 -0.4772 -0.4482 -0.6508
 9673TIP3   OH250433   2.816   1.509   3.303 -0.3813  0.3813 -0.0569
 9673TIP3    H150434   2.798   1.603   3.303 -0.6955  0.3214 -0.5682
 9673TIP3    H250435   2.887   1.499   3.366 -0.9486  0.8436  0.6723
 9674TIP3   OH250436   2.076   3.486  13.944  0.5346  0.0087  0.6570
 9674TIP3    H150437   2.111   3.406  13.907 -1.2495 -0.2492 -0.5902
 9674TIP3    H250438   2.091   3.478  14.038  0.4561 -1.7447  0.5424
 9675TIP3   OH250439   2.999   2.826   3.299 -1.0142  0.0994 -0.1552
 9675TIP3    H150440   3.015   2.919   3.315 -0.2728 -0.1976  0.9319
 9675TIP3    H250441   3.076   2.797   3.250 -1.4147  0.1299 -0.8107
 9676TIP3   OH250442   3.909   5.300   3.690 -0.0579 -0.0329 -0.2776
 9676TIP3    H150443   3.826   5.311   3.644 -0.4941 -0.9641  0.2487
 9676TIP3    H250444   3.939   5.389   3.706 -0.7403  0.3164 -0.8539
 9677TIP3   OH250445   0.535   1.400   0.563 -0.2672 -0.2141 -0.0322
 9677TIP3    H150446   0.487   1.412   0.481  0.4163  0.7313 -0.3141
 9677TIP3    H250447   0.543   1.488   0.600  1.7058 -0.2472 -0.2751
 9678TIP3   OH250448   3.823   5.212   4.520  0.1839 -0.3565 -0.1360
 9678TIP3    H150449   3.845   5.144   4.456  2.0932 -2.0536  2.1415
 9678TIP3    H250450   3.797   5.287   4.467 -1.0752 -2.5045 -2.8123
 9679TIP3   OH250451   5.499   2.809   2.568 -0.2148  0.6090  0.0590
 9679TIP3    H150452   5.450   2.780   2.491 -0.1373  1.4161 -0.3105
 9679TIP3    H250453   5.514   2.903   2.553  0.5781  0.5868  0.6377
 9680TIP3   OH250454   4.696   4.525  13.271 -0.0228  0.3623 -0.0316
 9680TIP3    H150455   4.611   4.525  13.315  0.4150  0.2648  0.8432
 9680TIP3    H250456   4.721   4.617  13.267  0.0532  0.3527  0.1748
 9681TIP3   OH250457   1.210   6.135   3.290  0.2588 -0.5843  0.3675
 9681TIP3    H150458   1.174   6.118   3.203  1.4319 -1.1789 -0.0289
 9681TIP3    H250459   1.139   6.114   3.350 -0.0431 -1.8250 -0.3820
 9682TIP3   OH250460   0.491   6.639  15.811 -0.5376 -0.3149 -0.4580
 9682TIP3    H150461   0.475   6.690  15.890  4.8628 -0.1203  0.8989
 9682TIP3    H250462   0.490   6.548  15.841  0.3521 -0.3150 -0.4193
 9683TIP3   OH250463   4.414   6.319   1.302 -0.4348  0.4473  0.3553
 9683TIP3    H150464   4.319   6.310   1.293 -0.2760  0.2154 -1.5131
 9683TIP3    H250465   4.433   6.406   1.267  0.0285  0.5892  0.9481
 9684TIP3   OH250466   2.507   5.947   2.095  0.1133  0.2899 -0.3388
 9684TIP3    H150467   2.430   5.931   2.151 -0.9706  1.1642 -1.5344
 9684TIP3    H250468   2.480   5.916   2.009  1.0252  0.8496 -0.8323
 9685TIP3   OH250469   3.018   2.084  14.298  0.1707  0.0638 -0.0401
 9685TIP3    H150470   3.093   2.033  14.328  1.7716  1.0598 -2.0192
 9685TIP3    H250471   2.993   2.043  14.215 -0.8990  0.3093  0.1482
 9686TIP3   OH250472   3.125   3.913  16.269 -0.1960  0.0919 -0.1152
 9686TIP3    H150473   3.182   3.919  16.346 -0.2413  2.3320 -0.1700
 9686TIP3    H250474   3.186   3.909  16.195 -0.1260 -0.2057 -0.0394
 9687TIP3   OH250475   3.911   2.382  16.040  1.0517 -0.0354  0.4107
 9687TIP3    H150476   3.914   2.355  15.948 -0.6497  1.2639 -0.0829
 9687TIP3    H250477   4.002   2.394  16.065  1.5140  1.1448 -1.6149
 9688TIP3   OH250478   6.015   4.037  12.927  0.4131  0.1894  0.1176
 9688TIP3    H150479   5.961   4.038  12.848  0.1379  3.7509  0.1888
 9688TIP3    H250480   5.955   4.016  12.998  0.3364 -1.4448 -0.4059
 9689TIP3   OH250481   3.932   1.726  16.062 -0.0098 -0.2009  0.6095
 9689TIP3    H150482   3.946   1.680  15.980 -0.3503  0.7165  0.0171
 9689TIP3    H250483   3.852   1.687  16.098 -0.6963  0.3836 -0.2335
 9690TIP3   OH250484   4.906   0.147  12.424  0.0415  0.2673  0.8382
 9690TIP3    H150485   4.941   0.153  12.335 -0.7837 -1.1812  0.3764
 9690TIP3    H250486   4.910   0.054  12.445  0.0949  0.5752  2.2802
 9691TIP3   OH250487   5.732   1.931   5.284  0.0505  0.5464 -0.0095
 9691TIP3    H150488   5.769   1.858   5.235  1.7735  1.0146  0.5419
 9691TIP3    H250489   5.741   2.006   5.226  0.8949  0.8522  0.5112
 9692TIP3   OH250490   1.247   5.663   2.791 -0.5265  0.0901 -0.0713
 9692TIP3    H150491   1.157   5.641   2.814 -0.6523  0.3678 -0.2961
 9692TIP3    H250492   1.296   5.654   2.874 -0.5047 -1.3331 -0.2112
 9693TIP3   OH250493   0.683   2.828  12.575  0.7914  0.1882 -0.4363
 9693TIP3    H150494   0.710   2.851  12.487 -0.6738 -0.3270 -1.0521
 9693TIP3    H250495   0.689   2.732  12.578 -0.2755  0.1180 -0.3668
 9694TIP3   OH250496   2.272   6.532  13.752  0.0031  0.4794  0.0669
 9694TIP3    H150497   2.209   6.555  13.684 -1.1995 -0.8321  0.6925
 9694TIP3    H250498   2.234   6.456  13.796  1.8603 -0.1441  0.7075
 9695TIP3   OH250499   4.430   4.767   0.352 -0.3516 -0.4049  0.0937
 9695TIP3    H150500   4.467   4.706   0.289  0.2601 -0.8176  0.8342
 9695TIP3    H250501   4.338   4.742   0.360  0.0862 -1.8234  1.0446
 9696TIP3   OH250502   0.054   5.328   4.118 -0.1481  0.3215  0.7511
 9696TIP3    H150503   0.003   5.308   4.196 -0.2769  0.1054  0.6138
 9696TIP3    H250504   0.070   5.422   4.123 -1.0031  0.4836  0.5362
 9697TIP3   OH250505   0.628   2.017  14.915 -0.0945  0.1933  0.1104
 9697TIP3    H150506   0.709   2.067  14.927  0.3849 -0.4149 -0.4701
 9697TIP3    H250507   0.600   1.995  15.004  0.3458  0.4660  0.3197
 9698TIP3   OH250508   2.553   5.778  16.062  0.7887 -0.7861 -0.6504
 9698TIP3    H150509   2.473   5.729  16.077  0.1932  0.2076 -0.4753
 9698TIP3    H250510   2.549   5.803  15.970  0.7468 -0.4913 -0.5712
 9699TIP3   OH250511   0.423   3.763  11.868 -0.3197 -0.0572 -0.0442
 9699TIP3    H150512   0.424   3.766  11.964 -0.5965 -0.5749 -0.0237
 9699TIP3    H250513   0.340   3.720  11.846 -1.3144  1.9890 -0.5790
 9700TIP3   OH250514   1.915   1.205  12.244 -0.2482 -0.8134 -0.2556
 9700TIP3    H150515   1.924   1.295  12.276  0.0548 -0.5523 -1.0470
 9700TIP3    H250516   1.843   1.168  12.294 -1.9328  0.6005 -1.5325
 9701TIP3   OH250517   5.397   4.684   4.061  0.0647 -0.6960 -1.0384
 9701TIP3    H150518   5.342   4.712   4.135  0.5544  1.5674 -1.4598
 9701TIP3    H250519   5.363   4.732   3.986  2.8498  1.2476 -1.2183
 9702TIP3   OH250520   1.696   4.607   3.197 -0.5224 -0.3653  0.1963
 9702TIP3    H150521   1.672   4.606   3.290  0.3750 -2.5370  0.4852
 9702TIP3    H250522   1.789   4.630   3.198 -0.9219  1.3546 -0.3407
 9703TIP3   OH250523   4.313   2.849  14.879 -0.2587  0.0265 -0.6537
 9703TIP3    H150524   4.250   2.833  14.809 -2.2011  0.4559  0.8947
 9703TIP3    H250525   4.279   2.799  14.953  2.0114 -0.8389 -0.1008
 9704TIP3   OH250526   1.974   0.723   3.067  0.1048  0.5564 -0.2179
 9704TIP3    H150527   2.014   0.781   3.003 -0.4263  2.0471  0.7538
 9704TIP3    H250528   2.003   0.756   3.152  1.1979 -1.6651  0.3509
 9705TIP3   OH250529   5.870   0.172   1.786 -0.2720 -0.0441  0.3066
 9705TIP3    H150530   5.911   0.162   1.700  1.0637  1.0008  0.7803
 9705TIP3    H250531   5.944   0.179   1.847 -1.1851  0.1571  1.4208
 9706TIP3   OH250532   4.335   0.541   2.571  0.0016  0.1352 -0.0518
 9706TIP3    H150533   4.301   0.626   2.545 -1.4569 -0.6634 -0.8398
 9706TIP3    H250534   4.402   0.520   2.506  0.0245  0.4532 -0.1291
 9707TIP3   OH250535   5.428   5.041   3.947  0.3189 -0.3343  0.3429
 9707TIP3    H150536   5.434   5.071   4.038 -2.3279  1.0449  0.1879
 9707TIP3    H250537   5.381   4.958   3.952 -0.3139  0.0082  0.2386
 9708TIP3   OH250538   5.152   3.436  12.778 -0.2752 -0.5588  0.0226
 9708TIP3    H150539   5.078   3.377  12.784 -0.9734  0.4396  4.0811
 9708TIP3    H250540   5.113   3.523  12.769  0.4811 -0.2131 -0.0551
 9709TIP3   OH250541   2.125   0.659   1.059  0.4864 -0.3192  0.3942
 9709TIP3    H150542   2.066   0.688   1.129 -0.2565  0.1794 -0.4167
 9709TIP3    H250543   2.111   0.722   0.988  1.2715 -0.7802 -0.1847
 9710TIP3   OH250544   1.209   4.349  14.739  0.0884  0.1660  0.2702
 9710TIP3    H150545   1.123   4.346  14.695  0.7031 -0.1937 -0.9562
 9710TIP3    H250546   1.189   4.376  14.829 -1.3279 -0.1219  0.0653
 9711TIP3   OH250547   4.624   2.330   4.588  0.1742  0.2090  0.5577
 9711TIP3    H150548   4.578   2.247   4.601 -0.1561  0.1448 -0.8604
 9711TIP3    H250549   4.569   2.394   4.633  0.1496 -0.2614  1.2096
 9712TIP3   OH250550   2.209   3.426  14.949  0.5181 -0.6232  0.1728
 9712TIP3    H150551   2.178   3.405  15.037 -2.0856  0.5018 -0.3795
 9712TIP3    H250552   2.212   3.522  14.947  1.4416 -0.6559 -0.6908
 9713TIP3   OH250553   2.882   0.078  16.480 -0.0295 -0.0532 -0.1904
 9713TIP3    H150554   2.837   0.152  16.439 -0.7053 -0.5918 -0.4566
 9713TIP3    H250555   2.972   0.085  16.449  0.0892  1.0438  0.3458
 9714TIP3   OH250556   0.776   4.563  15.608 -0.0847  0.0540  0.1601
 9714TIP3    H150557   0.716   4.623  15.563  1.0034  1.5015  0.5811
 9714TIP3    H250558   0.740   4.556  15.697  0.1057  0.5636  0.2824
 9715TIP3   OH250559   1.111   1.837   5.681 -0.1583 -0.0860  0.2260
 9715TIP3    H150560   1.028   1.868   5.644 -0.0035 -1.6126 -1.6052
 9715TIP3    H250561   1.090   1.750   5.716  0.6442 -0.4922 -0.2714
 9716TIP3   OH250562   6.447   4.690  14.955 -0.3650  0.4856  0.2904
 9716TIP3    H150563   6.497   4.748  14.897  0.2740  0.3068  0.6581
 9716TIP3    H250564   6.357   4.700  14.925 -0.0163  0.1636 -0.9516
 9717TIP3   OH250565   1.125   0.892   2.961 -0.1602 -0.8316  0.0776
 9717TIP3    H150566   1.104   0.981   2.988 -0.2565 -0.8930  0.2095
 9717TIP3    H250567   1.050   0.840   2.989  0.1272 -1.0417  0.4805
 9718TIP3   OH250568   6.726   4.736   5.629 -0.2996  0.2832 -0.7589
 9718TIP3    H150569   6.744   4.722   5.536  2.7831  1.1802 -0.3950
 9718TIP3    H250570   6.766   4.821   5.649  1.5997 -1.1069  1.9290
 9719TIP3   OH250571   5.690   5.584  13.887 -0.4030 -0.1037 -0.0184
 9719TIP3    H150572   5.705   5.490  13.895 -1.4117 -0.2101  0.7948
 9719TIP3    H250573   5.678   5.598  13.793  1.0907 -0.5554 -0.3105
 9720TIP3   OH250574   2.536   4.443   5.285  0.5501 -0.3954  0.1489
 9720TIP3    H150575   2.444   4.457   5.261  0.6971  1.1693  0.3881
 9720TIP3    H250576   2.533   4.374   5.352 -0.1846 -2.1921 -1.6298
 9721TIP3   OH250577   1.244   1.108  15.060 -0.5588  0.1270 -0.0361
 9721TIP3    H150578   1.250   1.110  15.155  1.3083  1.9405 -0.1394
 9721TIP3    H250579   1.162   1.154  15.040 -3.0467 -3.5382  0.6886
 9722TIP3   OH250580   0.489   2.291   1.208  0.0496 -0.1281 -0.2334
 9722TIP3    H150581   0.435   2.342   1.269  2.0916  0.0431  1.5682
 9722TIP3    H250582   0.467   2.200   1.228  0.8757 -0.0801  0.9819
 9723TIP3   OH250583   1.011   1.904  14.350  0.4317 -0.4996 -0.1441
 9723TIP3    H150584   0.921   1.875  14.367  0.5015 -0.2325  0.7323
 9723TIP3    H250585   1.019   1.988  14.395  0.9838 -0.2949 -0.6047
 9724TIP3   OH250586   4.269   6.554   4.410  0.1218 -0.1134 -0.6879
 9724TIP3    H150587   4.337   6.620   4.423  0.9060 -0.9641 -0.3347
 9724TIP3    H250588   4.188   6.597   4.438 -0.2026  2.1892 -4.4427
 9725TIP3   OH250589   5.700   6.124  11.990  0.2086  0.2452  0.0510
 9725TIP3    H150590   5.779   6.177  11.997  0.9780 -0.8976  0.3522
 9725TIP3    H250591   5.652   6.140  12.072  0.6423  0.1602  0.3220
 9726TIP3   OH250592   6.099   5.948   5.187 -0.0050  0.1429  0.1541
 9726TIP3    H150593   6.111   5.876   5.125  0.7484  0.5136 -0.1548
 9726TIP3    H250594   6.066   5.907   5.266 -1.3570 -0.3002 -0.6077
 9727TIP3   OH250595   1.239   4.721  11.790 -0.4469  0.2607  0.1453
 9727TIP3    H150596   1.223   4.676  11.873 -0.5910 -0.6264 -0.3504
 9727TIP3    H250597   1.250   4.651  11.726  0.4918  0.9189 -0.4422
 9728TIP3   OH250598   2.521   0.551  15.854 -0.4934 -0.6316 -0.3532
 9728TIP3    H150599   2.569   0.569  15.935 -1.7194 -0.1419  0.2867
 9728TIP3    H250600   2.431   0.537  15.882 -0.7580 -1.3967 -1.5477
 9729TIP3   OH250601   6.396   6.410  14.401 -0.6397  0.2610  0.0780
 9729TIP3    H150602   6.403   6.396  14.306  0.1788 -0.2645  0.2032
 9729TIP3    H250603   6.370   6.325  14.436 -1.5016  0.6007  0.2760
 9730TIP3   OH250604   2.396   3.459  15.236 -0.2178  0.0901  0.1257
 9730TIP3    H150605   2.307   3.429  15.258 -1.2797  1.2369 -2.2357
 9730TIP3    H250606   2.424   3.403  15.164  0.4132  0.6341 -0.0589
 9731TIP3   OH250607   1.920   1.707   6.147  0.1209 -0.4468  0.3751
 9731TIP3    H150608   1.940   1.613   6.150 -0.1976 -0.5412 -0.2832
 9731TIP3    H250609   1.898   1.724   6.056  0.0320  0.2454  0.5183
 9732TIP3   OH250610   2.519   5.929   4.981  0.3880  0.7040 -0.1244
 9732TIP3    H150611   2.521   5.964   5.070 -1.0212  2.6619 -0.8150
 9732TIP3    H250612   2.524   6.005   4.924  0.9209 -0.4874 -1.7592
 9733TIP3   OH250613   6.693   3.986   3.721  0.3070  0.5550 -0.1401
 9733TIP3    H150614   6.724   3.946   3.803  0.4657 -0.5837 -0.7268
 9733TIP3    H250615   6.690   3.913   3.659 -0.0175  1.3593 -1.0959
 9734TIP3   OH250616   2.449   1.585  12.013  0.7086  0.0271 -0.1506
 9734TIP3    H150617   2.458   1.615  12.104  1.2985  0.9806 -0.5054
 9734TIP3    H250618   2.448   1.490  12.020  4.1216 -0.1097  0.6629
 9735TIP3   OH250619   1.799   5.603   6.034 -0.6620 -0.3228  0.1163
 9735TIP3    H150620   1.737   5.542   5.994  0.1671 -0.8517 -0.3717
 9735TIP3    H250621   1.817   5.565   6.120 -0.9420 -0.2097  0.2280
 9736TIP3   OH250622   0.372   4.375  12.166  0.0134  0.2747 -0.5739
 9736TIP3    H150623   0.447   4.349  12.112 -1.2399 -1.4650 -1.5832
 9736TIP3    H250624   0.296   4.341  12.119 -1.2525 -0.0243  1.5716
 9737TIP3   OH250625   1.995   2.359   1.864 -0.3635 -0.0560  0.3758
 9737TIP3    H150626   2.000   2.438   1.918 -1.2375 -0.5050  1.1298
 9737TIP3    H250627   1.909   2.364   1.822  0.3734  0.3833 -1.1554
 9738TIP3   OH250628   1.566   5.646  14.573  0.9433 -0.2659  0.0694
 9738TIP3    H150629   1.520   5.711  14.519  0.5523 -0.7901 -0.2328
 9738TIP3    H250630   1.658   5.655  14.547  0.7284 -0.7097 -0.9118
 9739TIP3   OH250631   1.598   2.478   4.082 -0.4775 -0.4703 -0.1138
 9739TIP3    H150632   1.516   2.491   4.130 -1.6136 -1.8991 -1.5510
 9739TIP3    H250633   1.660   2.535   4.126 -1.9584 -0.1520  1.7255
 9740TIP3   OH250634   4.465   1.820  13.684  0.0241  0.2647 -0.9929
 9740TIP3    H150635   4.381   1.865  13.692 -0.5964 -0.7564 -1.5668
 9740TIP3    H250636   4.480   1.814  13.589  1.6562  2.0305 -0.9247
 9741TIP3   OH250637   4.573   2.924  14.771  0.8316  0.3457 -0.1660
 9741TIP3    H150638   4.527   2.931  14.687 -0.0321 -0.8721  0.1770
 9741TIP3    H250639   4.507   2.889  14.831  0.7064  3.2855  1.6329
 9742TIP3   OH250640   6.323   1.457  11.178 -0.1047 -0.5544  0.2679
 9742TIP3    H150641   6.374   1.424  11.104 -0.3185  1.1754 -0.6845
 9742TIP3    H250642   6.384   1.513  11.227 -1.1949  2.2860 -1.3922
 9743TIP3   OH250643   0.532   2.266  12.421  0.2147 -0.2067  0.0613
 9743TIP3    H150644   0.498   2.325  12.354  0.5137 -0.1509 -0.0429
 9743TIP3    H250645   0.619   2.301  12.441  0.0205 -0.0635  0.6702
 9744TIP3   OH250646   0.568   0.803   0.335  0.6908 -0.3917 -0.8731
 9744TIP3    H150647   0.577   0.888   0.293 -0.8486 -0.3287 -1.1236
 9744TIP3    H250648   0.496   0.760   0.288  0.2351 -1.0982  0.4160
 9745TIP3   OH250649   5.628   4.563   1.335  0.1528 -0.6240  0.8497
 9745TIP3    H150650   5.664   4.620   1.267 -0.2914  0.5458  1.5733
 9745TIP3    H250651   5.673   4.588   1.415  0.7972 -2.1133  0.9841
 9746TIP3   OH250652   2.962   2.054   5.132  0.3863  0.1893  0.0330
 9746TIP3    H150653   2.959   2.121   5.201  0.3850  0.0857  0.1333
 9746TIP3    H250654   3.054   2.049   5.107  0.6712 -1.0300  1.2568
 9747TIP3   OH250655   4.103   5.349  15.996  0.0966  0.0702 -0.1536
 9747TIP3    H150656   4.102   5.330  16.090  4.4253  0.0815  0.0624
 9747TIP3    H250657   4.036   5.290  15.959 -1.5086 -0.1475  2.8167
 9748TIP3   OH250658   1.661   1.279  15.880 -0.3845  0.0170 -0.1394
 9748TIP3    H150659   1.722   1.292  15.953 -2.6990  2.0787  1.5850
 9748TIP3    H250660   1.704   1.214  15.824  2.7190  0.3400  1.6512
 9749TIP3   OH250661   2.223   4.758  11.019  0.8995  0.1534  1.0757
 9749TIP3    H150662   2.271   4.831  10.981  0.8249  0.6858  2.0053
 9749TIP3    H250663   2.137   4.794  11.040  0.2191 -0.6689 -0.1268
 9750TIP3   OH250664   3.656   1.687  15.265 -0.4215  0.6549  0.0455
 9750TIP3    H150665   3.751   1.679  15.271 -0.4948 -0.0638  0.3888
 9750TIP3    H250666   3.638   1.695  15.172  0.0047  1.2444  0.0100
 9751TIP3   OH250667   2.706   2.377   1.930 -0.3133 -0.1468 -0.1020
 9751TIP3    H150668   2.611   2.374   1.915 -0.6062  2.2093  0.9208
 9751TIP3    H250669   2.717   2.350   2.021  0.0889 -1.0061 -0.3943
 9752TIP3   OH250670   5.095   5.826  13.344 -0.1250  0.2010 -0.7774
 9752TIP3    H150671   5.156   5.878  13.397 -0.5967  0.6999 -0.7154
 9752TIP3    H250672   5.125   5.837  13.254 -1.7165  2.7435 -1.0975
 9753TIP3   OH250673   4.804   2.200  13.671 -0.3039 -0.3861 -0.2626
 9753TIP3    H150674   4.797   2.263  13.600 -0.6223 -0.5044 -0.3392
 9753TIP3    H250675   4.889   2.217  13.711 -1.1156  1.2850  0.8619
 9754TIP3   OH250676   0.274   5.888   5.566 -1.0634  0.9106 -0.8262
 9754TIP3    H150677   0.332   5.814   5.578  0.0243  2.0125  1.3024
 9754TIP3    H250678   0.243   5.881   5.475  2.0043  0.0040 -1.9109
 9755TIP3   OH250679   5.890   6.681  17.381 -0.4073 -0.2307  0.2534
 9755TIP3    H150680   5.861   6.769  17.358 -0.7205 -0.2364  0.6114
 9755TIP3    H250681   5.871   6.628  17.304  0.6190  0.1882 -0.3115
 9756TIP3   OH250682   3.254   4.197   1.665  0.3923  0.6016 -0.2634
 9756TIP3    H150683   3.290   4.159   1.584 -0.4409  1.5333 -1.0835
 9756TIP3    H250684   3.327   4.192   1.727  0.7510 -1.0334 -0.7499
 9757TIP3   OH250685   4.601   1.195   5.813 -0.1761  0.2607 -0.7326
 9757TIP3    H150686   4.515   1.223   5.844  0.5811  1.1231  0.6901
 9757TIP3    H250687   4.641   1.150   5.888  0.2738 -0.9592 -1.6655
 9758TIP3   OH250688   3.750   6.619   1.894  0.3499  0.2189  0.1779
 9758TIP3    H150689   3.832   6.617   1.944  0.2217  0.8929  0.4246
 9758TIP3    H250690   3.754   6.702   1.846 -0.2875  0.3582  0.3629
 9759TIP3   OH250691   0.585   1.047   3.685  0.0017 -0.0411  0.1189
 9759TIP3    H150692   0.579   1.069   3.778 -0.0639 -1.6804  0.5359
 9759TIP3    H250693   0.534   0.966   3.677 -1.5833  1.0755 -1.7207
 9760TIP3   OH250694   6.083   5.172  12.373 -0.3196  0.5777  0.1192
 9760TIP3    H150695   6.077   5.245  12.311 -2.2298 -0.2896 -0.7812
 9760TIP3    H250696   6.097   5.095  12.318  1.3027  0.1550  1.0358
 9761TIP3   OH250697   1.770   1.637   1.934 -0.5677 -0.0030 -0.2329
 9761TIP3    H150698   1.734   1.665   2.018 -1.5877  0.8771 -0.9396
 9761TIP3    H250699   1.831   1.567   1.956 -1.3799 -0.2995  1.1778
 9762TIP3   OH250700   1.037   1.185   2.443 -0.8079  0.4479  0.0614
 9762TIP3    H150701   1.060   1.093   2.450 -0.2028  0.6544  0.9942
 9762TIP3    H250702   1.109   1.232   2.486  0.2230  1.5595 -2.6321
 9763TIP3   OH250703   6.220   2.398  16.220 -0.4069  0.3735 -0.4823
 9763TIP3    H150704   6.234   2.339  16.145 -0.9623  0.3933 -0.6047
 9763TIP3    H250705   6.308   2.419  16.251 -0.1830 -2.8336  1.4166
 9764TIP3   OH250706   3.236   0.403  12.857  0.3863  0.3183 -0.3583
 9764TIP3    H150707   3.276   0.329  12.901  3.8756  1.1649 -1.7832
 9764TIP3    H250708   3.238   0.473  12.923  0.1801  0.0506 -0.0618
 9765TIP3   OH250709   5.967   6.392   0.839 -0.1022 -0.5128  0.5907
 9765TIP3    H150710   5.965   6.303   0.804 -2.6127 -1.3884  2.6363
 9765TIP3    H250711   5.977   6.380   0.934 -1.3442  1.2861  1.0005
 9766TIP3   OH250712   4.457   3.213  16.518  0.3755 -0.0749 -0.2301
 9766TIP3    H150713   4.471   3.161  16.597  0.0108 -0.3815 -0.3664
 9766TIP3    H250714   4.411   3.292  16.550  2.0514  0.7840  0.1670
 9767TIP3   OH250715   6.096   1.980  11.338  0.5980  0.1773  0.0845
 9767TIP3    H150716   6.065   2.013  11.422  3.3110 -0.6625  1.5127
 9767TIP3    H250717   6.098   2.057  11.281  0.1555  1.0586  1.2334
 9768TIP3   OH250718   3.196   2.196   4.590 -0.3985 -0.0277  0.3440
 9768TIP3    H150719   3.214   2.224   4.680 -0.1991 -1.0607  0.6357
 9768TIP3    H250720   3.112   2.150   4.596 -0.3390 -0.1781  0.0231
 9769TIP3   OH250721   4.968   5.001  11.029 -0.2082  0.6547 -0.1937
 9769TIP3    H150722   4.992   4.949  11.106 -1.6766 -0.9893 -0.7636
 9769TIP3    H250723   5.042   5.059  11.015  1.6407 -1.4084  0.4254
 9770TIP3   OH250724   5.319   0.306   6.030 -0.3677  0.4291  0.3809
 9770TIP3    H150725   5.304   0.266   6.116  1.3527  0.2709  0.6251
 9770TIP3    H250726   5.413   0.317   6.024 -0.5097  1.0447 -1.2382
 9771TIP3   OH250727   1.868   1.717  16.147  0.3359 -0.5708  0.2677
 9771TIP3    H150728   1.939   1.664  16.112  2.4538  1.6417  0.9394
 9771TIP3    H250729   1.819   1.746  16.070  2.9729  1.5763 -0.7400
 9772TIP3   OH250730   3.490   2.185  17.070 -0.4045  0.3620 -0.4159
 9772TIP3    H150731   3.402   2.195  17.035 -0.2979  1.0623 -0.4970
 9772TIP3    H250732   3.523   2.275  17.079 -0.6852  0.2751  2.1911
 9773TIP3   OH250733   3.426   4.668  17.257  0.2080  0.6900 -0.2940
 9773TIP3    H150734   3.457   4.599  17.198 -1.1562 -0.4334  0.2477
 9773TIP3    H250735   3.366   4.720  17.204  0.8623  1.1898 -0.5629
 9774TIP3   OH250736   1.854   4.443   1.463  0.0513  0.4845  0.3567
 9774TIP3    H150737   1.899   4.360   1.480 -0.3638  0.4085  1.1292
 9774TIP3    H250738   1.851   4.487   1.548 -3.4041 -0.5438  0.9180
 9775TIP3   OH250739   2.281   3.031  13.691 -0.0506  0.2734 -0.3103
 9775TIP3    H150740   2.357   2.982  13.660 -1.1987 -2.0521  0.2857
 9775TIP3    H250741   2.221   3.031  13.617 -0.0999  0.7100 -0.2698
 9776TIP3   OH250742   3.138   5.422  13.707 -0.3174  0.3180 -0.5943
 9776TIP3    H150743   3.207   5.357  13.691 -0.9273 -0.5122  0.0406
 9776TIP3    H250744   3.147   5.485  13.636  1.4593  0.5486 -0.2015
 9777TIP3   OH250745   4.811   1.578  12.557 -0.5595 -0.7420  0.0746
 9777TIP3    H150746   4.904   1.560  12.543  0.0347  1.9140  0.0694
 9777TIP3    H250747   4.794   1.550  12.647 -0.0967 -2.2794 -0.2735
 9778TIP3   OH250748   2.460   4.517   1.680 -0.2886 -0.3923  0.0369
 9778TIP3    H150749   2.452   4.423   1.697 -1.5477 -0.7421 -2.1624
 9778TIP3    H250750   2.471   4.524   1.585  0.6735  1.6540  0.2406
 9779TIP3   OH250751   1.859   2.115   4.595 -0.1301  0.1886  0.2854
 9779TIP3    H150752   1.951   2.111   4.623 -0.4099 -0.0452  1.2036
 9779TIP3    H250753   1.820   2.035   4.630 -0.3024 -0.5930 -1.5633
 9780TIP3   OH250754   3.252   3.999  15.762  0.7991  0.3898  0.2323
 9780TIP3    H150755   3.158   4.003  15.748  0.9195 -0.9185 -1.1082
 9780TIP3    H250756   3.262   3.984  15.856 -0.3569 -0.5443  0.2129
 9781TIP3   OH250757   1.469   4.058  10.895 -0.0056  0.1318  0.1469
 9781TIP3    H150758   1.452   4.094  10.808 -2.2049 -0.2002  0.3785
 9781TIP3    H250759   1.486   3.965  10.879 -0.7230  0.0027  0.0550
 9782TIP3   OH250760   1.515   1.327  15.181  0.3824 -0.4394 -0.4024
 9782TIP3    H150761   1.501   1.392  15.249 -0.4558  0.3276 -1.2890
 9782TIP3    H250762   1.610   1.325  15.169  0.6950 -1.6504  1.7785
 9783TIP3   OH250763   0.049   3.383   2.058  0.6138 -0.2189 -0.0619
 9783TIP3    H150764   0.038   3.316   1.990  2.4554 -0.3943 -0.2319
 9783TIP3    H250765   0.056   3.465   2.010 -0.0573 -0.0850  0.0559
 9784TIP3   OH250766   3.010   1.298   1.272 -0.0609 -0.0643  0.0512
 9784TIP3    H150767   3.031   1.205   1.264 -0.8227 -0.3677  1.4623
 9784TIP3    H250768   2.915   1.301   1.283  0.0445  0.8158  0.8216
 9785TIP3   OH250769   4.468   2.034   1.949  0.4712 -0.2351  0.3825
 9785TIP3    H150770   4.557   1.999   1.948  0.4110 -0.4319 -1.5579
 9785TIP3    H250771   4.479   2.129   1.956  0.7901 -0.2947  0.7333
 9786TIP3   OH250772   6.037   5.039  14.434  0.0921  0.0925 -0.2140
 9786TIP3    H150773   6.025   4.952  14.395 -0.1811 -0.4043  0.9434
 9786TIP3    H250774   5.981   5.097  14.382  2.1819  0.1170 -2.6443
 9787TIP3   OH250775   3.352   4.654  16.294 -1.0312 -0.6413 -0.4924
 9787TIP3    H150776   3.297   4.656  16.372  0.1841  2.0760  0.4094
 9787TIP3    H250777   3.373   4.561  16.282 -0.5180 -1.0915  2.9620
 9788TIP3   OH250778   0.420   6.012   0.734 -0.1334 -0.2333  0.4554
 9788TIP3    H150779   0.511   6.004   0.705  0.0641 -1.8372  1.4055
 9788TIP3    H250780   0.368   5.972   0.664  0.1410 -1.8236  1.1256
 9789TIP3   OH250781   0.676   0.506  11.651 -0.0742  0.1340 -0.4649
 9789TIP3    H150782   0.634   0.440  11.596  0.0169 -0.7131  0.4566
 9789TIP3    H250783   0.648   0.485  11.740  0.8157  0.6903 -0.0370
 9790TIP3   OH250784   5.649   0.211   6.448 -0.6277 -0.4763 -0.4689
 9790TIP3    H150785   5.711   0.275   6.481 -0.5002 -0.8193 -0.0343
 9790TIP3    H250786   5.690   0.126   6.466 -1.8726 -0.7773  1.2223
 9791TIP3   OH250787   0.529   5.431   4.485  0.0424  0.7484  0.1477
 9791TIP3    H150788   0.532   5.446   4.391 -0.6236 -0.8434 -0.1711
 9791TIP3    H250789   0.570   5.345   4.497  3.3067  2.3725  1.7578
 9792TIP3   OH250790   2.962   4.644  15.016 -0.1737  0.0183  0.2721
 9792TIP3    H150791   2.917   4.711  15.068  1.4657  0.8323  0.7182
 9792TIP3    H250792   2.893   4.582  14.992 -1.5273  1.2500  0.8283
 9793TIP3   OH250793   1.125   3.732   2.359  0.5989  0.3724  0.2294
 9793TIP3    H150794   1.056   3.796   2.342 -1.1862 -1.3942  0.3945
 9793TIP3    H250795   1.189   3.747   2.290 -1.2658  0.3633 -1.6123
 9794TIP3   OH250796   3.347   1.754   4.015 -0.0334 -0.3901 -0.6344
 9794TIP3    H150797   3.327   1.822   4.079 -1.5795  0.8904 -2.3456
 9794TIP3    H250798   3.424   1.786   3.969  0.1256 -0.5232 -0.4602
 9795TIP3   OH250799   5.063   2.026   6.003 -0.4360 -0.5491  0.4340
 9795TIP3    H150800   5.023   2.025   5.916 -2.9374 -0.2684  1.5213
 9795TIP3    H250801   5.035   1.944   6.043  1.9649 -1.4169  0.5127
 9796TIP3   OH250802   2.242   4.048   5.505  0.3514  0.0721  0.0952
 9796TIP3    H150803   2.255   3.969   5.451 -0.1907  0.5042 -0.6924
 9796TIP3    H250804   2.161   4.031   5.553  0.8215 -0.3023  0.7784
 9797TIP3   OH250805   4.306   0.238  17.362  0.1468  1.0335  0.2389
 9797TIP3    H150806   4.269   0.175  17.424  0.9827  1.0758  0.7963
 9797TIP3    H250807   4.401   0.227  17.370  0.2959  2.1603  0.1390
 9798TIP3   OH250808   1.123   4.783  11.094  0.0180  0.1926 -0.1787
 9798TIP3    H150809   1.043   4.798  11.146 -0.2888  2.9301 -1.2717
 9798TIP3    H250810   1.137   4.866  11.047  2.7364 -0.6922 -1.1114
 9799TIP3   OH250811   2.768   3.761   1.853  0.0039 -0.3966 -0.1375
 9799TIP3    H150812   2.693   3.733   1.905  0.0544 -1.8763 -0.7962
 9799TIP3    H250813   2.755   3.718   1.768  0.8311  0.5296 -0.7565
 9800TIP3   OH250814   1.073   5.483  15.136 -0.4486  0.1569 -0.2448
 9800TIP3    H150815   1.142   5.418  15.123 -0.7261 -0.4723  1.2256
 9800TIP3    H250816   0.993   5.432  15.146 -0.8533  0.7870 -0.2022
 9801TIP3   OH250817   4.089   3.458  11.549 -0.0518 -0.0453  0.3512
 9801TIP3    H150818   4.088   3.417  11.462 -0.9408  0.6840  0.0020
 9801TIP3    H250819   4.180   3.454  11.577  0.0522 -1.2939 -0.1325
 9802TIP3   OH250820   6.317   3.326  12.747  0.1979 -0.3506  0.4487
 9802TIP3    H150821   6.404   3.361  12.767  0.8447  0.5003 -3.1149
 9802TIP3    H250822   6.275   3.395  12.696 -1.9541 -1.4118  0.6741
 9803TIP3   OH250823   3.304   4.807   0.071  0.1840  0.1846 -0.0324
 9803TIP3    H150824   3.359   4.799  -0.008 -1.5727  0.9128 -1.3933
 9803TIP3    H250825   3.324   4.894   0.105 -0.2987  0.5624 -0.6868
 9804TIP3   OH250826   3.841   2.901   4.525 -0.1875 -0.5930  0.0175
 9804TIP3    H150827   3.866   2.809   4.516  0.0012 -0.4716 -0.7238
 9804TIP3    H250828   3.878   2.928   4.609 -1.3161 -1.5381  0.8599
 9805TIP3   OH250829   6.615   3.803   2.471 -0.2098 -0.0381  0.7837
 9805TIP3    H150830   6.558   3.729   2.490  0.2997 -0.5288  0.4370
 9805TIP3    H250831   6.566   3.880   2.501 -0.6887 -0.5250  1.2677
 9806TIP3   OH250832   4.605   1.968  16.467  0.0174  0.7161  0.6100
 9806TIP3    H150833   4.640   1.975  16.378 -2.0083  1.1905 -0.2075
 9806TIP3    H250834   4.633   1.882  16.498  0.9760  0.6623 -0.3815
 9807TIP3   OH250835   4.867   5.643   2.648 -0.4405  0.7462  0.0612
 9807TIP3    H150836   4.807   5.626   2.721 -1.0141  3.1224  0.2414
 9807TIP3    H250837   4.952   5.659   2.690 -0.0400 -0.9347 -0.0641
 9808TIP3   OH250838   2.873   6.480  12.620 -0.1402  0.6504 -0.0310
 9808TIP3    H150839   2.834   6.422  12.555 -0.6462  0.4789  0.4192
 9808TIP3    H250840   2.845   6.445  12.705  2.8304 -0.8607  0.4610
 9809TIP3   OH250841   1.871   5.023  15.057 -0.0458  0.5186  0.0745
 9809TIP3    H150842   1.914   4.938  15.061  1.4437  1.2597  0.4610
 9809TIP3    H250843   1.801   5.018  15.122 -0.3611 -0.5885 -0.3281
 9810TIP3   OH250844   5.554   4.143   2.340 -0.2349 -0.5475 -0.3225
 9810TIP3    H150845   5.566   4.233   2.368 -0.9628 -0.7406  0.6536
 9810TIP3    H250846   5.510   4.150   2.255 -1.5171  0.0159  0.3586
 9811TIP3   OH250847   0.306   6.173   5.353 -0.2050  0.5043 -0.2473
 9811TIP3    H150848   0.367   6.247   5.353 -0.8022  1.0992  2.0752
 9811TIP3    H250849   0.339   6.115   5.422 -1.4703  0.1539  0.0887
 9812TIP3   OH250850   1.779   1.250   5.960 -0.4768  0.6493 -0.7193
 9812TIP3    H150851   1.835   1.211   5.894  0.7929  0.1944  0.5812
 9812TIP3    H250852   1.829   1.325   5.993 -0.3403 -0.0972  0.8565
 9813TIP3   OH250853   5.152   6.516  10.651  0.1553 -0.4311 -0.2183
 9813TIP3    H150854   5.097   6.580  10.606  1.8986  0.0768 -1.7617
 9813TIP3    H250855   5.171   6.450  10.585  1.0468 -0.8094  0.3963
 9814TIP3   OH250856   6.737   3.214  17.017 -0.3642  0.2161 -0.3036
 9814TIP3    H150857   6.791   3.201  17.095  0.2627 -1.6047 -0.9828
 9814TIP3    H250858   6.767   3.147  16.955 -3.1290 -0.6628 -0.8451
 9815TIP3   OH250859   0.033   1.034   4.480  0.3913 -0.6080 -0.0244
 9815TIP3    H150860  -0.024   1.102   4.515  0.6624  0.8076 -2.1337
 9815TIP3    H250861   0.113   1.039   4.533  0.1790  0.3500  0.2202
 9816TIP3   OH250862   1.948   6.378   3.307  0.0167  0.1481 -0.5492
 9816TIP3    H150863   1.922   6.305   3.252 -2.3520  0.0592  0.5585
 9816TIP3    H250864   1.942   6.455   3.250 -0.5834 -0.1642 -0.9171
 9817TIP3   OH250865   1.857   3.787  16.550  0.1679  0.0065 -0.0049
 9817TIP3    H150866   1.942   3.789  16.595 -0.1408 -0.2086  0.5945
 9817TIP3    H250867   1.838   3.694  16.539 -1.0486 -0.0214  1.9197
 9818TIP3   OH250868   0.487   6.328  13.752  0.2102  0.2849  0.5621
 9818TIP3    H150869   0.506   6.414  13.714  2.5519 -1.4661 -2.8048
 9818TIP3    H250870   0.559   6.312  13.813  1.4167 -0.2988 -0.9321
 9819TIP3   OH250871   1.146   5.705  15.237 -0.0055  0.0109 -0.0826
 9819TIP3    H150872   1.133   5.610  15.232  1.1952 -0.1325 -1.0100
 9819TIP3    H250873   1.101   5.732  15.317 -0.6042 -1.2958  0.0423
 9820TIP3   OH250874   6.063   4.247  11.583  0.0663  0.1495 -0.0828
 9820TIP3    H150875   6.025   4.160  11.579 -0.8815  0.5736 -0.7690
 9820TIP3    H250876   6.119   4.253  11.505 -0.9417  0.6206 -0.7859
 9821TIP3   OH250877   2.776   0.801   5.277  0.4458  0.2461  0.5084
 9821TIP3    H150878   2.756   0.708   5.267  0.6003  0.3180 -0.6636
 9821TIP3    H250879   2.703   0.836   5.328 -0.8796 -0.0718 -1.0776
 9822TIP3   OH250880   1.575   6.761   5.559 -0.2185 -0.5485 -0.2936
 9822TIP3    H150881   1.637   6.691   5.536  0.9471  0.4832 -0.3857
 9822TIP3    H250882   1.572   6.816   5.480 -0.1672  0.1694  0.1981
 9823TIP3   OH250883   1.549   6.509  14.630  0.6184 -1.1858  0.2800
 9823TIP3    H150884   1.604   6.583  14.603  0.5815 -0.2267  2.5762
 9823TIP3    H250885   1.591   6.477  14.710 -0.3477 -2.5615  0.2628
 9824TIP3   OH250886   0.225   3.281  12.676 -0.0524 -0.6726 -0.8586
 9824TIP3    H150887   0.234   3.281  12.581  1.1485  3.3678 -0.9206
 9824TIP3    H250888   0.314   3.287  12.709 -0.3836 -2.8261  0.6655
 9825TIP3   OH250889   3.909   0.185  15.282 -0.2216 -0.2009 -0.2178
 9825TIP3    H150890   3.973   0.244  15.321 -0.2690 -0.4584  0.2631
 9825TIP3    H250891   3.962   0.120  15.235 -0.1977  0.9386 -1.8471
 9826TIP3   OH250892   3.627   0.421   4.908 -0.7289  0.4672  0.0550
 9826TIP3    H150893   3.583   0.454   4.986  0.3703  1.2531  0.3595
 9826TIP3    H250894   3.566   0.439   4.836 -0.4749  2.5544  0.3076
 9827TIP3   OH250895   5.590   0.247  11.440 -0.4655  0.1106  0.3194
 9827TIP3    H150896   5.533   0.324  11.446 -0.9108 -0.3045  1.7102
 9827TIP3    H250897   5.548   0.191  11.375 -1.8122 -0.2779  1.4553
 9828TIP3   OH250898   5.378   2.303  12.049 -0.0327  0.3623 -0.1616
 9828TIP3    H150899   5.437   2.242  12.004 -0.1039 -1.0581  1.5841
 9828TIP3    H250900   5.383   2.383  11.996  3.4292  0.3218 -0.1737
 9829TIP3   OH250901   0.601   3.863   4.707  0.2353 -0.0363  0.5779
 9829TIP3    H150902   0.583   3.923   4.634 -0.1377  1.8938  2.1721
 9829TIP3    H250903   0.562   3.780   4.680 -0.1591  0.7005 -1.2796
 9830TIP3   OH250904   3.278   2.988  11.998 -0.3606  0.1510  0.4091
 9830TIP3    H150905   3.253   3.078  12.020  0.6359  0.7026 -0.6167
 9830TIP3    H250906   3.302   2.949  12.082 -2.4729  0.2658  1.1149
 9831TIP3   OH250907   0.658   6.020   3.496  0.4313 -0.1646  0.1878
 9831TIP3    H150908   0.664   6.115   3.507  0.2183 -0.3089  1.8306
 9831TIP3    H250909   0.565   6.000   3.502  0.4709 -0.4809 -0.1873
 9832TIP3   OH250910   4.421   4.445   0.423  0.2703 -0.6090 -0.3218
 9832TIP3    H150911   4.490   4.393   0.381 -0.2772 -0.6919 -1.1385
 9832TIP3    H250912   4.347   4.440   0.363 -0.0253  0.5540 -0.0810
 9833TIP3   OH250913   1.895   6.326   0.930  0.4332 -0.3632  0.0323
 9833TIP3    H150914   1.880   6.420   0.923  1.1422  0.0341  2.7351
 9833TIP3    H250915   1.989   6.316   0.911 -0.1635 -1.0211 -3.2004
 9834TIP3   OH250916   5.341   3.198   5.533 -0.4017 -0.5754  0.0737
 9834TIP3    H150917   5.402   3.206   5.460  0.0456  0.2825  0.5288
 9834TIP3    H250918   5.320   3.104   5.536 -1.9423 -0.3987 -2.3468
 9835TIP3   OH250919   3.549   5.508  14.542  0.2231  0.2876  0.2033
 9835TIP3    H150920   3.515   5.475  14.459  1.1175  1.9882 -0.8949
 9835TIP3    H250921   3.644   5.505  14.533  0.3438  0.0074  1.3800
 9836TIP3   OH250922   0.795   3.511  12.239  0.1759  0.4480  0.7273
 9836TIP3    H150923   0.715   3.461  12.257 -0.9880  1.8282 -0.3777
 9836TIP3    H250924   0.800   3.573  12.312  0.1974  0.4323  0.7394
 9837TIP3   OH250925   4.447   6.175   2.141  0.5465 -0.2645  0.3846
 9837TIP3    H150926   4.477   6.157   2.052  0.6916 -1.1113  0.5951
 9837TIP3    H250927   4.509   6.129   2.198  1.2388  1.3416  1.0010
 9838TIP3   OH250928   4.620   0.685   4.843  0.2672  0.5786 -0.1741
 9838TIP3    H150929   4.616   0.642   4.757 -0.6458  0.0402  0.1289
 9838TIP3    H250930   4.629   0.778   4.823 -0.2011  0.4837 -0.8622
 9839TIP3   OH250931   5.931   4.859  16.791 -0.0660 -0.6215 -0.3116
 9839TIP3    H150932   6.023   4.879  16.808  0.0795  0.4271 -2.0898
 9839TIP3    H250933   5.929   4.825  16.701 -1.5883  0.9574 -0.9407
 9840TIP3   OH250934   1.040   2.052  11.677  0.7989 -0.1695  0.5652
 9840TIP3    H150935   1.001   1.994  11.611  0.9399 -0.0620  0.3881
 9840TIP3    H250936   0.987   2.038  11.755 -0.9370  1.5179 -0.2254
 9841TIP3   OH250937   2.426   1.997  16.313  0.3394  0.5343 -0.4201
 9841TIP3    H150938   2.508   2.003  16.362  0.5453 -1.9248 -0.3651
 9841TIP3    H250939   2.358   2.020  16.376  0.8016  0.0786  0.2484
 9842TIP3   OH250940   6.050   0.782   0.506 -0.0420 -0.4346  0.0794
 9842TIP3    H150941   6.128   0.767   0.559 -0.7968 -1.1000  1.0228
 9842TIP3    H250942   6.075   0.753   0.418  1.7161  2.0940 -0.3512
 9843TIP3   OH250943   2.132   2.604   0.253 -0.4596  0.3163  0.3846
 9843TIP3    H150944   2.080   2.538   0.207 -1.3517  1.0457  0.3231
 9843TIP3    H250945   2.152   2.564   0.337 -1.2440  0.0742  0.4664
 9844TIP3   OH250946   1.309   0.168  12.678 -0.5665  0.6096 -0.1670
 9844TIP3    H150947   1.328   0.093  12.735 -0.2918  0.4426 -0.4686
 9844TIP3    H250948   1.333   0.137  12.590  3.8165  2.4154  0.1245
 9845TIP3   OH250949   2.439   1.608   0.190 -0.3688  0.5050  0.1699
 9845TIP3    H150950   2.408   1.535   0.137  1.3253  0.7846 -1.2969
 9845TIP3    H250951   2.448   1.680   0.128  1.3786  0.9414  0.8925
 9846TIP3   OH250952   3.555   3.124   2.654 -0.5829  0.3889  0.0461
 9846TIP3    H150953   3.601   3.043   2.676  0.3645  1.3734  1.9973
 9846TIP3    H250954   3.474   3.120   2.704  0.3186  1.4118  1.6888
 9847TIP3   OH250955   4.254   2.021  13.681 -0.9045  0.0134  0.1004
 9847TIP3    H150956   4.273   2.114  13.695 -0.9488 -0.3053  2.6972
 9847TIP3    H250957   4.222   1.989  13.765 -0.3353 -2.5037 -0.5378
 9848TIP3   OH250958   0.167   2.080   2.934 -0.4579  0.1630 -0.1387
 9848TIP3    H150959   0.145   2.010   2.873 -1.9641  1.0881 -0.7258
 9848TIP3    H250960   0.230   2.041   2.994 -0.0787 -1.2186 -1.3731
 9849TIP3   OH250961   2.232   6.407   2.353 -0.5015  0.0015  0.1427
 9849TIP3    H150962   2.185   6.477   2.398  0.7096  0.5478  0.6158
 9849TIP3    H250963   2.224   6.428   2.260 -1.0561  0.1574  0.2234
 9850TIP3   OH250964   6.736   4.121  12.031 -0.2387 -0.2095  0.0018
 9850TIP3    H150965   6.685   4.115  11.950  1.3212 -1.5111 -0.9447
 9850TIP3    H250966   6.825   4.101  12.004  0.6684  1.2523  1.7330
 9851TIP3   OH250967   0.200   6.086   6.429  0.5199  0.6070 -0.6376
 9851TIP3    H150968   0.252   6.092   6.509  0.2115 -0.0502 -0.3750
 9851TIP3    H250969   0.112   6.111   6.456  0.4886  0.7226 -0.8499
 9852TIP3   OH250970   5.641   1.191   4.593  0.3736 -0.2631  0.3251
 9852TIP3    H150971   5.710   1.256   4.605  0.0503  0.4932 -1.5900
 9852TIP3    H250972   5.582   1.230   4.528 -1.0295 -1.5480  0.7581
 9853TIP3   OH250973   4.727   3.648  15.786  0.0975  0.2303 -0.5324
 9853TIP3    H150974   4.637   3.674  15.768  0.4157  0.8321 -1.3357
 9853TIP3    H250975   4.728   3.554  15.770 -0.2878  0.2983 -0.9795
 9854TIP3   OH250976   2.760   3.021   4.662  0.0390 -0.6192 -0.1429
 9854TIP3    H150977   2.776   3.111   4.691  0.2213 -1.0893  1.2905
 9854TIP3    H250978   2.807   3.014   4.578  0.3334  0.4963 -0.0854
 9855TIP3   OH250979   5.454   0.795  11.816  0.3671  0.2738  0.2937
 9855TIP3    H150980   5.417   0.708  11.825 -0.0596  0.4493  0.2779
 9855TIP3    H250981   5.517   0.802  11.888 -0.7132  0.5093  1.2605
 9856TIP3   OH250982   6.381   4.223  11.161  0.0963 -0.7114 -0.8458
 9856TIP3    H150983   6.309   4.215  11.099  0.3062  2.0327 -1.5739
 9856TIP3    H250984   6.460   4.221  11.106  0.2613  2.5541 -0.9288
 9857TIP3   OH250985   2.444   0.448   1.957  0.1671  0.6786 -0.2524
 9857TIP3    H150986   2.394   0.464   1.878 -0.1422 -0.3072 -0.2707
 9857TIP3    H250987   2.451   0.353   1.962  0.9516  0.7599  0.4271
 9858TIP3   OH250988   2.592   3.308   5.697 -0.9940 -0.7575 -0.5113
 9858TIP3    H150989   2.620   3.399   5.686  1.3184 -1.3653 -0.2288
 9858TIP3    H250990   2.608   3.289   5.789 -2.4151 -1.1938 -0.3289
 9859TIP3   OH250991   6.205   2.632   5.126 -0.1583  0.0684  0.1782
 9859TIP3    H150992   6.243   2.555   5.085 -0.3634 -1.0488  1.9393
 9859TIP3    H250993   6.221   2.704   5.065  3.6448 -0.5423  0.2048
 9860TIP3   OH250994   2.604   0.761   1.322  0.3037 -0.3817  0.1838
 9860TIP3    H150995   2.510   0.761   1.303 -0.0958  1.0306  1.8989
 9860TIP3    H250996   2.641   0.702   1.257 -1.4378  0.9200 -2.1734
 9861TIP3   OH250997   4.449   5.736   4.539  0.0739  0.2803  0.5675
 9861TIP3    H150998   4.490   5.817   4.569 -0.6038 -0.4510  3.7574
 9861TIP3    H250999   4.458   5.740   4.443  1.4217  3.3464  0.6828
 9862TIP3   OH251000   6.515   0.528   3.926  0.0414  0.6179  0.2432
 9862TIP3    H151001   6.537   0.546   4.017 -0.8875 -0.2699  0.6585
 9862TIP3    H251002   6.574   0.457   3.900  0.4711  1.0343  0.0706
 9863TIP3   OH251003   4.856   2.500  16.785 -0.2619 -0.1397 -0.0945
 9863TIP3    H151004   4.931   2.474  16.839  0.1942  0.4008 -0.4540
 9863TIP3    H251005   4.853   2.434  16.715  0.0895  0.0285 -0.2713
 9864TIP3   OH251006   4.902   5.554  16.264 -0.3261  0.0585  0.0903
 9864TIP3    H151007   4.815   5.533  16.298 -0.0607  0.4424  1.0188
 9864TIP3    H251008   4.915   5.647  16.284  0.3515 -0.0289  0.0954
 9865TIP3   OH251009   5.617   2.779  12.492 -0.6735 -0.0220 -0.0658
 9865TIP3    H151010   5.704   2.803  12.461 -0.7049 -1.3345 -1.2757
 9865TIP3    H251011   5.626   2.688  12.521 -1.0048  0.6856  2.5076
 9866TIP3   OH251012   1.428   5.066   5.466 -0.3149 -0.4139 -0.2160
 9866TIP3    H151013   1.448   5.130   5.535 -0.1448  0.9134 -1.4417
 9866TIP3    H251014   1.504   5.069   5.408  0.2160 -2.6214  0.2969
 9867TIP3   OH251015   2.972   6.425  10.476 -0.2697  0.2326  0.6735
 9867TIP3    H151016   3.036   6.416  10.405 -0.8803  0.2520  0.1172
 9867TIP3    H251017   3.020   6.470  10.545 -0.1238  1.7474 -0.3457
 9868TIP3   OH251018   0.092   3.993   2.230 -0.0232  0.3705  0.0473
 9868TIP3    H151019   0.145   4.063   2.191 -0.3166 -0.0627 -1.1866
 9868TIP3    H251020   0.100   3.920   2.169 -0.3130 -0.4334  0.9493
 9869TIP3   OH251021   5.111   1.653   1.071  0.0067 -0.1919 -0.2471
 9869TIP3    H151022   5.042   1.676   1.133  0.6190  1.0891 -0.0004
 9869TIP3    H251023   5.143   1.737   1.039  2.7114 -0.6170  1.0614
 9870TIP3   OH251024   5.222   2.526   5.366  0.0028 -0.2354 -0.3166
 9870TIP3    H151025   5.227   2.481   5.281 -1.7948 -1.0721 -0.0328
 9870TIP3    H251026   5.207   2.618   5.344  1.9287 -0.0165 -0.8910
 9871TIP3   OH251027   0.687   6.002   6.127  0.1477 -0.0931  0.4551
 9871TIP3    H151028   0.713   5.990   6.218 -0.5980 -3.0606  0.3560
 9871TIP3    H251029   0.764   6.041   6.085  1.9713 -2.2879  1.5771
 9872TIP3   OH251030   6.271   1.533   3.827  0.2066  0.1849 -0.0818
 9872TIP3    H151031   6.178   1.518   3.842 -0.2655  0.5336 -2.3399
 9872TIP3    H251032   6.283   1.627   3.842  0.6161 -0.1582  1.9935
 9873TIP3   OH251033   6.039   0.282  14.275 -0.5127  0.7225  0.1412
 9873TIP3    H151034   6.059   0.193  14.304  0.8174  1.4739  1.7036
 9873TIP3    H251035   6.044   0.278  14.179  0.5571 -0.6656  0.2327
 9874TIP3   OH251036   4.393   0.677   0.518  0.6607 -0.1048  0.0011
 9874TIP3    H151037   4.371   0.738   0.447 -0.6937  0.0371  0.5279
 9874TIP3    H251038   4.309   0.642   0.547  1.2917 -0.9803  0.8182
 9875TIP3   OH251039   6.108   5.374  12.213  0.3043  0.2912  0.2458
 9875TIP3    H151040   6.203   5.375  12.197  0.3960  3.5307  0.2171
 9875TIP3    H251041   6.080   5.463  12.191 -2.3053  0.2105  2.6730
 9876TIP3   OH251042   4.938   6.355   1.421 -0.6377 -0.0384 -0.3488
 9876TIP3    H151043   4.942   6.410   1.499 -1.9174  0.2704 -0.4833
 9876TIP3    H251044   4.848   6.323   1.418 -0.9505  0.8952 -2.3111
 9877TIP3   OH251045   6.426   4.163  12.840  0.3406  0.5939  0.1895
 9877TIP3    H151046   6.474   4.084  12.815  2.6270  1.8233  0.4263
 9877TIP3    H251047   6.372   4.184  12.764  1.7349  0.2653 -0.9406
 9878TIP3   OH251048   5.141   2.737   2.787 -0.0859  0.2567 -0.3309
 9878TIP3    H151049   5.204   2.805   2.763 -0.2541  0.5462  0.0325
 9878TIP3    H251050   5.130   2.685   2.708 -1.6458  1.9591 -1.3319
 9879TIP3   OH251051   6.696   6.649   5.827  0.4295 -0.6486  0.3006
 9879TIP3    H151052   6.685   6.668   5.920  2.8456 -1.7067  0.8976
 9879TIP3    H251053   6.650   6.566   5.813  0.6022 -0.8157  0.7191
 9880TIP3   OH251054   3.541   1.953  12.523 -0.2632  0.0289 -0.0706
 9880TIP3    H151055   3.537   2.016  12.594  2.7364  1.3581 -0.9250
 9880TIP3    H251056   3.627   1.912  12.532 -0.3078 -0.6451 -2.1769
 9881TIP3   OH251057   3.896   4.209  13.984  0.0235  0.1589 -0.1954
 9881TIP3    H151058   3.829   4.256  13.933  1.1878  1.2144 -0.8027
 9881TIP3    H251059   3.938   4.151  13.920  1.0890  1.0494 -0.3264
 9882TIP3   OH251060   6.557   6.249   1.149  0.3832 -0.6428 -0.3384
 9882TIP3    H151061   6.557   6.332   1.102  0.5789  0.1610  1.0335
 9882TIP3    H251062   6.468   6.241   1.183  0.8451 -0.0525  1.0846
 9883TIP3   OH251063   4.236   4.152  17.327 -0.1993 -0.1628  0.1983
 9883TIP3    H151064   4.312   4.204  17.355  0.3051  0.6730 -2.4945
 9883TIP3    H251065   4.260   4.062  17.348  0.3382  0.3199  1.8514
 9884TIP3   OH251066   5.669   1.884  14.567 -0.8417  0.0652  0.5032
 9884TIP3    H151067   5.591   1.847  14.526 -1.1604  1.1925  0.0274
 9884TIP3    H251068   5.636   1.950  14.627 -0.2617  1.2069 -0.3763
 9885TIP3   OH251069   2.573   3.348  10.834 -0.2134  0.6267  0.4010
 9885TIP3    H151070   2.636   3.360  10.905  1.2383  0.8931 -0.8860
 9885TIP3    H251071   2.616   3.287  10.774 -1.3554  0.4969 -0.3061
 9886TIP3   OH251072   1.328   4.964   3.804  0.0796 -0.3605 -0.1002
 9886TIP3    H151073   1.239   4.964   3.839 -0.2003 -0.2323 -0.7916
 9886TIP3    H251074   1.323   4.906   3.728  0.7738 -0.9660  0.3019
 9887TIP3   OH251075   4.321   1.506  15.951 -0.3814 -0.1352  0.3180
 9887TIP3    H151076   4.269   1.566  15.898 -0.5439 -0.0634  0.5549
 9887TIP3    H251077   4.338   1.554  16.032 -0.3252 -0.3262  0.4216
 9888TIP3   OH251078   1.652   5.540  14.001 -0.9447  0.0994 -0.4288
 9888TIP3    H151079   1.725   5.595  14.028 -2.3230  2.7137 -1.5978
 9888TIP3    H251080   1.594   5.537  14.077 -1.9304  2.3083 -1.0079
 9889TIP3   OH251081   2.114   2.530   5.063  0.0944 -0.3513 -0.0334
 9889TIP3    H151082   2.067   2.539   5.146  0.6219  2.1316  0.0723
 9889TIP3    H251083   2.060   2.576   4.999  0.9989  0.1030 -0.4925
 9890TIP3   OH251084   4.064   4.231   4.860 -0.0152  0.2997 -0.1687
 9890TIP3    H151085   4.143   4.277   4.889  0.0175 -0.5123  1.1215
 9890TIP3    H251086   4.096   4.146   4.830 -0.3963 -0.0599  0.4305
 9891TIP3   OH251087   4.797   4.746  16.721  0.2019 -0.1848 -0.6364
 9891TIP3    H151088   4.806   4.811  16.652  2.4747  0.5938  0.2866
 9891TIP3    H251089   4.837   4.666  16.685 -2.0118 -0.9630 -1.5324
 9892TIP3   OH251090   0.045   3.402  14.503  0.3031 -0.0192  0.0111
 9892TIP3    H151091   0.106   3.395  14.429  0.3848  1.1656 -0.0434
 9892TIP3    H251092  -0.017   3.330  14.489  1.0323 -0.5632 -0.5325
 9893TIP3   OH251093   5.733   3.480   2.737 -0.6286 -0.3394  0.4603
 9893TIP3    H151094   5.741   3.534   2.658  1.0773 -2.0350 -0.6039
 9893TIP3    H251095   5.680   3.405   2.710  1.3851 -1.7893  0.3860
 9894TIP3   OH251096   4.675   0.785   3.694  0.1739 -0.2318  0.2123
 9894TIP3    H151097   4.660   0.860   3.636  2.1630 -0.5541 -0.7972
 9894TIP3    H251098   4.733   0.727   3.645  1.0929 -1.0179  2.1056
 9895TIP3   OH251099   1.560   1.493  11.297  0.1098 -0.8881  0.3288
 9895TIP3    H151100   1.543   1.546  11.375  2.5691 -1.0878  1.0760
 9895TIP3    H251101   1.473   1.469  11.265 -1.1886  3.2847  0.1046
 9896TIP3   OH251102   3.353   2.851   4.142  0.1131  0.6726  0.0320
 9896TIP3    H151103   3.361   2.801   4.223  0.4679  0.7589  0.0507
 9896TIP3    H251104   3.280   2.911   4.157 -0.2250  0.2553  0.0593
 9897TIP3   OH251105   0.852   2.186  12.260  0.3064  0.4699 -0.8428
 9897TIP3    H151106   0.814   2.193  12.172  0.9490  0.4748 -1.1270
 9897TIP3    H251107   0.889   2.098  12.264 -0.5611  0.1194 -0.2211
 9898TIP3   OH251108   4.237   5.537  12.354 -0.0578  0.3671  0.2412
 9898TIP3    H151109   4.172   5.475  12.320  0.7039 -0.6781  0.6423
 9898TIP3    H251110   4.209   5.622  12.319 -1.6374 -0.0477  0.4039
 9899TIP3   OH251111   2.841   5.576   2.432 -0.0798  0.6276  0.7433
 9899TIP3    H151112   2.788   5.611   2.504 -0.6460  0.8542  0.2310
 9899TIP3    H251113   2.873   5.654   2.386 -1.7599  0.5468 -0.7082
 9900TIP3   OH251114   0.990   2.935  11.252 -0.4845  0.4175 -0.1818
 9900TIP3    H151115   1.019   2.861  11.198 -0.3866 -1.5518  2.3822
 9900TIP3    H251116   1.050   3.006  11.230  0.9947 -1.0154 -0.9956
 9901TIP3   OH251117   4.474   1.419  14.084 -0.0637 -0.6211  0.1707
 9901TIP3    H151118   4.481   1.336  14.037  0.4878 -1.0159  0.9477
 9901TIP3    H251119   4.431   1.478  14.021 -0.3325 -1.4460 -0.4321
 9902TIP3   OH251120   5.872   2.910  15.194 -0.2070  0.0548 -0.4370
 9902TIP3    H151121   5.926   2.931  15.118  2.1709  0.3017  1.2036
 9902TIP3    H251122   5.884   2.985  15.253 -0.0672 -1.1324  1.1318
 9903TIP3   OH251123   4.942   1.697   3.362  0.9312 -0.7383  0.7452
 9903TIP3    H151124   4.956   1.605   3.382  0.4063 -0.8122  0.7991
 9903TIP3    H251125   5.029   1.737   3.365  1.2721 -1.3927 -0.1085
 9904TIP3   OH251126   1.924   6.113   2.548 -0.7039 -0.3395  0.9016
 9904TIP3    H151127   1.979   6.144   2.476 -1.0190 -0.1889  0.7244
 9904TIP3    H251128   1.978   6.127   2.627 -1.4919  2.3601  1.0468
 9905TIP3   OH251129   0.820   5.362  16.509 -0.2504  0.0271 -0.3002
 9905TIP3    H151130   0.824   5.270  16.537  1.8091  0.0913 -0.2107
 9905TIP3    H251131   0.860   5.362  16.422  0.2989  0.9212 -0.0528
 9906TIP3   OH251132   1.593   1.671   5.290  0.0166 -0.3405  0.1535
 9906TIP3    H151133   1.631   1.599   5.241  0.2457  0.7371 -1.3265
 9906TIP3    H251134   1.554   1.630   5.367 -0.6401 -2.1594 -1.0708
 9907TIP3   OH251135   4.447   5.129  12.893 -0.1296  0.2646  0.1052
 9907TIP3    H151136   4.412   5.126  12.982  0.9855  0.2128  0.5592
 9907TIP3    H251137   4.535   5.090  12.901 -0.5336 -0.9932 -1.2682
 9908TIP3   OH251138   3.487   3.934   3.200 -0.2946 -0.4969 -0.1985
 9908TIP3    H151139   3.399   3.972   3.196 -0.2824  0.4259  3.7112
 9908TIP3    H251140   3.516   3.952   3.289  3.1831 -2.3874 -0.7792
 9909TIP3   OH251141   3.435   4.355  16.236  0.1984  0.3286 -0.4665
 9909TIP3    H151142   3.530   4.352  16.230  0.2635 -2.3878  0.5379
 9909TIP3    H251143   3.415   4.330  16.326 -1.4653 -1.5766 -1.2856
 9910TIP3   OH251144   5.403   2.977  13.038 -0.1858  0.1698  0.0626
 9910TIP3    H151145   5.373   2.984  12.947  0.4673  0.5033 -0.1289
 9910TIP3    H251146   5.435   2.888  13.046  0.6393  0.4280 -0.3090
 9911TIP3   OH251147   4.963   3.886  13.293  0.2025 -0.3360  0.1528
 9911TIP3    H151148   4.884   3.940  13.286  0.6993  0.6493  1.5489
 9911TIP3    H251149   5.035   3.948  13.286  0.7980 -0.8832  1.2056
 9912TIP3   OH251150   3.805   2.720   0.978 -0.3057  0.7021  0.3308
 9912TIP3    H151151   3.727   2.687   1.022 -0.5553 -0.4956 -0.9520
 9912TIP3    H251152   3.809   2.672   0.895  1.7943  0.7315  0.3428
 9913TIP3   OH251153   4.352   5.491  13.834 -0.6765  0.2475  0.9186
 9913TIP3    H151154   4.425   5.430  13.825  0.1247  0.8958  2.6276
 9913TIP3    H251155   4.281   5.451  13.783  0.0843 -1.6792  1.2807
 9914TIP3   OH251156   6.596   4.107   2.262  0.3109  0.1121 -0.6607
 9914TIP3    H151157   6.686   4.084   2.284  0.5106  0.4360 -1.1304
 9914TIP3    H251158   6.565   4.033   2.209  0.1609 -0.1930 -0.1530
 9915TIP3   OH251159   2.695   5.867   2.493  0.1129  0.0114  0.0747
 9915TIP3    H151160   2.738   5.844   2.575 -0.3460  1.8627  0.8776
 9915TIP3    H251161   2.766   5.868   2.428  0.7424 -0.0329  0.7506
 9916TIP3   OH251162   5.133   4.346  13.788 -0.6252  0.3763  0.0598
 9916TIP3    H151163   5.205   4.372  13.845 -1.5713  1.2477  0.9164
 9916TIP3    H251164   5.141   4.251  13.780  0.1887  0.3822  0.7113
 9917TIP3   OH251165   6.557   5.966   0.703  0.8713 -0.0326 -0.2798
 9917TIP3    H151166   6.617   6.017   0.757 -0.5056  0.2209  1.0857
 9917TIP3    H251167   6.610   5.935   0.630  2.5521  0.4621  0.6910
 9918TIP3   OH251168   1.730   4.446   0.870  0.0461 -0.1539 -0.4955
 9918TIP3    H151169   1.668   4.427   0.940 -1.2446  3.0666 -0.5877
 9918TIP3    H251170   1.690   4.518   0.821  3.2179  1.1798 -1.4013
 9919TIP3   OH251171   1.898   0.311  16.092 -0.3797  0.3586 -0.2095
 9919TIP3    H151172   1.836   0.338  16.159 -0.5866  0.2485 -0.3551
 9919TIP3    H251173   1.977   0.286  16.141 -0.6758 -0.1287  0.0229
 9920TIP3   OH251174   0.497   5.902  12.330 -0.2538 -0.1796 -0.0582
 9920TIP3    H151175   0.540   5.904  12.244 -0.9144  0.2721 -0.3912
 9920TIP3    H251176   0.430   5.971  12.324 -1.9801 -1.7924 -0.0816
 9921TIP3   OH251177   2.880   5.561  11.495  0.2986  0.4582 -0.2731
 9921TIP3    H151178   2.888   5.492  11.429 -2.0870  0.0557 -0.2255
 9921TIP3    H251179   2.904   5.518  11.578 -1.1716 -0.3721 -0.2422
 9922TIP3   OH251180   5.248   4.228  11.466 -0.1987 -0.6844 -0.0342
 9922TIP3    H151181   5.304   4.305  11.475 -0.7699 -0.3944  1.2031
 9922TIP3    H251182   5.304   4.163  11.424  0.6644  0.0132  0.0004
 9923TIP3   OH251183   2.164   4.355  10.946 -0.3041 -0.2588  0.1799
 9923TIP3    H151184   2.208   4.430  10.907 -1.8751 -0.1937 -1.6499
 9923TIP3    H251185   2.225   4.282  10.933 -0.8253 -0.2955 -2.8032
 9924TIP3   OH251186   0.433   4.765   4.462 -0.2769 -0.3628 -0.1867
 9924TIP3    H151187   0.525   4.765   4.434 -0.1435  2.0839  0.0008
 9924TIP3    H251188   0.437   4.767   4.558 -0.4461  1.2897 -0.1912
 9925TIP3   OH251189   5.737   0.390  16.235 -0.1026 -0.1652  0.5976
 9925TIP3    H151190   5.823   0.381  16.193 -0.0597 -0.5434  0.7639
 9925TIP3    H251191   5.682   0.428  16.167  0.5372  1.4262  0.9264
 9926TIP3   OH251192   6.386   5.512   3.614 -0.3908 -0.7930  0.3233
 9926TIP3    H151193   6.477   5.536   3.627 -0.2337 -1.2242  0.0499
 9926TIP3    H251194   6.360   5.556   3.534  0.5267 -3.1499 -1.3787
 9927TIP3   OH251195   5.756   1.080  11.513  0.6402  0.4744 -0.1144
 9927TIP3    H151196   5.737   1.150  11.450  0.3233  0.2402 -0.2845
 9927TIP3    H251197   5.838   1.042  11.482 -0.1774 -0.5006 -1.1705
 9928TIP3   OH251198   4.335   1.173  13.000 -0.0422  0.1197 -0.8163
 9928TIP3    H151199   4.320   1.109  12.930  0.4286  1.0302 -1.7794
 9928TIP3    H251200   4.250   1.216  13.011  0.6373  2.5345 -3.5019
 9929TIP3   OH251201   2.128   2.487  13.065 -0.2099  0.0472 -0.5889
 9929TIP3    H151202   2.080   2.570  13.072  0.7851  0.5305  1.2766
 9929TIP3    H251203   2.062   2.420  13.084 -0.4389  0.6319  0.8590
 9930TIP3   OH251204   0.145   2.989   5.140  0.5495 -0.0367 -0.0102
 9930TIP3    H151205   0.230   3.019   5.107 -0.3553  0.8527 -1.7032
 9930TIP3    H251206   0.135   3.033   5.224  3.5283 -3.3856  2.3705
 9931TIP3   OH251207   6.210   3.114   0.433 -0.4651 -0.7477  0.0851
 9931TIP3    H151208   6.247   3.175   0.496 -1.4058 -0.2968  0.2158
 9931TIP3    H251209   6.205   3.031   0.480  0.1320 -0.7526  0.1465
 9932TIP3   OH251210   0.411   5.455  16.787 -0.0419 -0.1071 -0.3236
 9932TIP3    H151211   0.339   5.421  16.840 -1.4584  0.5383 -1.7513
 9932TIP3    H251212   0.430   5.541  16.825  0.0755 -0.3302  0.1306
 9933TIP3   OH251213   6.641   3.230  16.085 -0.2252 -0.5870  0.3164
 9933TIP3    H151214   6.649   3.219  15.991 -0.3964 -0.6632  0.3097
 9933TIP3    H251215   6.549   3.253  16.099 -0.0693  0.0025  0.4081
 9934TIP3   OH251216   5.348   5.095   4.730  0.4109 -0.2056 -0.0472
 9934TIP3    H151217   5.417   5.062   4.673 -0.8523  0.4686 -2.0495
 9934TIP3    H251218   5.390   5.162   4.783  2.1769 -2.4615  1.5925
 9935TIP3   OH251219   6.364   5.746  15.397 -0.1435  0.4631  0.3187
 9935TIP3    H151220   6.328   5.676  15.452 -0.5315 -1.2242 -1.9546
 9935TIP3    H251221   6.458   5.728  15.394 -0.2609 -0.0622 -0.3716
 9936TIP3   OH251222   1.133   5.659  12.610  0.6364 -0.7312 -0.4593
 9936TIP3    H151223   1.142   5.662  12.514  0.6225 -1.1132 -0.4721
 9936TIP3    H251224   1.169   5.743  12.639 -1.3010  0.3441 -0.9505
 9937TIP3   OH251225   2.357   3.326  11.174  0.1058  0.0701  0.2785
 9937TIP3    H151226   2.394   3.402  11.130 -1.6937  0.7322 -0.1817
 9937TIP3    H251227   2.347   3.355  11.265 -0.2673  0.2761  0.1745
 9938TIP3   OH251228   0.981   3.472  15.963 -0.5970  0.2450  0.0141
 9938TIP3    H151229   1.006   3.507  16.048 -2.7690 -0.3252  0.9522
 9938TIP3    H251230   0.952   3.549  15.914 -2.3475  0.2206  0.9472
 9939TIP3   OH251231   3.593   3.144   4.298  0.5894  0.3622  0.3765
 9939TIP3    H151232   3.577   3.056   4.332 -1.0039  1.0479  1.4822
 9939TIP3    H251233   3.606   3.131   4.204  0.2637 -1.0321  0.5058
 9940TIP3   OH251234   5.808   0.618   2.112 -0.2909  0.6570 -0.0625
 9940TIP3    H151235   5.820   0.584   2.024  0.0021  0.3885  0.0751
 9940TIP3    H251236   5.779   0.708   2.100 -0.4054  0.5732 -0.4310
 9941TIP3   OH251237   1.779   4.082  13.293  0.0383 -0.1755 -0.7044
 9941TIP3    H151238   1.849   4.135  13.331 -1.9021  2.3587 -0.4143
 9941TIP3    H251239   1.791   3.995  13.332  1.4556  0.8647  1.3597
 9942TIP3   OH251240   0.510   1.044  14.423 -0.3561  0.0930 -0.7832
 9942TIP3    H151241   0.467   0.960  14.409 -0.0697 -0.7314  2.4777
 9942TIP3    H251242   0.533   1.074  14.336 -1.1842 -2.8200 -2.1217
 9943TIP3   OH251243   3.698   0.371   1.863  0.3042  0.2268 -0.2042
 9943TIP3    H151244   3.618   0.353   1.913  0.2509 -0.5160 -0.5427
 9943TIP3    H251245   3.761   0.401   1.928 -0.0155  0.0637  0.1861
 9944TIP3   OH251246   5.288   0.872  14.777  0.1076  0.0257  0.2039
 9944TIP3    H151247   5.366   0.902  14.824  0.0834 -0.0770  0.3079
 9944TIP3    H251248   5.268   0.786  14.814 -0.4453  0.3383  0.6479
 9945TIP3   OH251249   4.229   0.712   2.249  0.2322  0.1728 -0.4175
 9945TIP3    H151250   4.320   0.711   2.279  0.0648 -1.1361  0.0744
 9945TIP3    H251251   4.206   0.620   2.238 -1.2848  0.4510  0.2308
 9946TIP3   OH251252   1.412   6.499  14.877  0.1951  0.2545  0.2903
 9946TIP3    H151253   1.425   6.404  14.870 -1.7585 -0.0162 -0.1792
 9946TIP3    H251254   1.321   6.508  14.905 -0.0445  2.0244 -0.9498
 9947TIP3   OH251255   4.551   4.448  14.264 -0.2689  0.3095 -0.0972
 9947TIP3    H151256   4.567   4.540  14.243 -0.1641  0.0985 -0.9762
 9947TIP3    H251257   4.638   4.409  14.272 -0.3150  0.2453  0.1134
 9948TIP3   OH251258   0.007   4.446  17.283 -0.2802 -0.3246  0.3010
 9948TIP3    H151259   0.099   4.458  17.258 -0.5883  1.2243 -0.2000
 9948TIP3    H251260  -0.035   4.528  17.257 -1.8109 -1.0205  0.5207
 9949TIP3   OH251261   3.483   3.128  17.017 -0.2462 -0.7075  0.1695
 9949TIP3    H151262   3.448   3.197  16.962 -1.1885 -1.4398 -0.1690
 9949TIP3    H251263   3.530   3.071  16.957  0.7857 -0.2204  0.4901
 9950TIP3   OH251264   6.538   2.514   5.955 -0.3798 -0.1884 -0.4909
 9950TIP3    H151265   6.586   2.537   6.035 -0.3085 -0.0688 -0.5689
 9950TIP3    H251266   6.532   2.596   5.906 -0.4554 -0.2543 -0.5921
 9951TIP3   OH251267   6.442   5.524  11.446 -1.0395 -0.0852  0.0875
 9951TIP3    H151268   6.453   5.531  11.351  0.1712 -1.0874  0.1245
 9951TIP3    H251269   6.479   5.438  11.468  0.1254  0.7511  1.6379
 9952TIP3   OH251270   4.199   3.492  15.570 -0.4693 -0.0993  0.4233
 9952TIP3    H151271   4.145   3.413  15.578 -0.5556 -0.0729  0.1248
 9952TIP3    H251272   4.279   3.462  15.526 -0.8729  0.1421 -0.4949
 9953TIP3   OH251273   0.753   5.658  11.763  0.0544  0.1182 -0.2438
 9953TIP3    H151274   0.707   5.717  11.822 -0.7331 -1.4813  0.8079
 9953TIP3    H251275   0.840   5.647  11.802  0.5161  1.2090 -0.9094
 9954TIP3   OH251276   0.760   3.157   1.832 -0.7889 -0.1583  0.1075
 9954TIP3    H151277   0.780   3.183   1.742  0.6607  1.1927  0.7765
 9954TIP3    H251278   0.670   3.123   1.828 -0.9860  0.4785 -1.7174
 9955TIP3   OH251279   4.976   1.164  15.636  0.8356  0.0944 -0.0889
 9955TIP3    H151280   5.028   1.179  15.556 -0.2763  1.2361 -0.6297
 9955TIP3    H251281   4.886   1.155  15.605  0.5814 -1.1353  0.9110
 9956TIP3   OH251282   2.948   4.447  15.514 -0.2524 -0.8788  0.8024
 9956TIP3    H151283   2.870   4.429  15.463  0.3193 -2.2564  0.3537
 9956TIP3    H251284   2.951   4.376  15.579  0.1783 -0.3698  1.3537
 9957TIP3   OH251285   4.510   4.674  16.551 -0.3182 -0.0827  0.3080
 9957TIP3    H151286   4.601   4.669  16.522 -0.2609 -1.1382  0.6365
 9957TIP3    H251287   4.513   4.730  16.629  0.5212 -2.2757  1.9728
 9958TIP3   OH251288   4.890   1.682  17.042  0.0966  0.2330 -0.4638
 9958TIP3    H151289   4.947   1.610  17.068  0.6615  0.5976 -0.6719
 9958TIP3    H251290   4.838   1.701  17.120 -0.3048 -0.6252 -0.5136
 9959TIP3   OH251291   5.930   4.589   5.607 -0.2382 -0.0153 -0.3343
 9959TIP3    H151292   5.938   4.566   5.700  1.7651  1.5970 -0.0207
 9959TIP3    H251293   5.884   4.673   5.607 -1.9537 -0.9056 -0.9937
 9960TIP3   OH251294   4.520   1.505   1.350 -0.3356 -0.2056 -0.2462
 9960TIP3    H151295   4.489   1.583   1.397 -0.2036 -0.8919  1.0238
 9960TIP3    H251296   4.441   1.453   1.335 -0.3680 -0.0195 -0.7492
 9961TIP3   OH251297   1.151   0.177   4.614  0.1249  0.0815 -0.3065
 9961TIP3    H151298   1.174   0.212   4.700  0.0553  0.1689 -0.3233
 9961TIP3    H251299   1.160   0.252   4.554  3.2086 -0.6488 -0.9093
 9962TIP3   OH251300   4.010   6.746  12.282  0.0397  0.0437 -0.0529
 9962TIP3    H151301   3.940   6.713  12.225 -0.0608 -0.8244  0.5528
 9962TIP3    H251302   4.021   6.838  12.256 -0.5630 -0.1139 -0.9066
 9963TIP3   OH251303   1.907   0.547  17.041 -0.5228  0.3395 -0.2078
 9963TIP3    H151304   1.931   0.617  17.102  1.4548 -0.6049  0.1949
 9963TIP3    H251305   1.991   0.508  17.016 -1.5640 -2.2436  0.0263
 9964TIP3   OH251306   4.088   1.325  14.592 -0.2486 -0.6747 -0.3332
 9964TIP3    H151307   4.121   1.270  14.521 -1.2202 -0.6665 -0.8091
 9964TIP3    H251308   4.091   1.268  14.670 -1.8921 -1.6790 -0.9465
 9965TIP3   OH251309   3.672   4.809   6.689  0.2442 -0.0078  0.2835
 9965TIP3    H151310   3.612   4.867   6.736 -0.2891  0.6956 -1.2328
 9965TIP3    H251311   3.615   4.749   6.641  0.7802 -0.5682  0.3335
 9966TIP3   OH251312   6.399   3.428   2.775  0.1611 -0.0786 -0.6890
 9966TIP3    H151313   6.396   3.482   2.854  1.2583 -2.5830  1.2220
 9966TIP3    H251314   6.315   3.383   2.774  0.7537 -1.2735  0.0739
 9967TIP3   OH251315   5.565   0.738   2.467 -0.2789  0.7533 -0.1323
 9967TIP3    H151316   5.520   0.700   2.543  0.0916  1.6639  0.5626
 9967TIP3    H251317   5.517   0.704   2.391 -0.5090 -0.3628  0.4901
 9968TIP3   OH251318   4.517   6.547   1.186 -0.7759  0.4906 -0.7145
 9968TIP3    H151319   4.469   6.630   1.178 -0.4126  0.6058 -2.1308
 9968TIP3    H251320   4.539   6.525   1.095  0.3488 -0.4412 -0.2267
 9969TIP3   OH251321   2.574   3.803  14.320  0.3319 -0.2816 -0.4688
 9969TIP3    H151322   2.629   3.749  14.377  0.8188  0.9896  0.2972
 9969TIP3    H251323   2.567   3.752  14.239 -0.1728 -2.0048  0.6113
 9970TIP3   OH251324   2.999   6.687   0.329 -0.4356  0.0901 -0.3358
 9970TIP3    H151325   3.030   6.767   0.371 -0.5885 -1.1261  2.2653
 9970TIP3    H251326   3.078   6.635   0.314 -0.2923  0.8105 -2.3582
 9971TIP3   OH251327   1.388   5.843   4.420 -0.1495 -0.3967  0.1626
 9971TIP3    H151328   1.437   5.870   4.342  0.6162 -0.0551  0.7584
 9971TIP3    H251329   1.312   5.901   4.421 -0.1672 -0.4074 -0.3346
 9972TIP3   OH251330   4.638   1.480  15.946 -0.0892 -0.1730  0.5429
 9972TIP3    H151331   4.648   1.566  15.988  0.9074 -0.0980  0.1867
 9972TIP3    H251332   4.544   1.465  15.945 -0.1469 -0.4260  3.3023
 9973TIP3   OH251333   4.633   5.158   2.133 -0.2450  0.1075  0.2925
 9973TIP3    H151334   4.593   5.150   2.047 -0.6388  1.6201  0.3095
 9973TIP3    H251335   4.717   5.113   2.125 -0.7314 -0.6770 -0.5526
 9974TIP3   OH251336   0.204   4.705   2.398  0.0584  0.3946  0.8205
 9974TIP3    H151337   0.147   4.663   2.462 -0.8310 -0.4466 -0.4801
 9974TIP3    H251338   0.171   4.795   2.391 -1.4063 -0.1877 -0.2033
 9975TIP3   OH251339   4.662   0.891   2.331  0.3728 -0.0166 -0.8473
 9975TIP3    H151340   4.748   0.906   2.370  0.9289 -1.3880 -1.4582
 9975TIP3    H251341   4.610   0.967   2.357  0.7119 -0.7596  2.4153
 9976TIP3   OH251342   0.968   0.168   4.873 -0.1198  0.0572 -0.4840
 9976TIP3    H151343   1.030   0.139   4.940 -0.1161 -1.1984 -1.0068
 9976TIP3    H251344   0.972   0.101   4.805 -0.9944  0.6987 -1.1974
 9977TIP3   OH251345   4.042   4.146   1.887 -0.2103  0.3942 -0.1335
 9977TIP3    H151346   4.013   4.179   1.972  0.8777 -0.4650  0.5956
 9977TIP3    H251347   4.137   4.142   1.894 -0.0631  0.7852 -1.5824
 9978TIP3   OH251348   0.653   4.831  10.849 -0.0840  0.5123 -0.0027
 9978TIP3    H151349   0.573   4.871  10.817  0.0020 -0.8627 -2.1658
 9978TIP3    H251350   0.722   4.891  10.823 -0.3107  1.2785  1.1034
 9979TIP3   OH251351   4.025   6.675   3.684 -0.3106  0.0249  0.5918
 9979TIP3    H151352   4.096   6.729   3.719  0.8253 -0.5536 -0.7195
 9979TIP3    H251353   3.979   6.733   3.624  1.1729 -0.4918 -1.1490
 9980TIP3   OH251354   5.442   4.650   1.932  0.3479  0.1815 -0.8076
 9980TIP3    H151355   5.405   4.602   1.858  0.9643  0.1590 -1.1048
 9980TIP3    H251356   5.503   4.588   1.972  0.7971  0.5521 -0.9110
 9981TIP3   OH251357   4.294   3.885  11.940 -0.0626 -0.0200  0.1225
 9981TIP3    H151358   4.291   3.968  11.988 -0.1564 -0.2380  0.4930
 9981TIP3    H251359   4.296   3.818  12.008  1.9708 -0.2761 -0.1531
 9982TIP3   OH251360   0.064   2.777  12.119  0.0793  0.2548 -0.0948
 9982TIP3    H151361   0.073   2.843  12.051  1.1069 -0.9181 -1.1424
 9982TIP3    H251362  -0.022   2.794  12.158 -1.1742  0.1188 -2.6116
 9983TIP3   OH251363   4.958   0.291   6.189  0.7310  0.4128 -0.1169
 9983TIP3    H151364   4.881   0.274   6.244  0.4336  2.5518  0.2287
 9983TIP3    H251365   4.994   0.204   6.171 -0.9825 -0.5634  0.8267
 9984TIP3   OH251366   3.750   5.446  11.597  0.0780  0.4616 -0.7160
 9984TIP3    H151367   3.734   5.400  11.680 -0.8852 -0.8906 -1.6114
 9984TIP3    H251368   3.845   5.462  11.597  0.2213 -0.2405  0.2700
 9985TIP3   OH251369   1.993   0.079  11.699  0.8052  0.1934  0.2913
 9985TIP3    H151370   1.988   0.068  11.794 -0.3364 -0.2812  0.1920
 9985TIP3    H251371   1.903   0.068  11.668  1.4470 -2.1337 -1.0948
 9986TIP3   OH251372   3.060   4.882  11.612 -0.0690  0.1924  0.9860
 9986TIP3    H151373   3.025   4.959  11.568  0.8645  0.5180  0.7947
 9986TIP3    H251374   2.998   4.812  11.591  0.4809  0.2665 -1.1064
 9987TIP3   OH251375   6.330   5.057  14.463  0.5341 -0.2201 -0.0253
 9987TIP3    H151376   6.258   5.045  14.525  0.9115  1.7448  0.8969
 9987TIP3    H251377   6.322   4.985  14.401 -1.8047 -0.4137  0.4386
 9988TIP3   OH251378   0.434   1.692  13.469 -0.3959 -0.7569  0.1795
 9988TIP3    H151379   0.485   1.757  13.518  0.4164 -1.2631  0.0392
 9988TIP3    H251380   0.499   1.648  13.414 -1.2485 -0.3998 -1.1416
 9989TIP3   OH251381   1.844   3.617   6.522 -0.1429 -0.0543 -0.0367
 9989TIP3    H151382   1.911   3.555   6.491 -0.4565  0.4011 -1.7148
 9989TIP3    H251383   1.761   3.574   6.503 -0.4101  1.2958 -2.3954
 9990TIP3   OH251384   0.378   6.194  16.601 -0.0078  0.3437 -0.5166
 9990TIP3    H151385   0.324   6.225  16.529  0.2712  3.0461  0.3221
 9990TIP3    H251386   0.462   6.239  16.589  1.6295 -2.5574 -0.9255
 9991TIP3   OH251387   5.459   0.546  13.212  0.3947 -0.1639  0.3333
 9991TIP3    H151388   5.500   0.499  13.139  1.1362  0.3823  0.3846
 9991TIP3    H251389   5.377   0.580  13.175  1.2223  0.9380 -0.5534
 9992TIP3   OH251390   4.965   5.939  15.519  0.2682 -0.1246  0.2519
 9992TIP3    H151391   5.025   5.903  15.584  1.1194  1.2146  0.2449
 9992TIP3    H251392   4.936   6.022  15.557 -1.1481 -0.4581 -0.0090
 9993TIP3   OH251393   1.656   6.653  13.832  0.3898 -0.2909 -0.2479
 9993TIP3    H151394   1.644   6.714  13.759 -0.4283  0.4447  0.4841
 9993TIP3    H251395   1.736   6.604  13.809  0.5593  0.4289 -1.2731
 9994TIP3   OH251396   3.821   6.178   5.737 -0.4454 -0.5917  0.1368
 9994TIP3    H151397   3.872   6.250   5.700 -0.8121  1.2032  2.8166
 9994TIP3    H251398   3.801   6.122   5.662  1.2047  1.2445 -1.8212
 9995TIP3   OH251399   1.898   3.627  13.576 -0.0316  0.1010 -0.2389
 9995TIP3    H151400   1.988   3.598  13.564  0.2675  0.5816  0.7581
 9995TIP3    H251401   1.892   3.651  13.669 -1.5412 -1.1299  0.0238
 9996TIP3   OH251402   4.655   5.150   2.703  0.3440  0.9567  0.1765
 9996TIP3    H151403   4.677   5.172   2.613 -1.0169  0.7307 -0.2375
 9996TIP3    H251404   4.607   5.067   2.697 -1.3054  1.8036  0.8991
 9997TIP3   OH251405   2.377   3.514   2.022  0.6626  0.3204 -0.1775
 9997TIP3    H151406   2.340   3.433   1.987  2.6915 -0.6973 -0.1168
 9997TIP3    H251407   2.471   3.503   2.013  1.1343  1.5276  2.3095
 9998TIP3   OH251408   5.685   2.814   4.795  0.1700 -0.3497 -0.4921
 9998TIP3    H151409   5.682   2.721   4.820 -0.7628 -0.3469 -0.5501
 9998TIP3    H251410   5.706   2.860   4.876  3.7531 -0.7938 -1.0296
 9999TIP3   OH251411   0.835   5.980   6.367  0.3312  0.6358  0.4125
 9999TIP3    H151412   0.877   6.041   6.427  0.3719 -0.1264  1.1934
 9999TIP3    H251413   0.837   5.896   6.414 -0.0634  0.1226 -0.4662
10000TIP3   OH251414   5.223   1.618  14.271  0.3283  0.0078 -0.0015
10000TIP3    H151415   5.190   1.552  14.332 -0.5611  0.3834 -0.0549
10000TIP3    H251416   5.164   1.612  14.196  1.0258 -0.0134 -0.5505
10001TIP3   OH251417   6.478   0.816   4.749 -0.2073 -0.3108  0.0182
10001TIP3    H151418   6.395   0.854   4.720 -0.1429 -0.9289 -1.0036
10001TIP3    H251419   6.514   0.773   4.672  1.0360 -0.1284  0.4712
10002TIP3   OH251420   5.046   0.382  16.122  0.2818  0.0940  0.1562
10002TIP3    H151421   5.119   0.379  16.061  0.8235  0.7741  0.7514
10002TIP3    H251422   5.032   0.475  16.139  0.7548 -0.1070  1.7785
10003TIP3   OH251423   3.483   0.072   2.208  0.4081  0.2256 -0.1981
10003TIP3    H151424   3.406   0.086   2.264  0.7878 -0.5881  0.5528
10003TIP3    H251425   3.558   0.086   2.266  0.8105 -0.4575 -0.5386
10004TIP3   OH251426   3.538   1.216  12.001  0.3338  0.0734  0.5918
10004TIP3    H151427   3.564   1.153  12.068 -1.6681  0.2581  1.6196
10004TIP3    H251428   3.479   1.276  12.046  1.8122  2.4746 -0.4687
10005TIP3   OH251429   1.964   2.675   3.230  0.6613  0.6687 -0.1227
10005TIP3    H151430   1.932   2.598   3.184 -1.3285  0.8411  0.8725
10005TIP3    H251431   2.045   2.699   3.184 -0.1673 -0.3453 -2.2271
10006TIP3   OH251432   4.592   1.329   5.190  0.3390 -0.3442  0.1874
10006TIP3    H151433   4.608   1.373   5.107  0.9686  0.9035  0.9394
10006TIP3    H251434   4.513   1.370   5.225 -0.5691 -1.6282 -0.2723
10007TIP3   OH251435   2.180   1.536   6.399  0.1320  0.1158 -0.4870
10007TIP3    H151436   2.102   1.532   6.455  0.8757 -1.2191  0.5013
10007TIP3    H251437   2.199   1.629   6.392 -1.6185  0.4938 -0.8797
10008TIP3   OH251438   0.333   1.611   5.833  0.4904  0.1395  0.9517
10008TIP3    H151439   0.400   1.678   5.849  0.6436  0.7081 -1.6185
10008TIP3    H251440   0.353   1.578   5.746 -1.8686 -0.5402  0.6058
10009TIP3   OH251441   4.311   4.254   1.224 -0.3440 -0.1136 -0.8034
10009TIP3    H151442   4.257   4.195   1.277 -0.8819  0.0764 -1.1304
10009TIP3    H251443   4.265   4.259   1.140 -0.1893  0.6076 -0.8489
10010TIP3   OH251444   1.050   4.517   1.047  0.5496  0.0906 -0.0969
10010TIP3    H151445   0.973   4.574   1.046 -0.9146 -1.7594  1.1496
10010TIP3    H251446   1.054   4.481   0.958  1.1573  1.6159 -0.7269
10011TIP3   OH251447   2.311   6.341   4.044 -0.1487  0.2149  0.7488
10011TIP3    H151448   2.259   6.351   4.124 -0.7869 -0.2780  0.4029
10011TIP3    H251449   2.349   6.253   4.050 -0.3316  0.1137  0.4300
10012TIP3   OH251450   5.711   6.649   5.138 -0.1811  0.2729 -0.1332
10012TIP3    H151451   5.705   6.688   5.225 -0.8070 -1.4707  0.6651
10012TIP3    H251452   5.624   6.661   5.100 -0.5024 -0.6221  0.2766
10013TIP3   OH251453   0.041   1.920  13.700 -0.0973  0.3598  0.4781
10013TIP3    H151454   0.119   1.879  13.736  0.6987  1.3675 -0.0451
10013TIP3    H251455   0.051   2.013  13.720 -0.8997  0.5810 -0.0821
10014TIP3   OH251456   4.723   2.611  12.798 -0.4021  0.2438  0.1652
10014TIP3    H151457   4.712   2.671  12.871 -0.4997 -0.8387  1.0638
10014TIP3    H251458   4.670   2.648  12.728 -0.3482  1.2664  0.6552
10015TIP3   OH251459   3.884   4.162  10.802  0.5159  0.2163  0.1436
10015TIP3    H151460   3.884   4.109  10.722  0.8613  1.0252 -0.4076
10015TIP3    H251461   3.850   4.246  10.774  1.9333  0.9557  0.5365
10016TIP3   OH251462   6.525   0.531   2.723  1.2277 -0.0089  0.6185
10016TIP3    H151463   6.569   0.610   2.691  3.1273 -1.5845 -0.8877
10016TIP3    H251464   6.498   0.485   2.643  1.0389 -1.3609  1.4341
10017TIP3   OH251465   5.817   3.721  12.349 -0.3314 -0.3046  0.0884
10017TIP3    H151466   5.786   3.632  12.338  0.1830 -0.3790 -0.8832
10017TIP3    H251467   5.839   3.750  12.261  2.4377 -0.3172  0.6811
10018TIP3   OH251468   1.254   5.514  16.508 -0.2542 -0.0217  0.6041
10018TIP3    H151469   1.348   5.520  16.525 -0.0496 -0.1684 -0.3983
10018TIP3    H251470   1.244   5.434  16.457 -0.9625 -0.1521  0.9373
10019TIP3   OH251471   3.538   5.911   2.753 -0.5536  0.4009  0.3528
10019TIP3    H151472   3.558   5.999   2.787 -0.5526  0.7665 -0.5650
10019TIP3    H251473   3.613   5.858   2.779 -0.2128  0.8428  0.2945
10020TIP3   OH251474   2.535   3.089   0.490  0.6293  0.0944  0.2521
10020TIP3    H151475   2.609   3.047   0.535  1.0642 -1.5197 -1.7872
10020TIP3    H251476   2.538   3.052   0.401 -2.1353  0.6419 -0.1387
10021TIP3   OH251477   0.846   2.656  14.641  0.6862 -0.4731 -0.0441
10021TIP3    H151478   0.850   2.689  14.731 -1.1237 -0.7562  0.1929
10021TIP3    H251479   0.790   2.719  14.595 -0.0512 -1.3789 -0.4292
10022TIP3   OH251480   4.373   6.471   5.629 -0.8815  0.4252 -0.4235
10022TIP3    H151481   4.391   6.556   5.589 -1.2400  0.3774 -0.6951
10022TIP3    H251482   4.385   6.485   5.723 -0.5375  0.6706 -0.5013
10023TIP3   OH251483   2.663   0.766  11.884 -0.3006 -0.1848 -0.0666
10023TIP3    H151484   2.638   0.770  11.792 -0.5980  1.1701  0.0515
10023TIP3    H251485   2.586   0.799  11.931 -0.5817 -1.9071  0.7734
10024TIP3   OH251486   2.914   4.555  12.160  0.3793  0.1293 -0.1700
10024TIP3    H151487   2.928   4.515  12.074  0.0367  0.3316 -0.3235
10024TIP3    H251488   2.828   4.598  12.153  0.8004  1.0135 -0.0593
10025TIP3   OH251489   1.206   5.012   0.348 -0.1787 -0.0977 -0.9451
10025TIP3    H151490   1.188   4.971   0.264 -0.9529 -1.4182 -0.1755
10025TIP3    H251491   1.163   4.955   0.412  3.4745 -1.3039  0.7101
10026TIP3   OH251492   4.076   2.900   3.475  0.3149 -0.5454  0.1337
10026TIP3    H151493   4.084   2.902   3.571 -0.5896 -1.2843  0.2347
10026TIP3    H251494   4.167   2.907   3.444  0.4808  2.4650  0.9570
10027TIP3   OH251495   2.476   5.258   3.595 -0.4863  0.0339 -0.1674
10027TIP3    H151496   2.436   5.223   3.675  0.9907  0.6629  0.9035
10027TIP3    H251497   2.414   5.325   3.565 -2.0164 -1.5465 -0.7198
10028TIP3   OH251498   1.292   1.306  16.016 -0.1645  0.4783 -0.5680
10028TIP3    H151499   1.208   1.282  16.056  0.4213 -0.3610  0.1947
10028TIP3    H251500   1.304   1.398  16.041 -0.4426  0.3497  0.0590
10029TIP3   OH251501   5.786   3.664   3.305 -0.0198 -0.3789  0.4158
10029TIP3    H151502   5.827   3.683   3.389 -0.3491  1.9110  0.1341
10029TIP3    H251503   5.782   3.749   3.260 -2.3905 -1.0076 -0.7660
10030TIP3   OH251504   6.754   3.652  11.954  0.3558 -0.2234  1.0490
10030TIP3    H151505   6.709   3.602  11.886  0.3276  0.7200  0.3505
10030TIP3    H251506   6.846   3.626  11.946  0.4434  0.2873  0.2608
10031TIP3   OH251507   3.138   4.585  15.669  0.4480 -0.2308 -0.1163
10031TIP3    H151508   3.071   4.531  15.630 -1.0236 -0.3783  2.3885
10031TIP3    H251509   3.154   4.655  15.605  0.0960 -1.8268 -2.0094
10032TIP3   OH251510   1.029   1.577  12.099 -0.6205  0.6029 -0.1219
10032TIP3    H151511   1.074   1.524  12.033 -0.0169 -0.0130  0.7485
10032TIP3    H251512   0.964   1.519  12.137 -0.3487  0.6525  0.4406
10033TIP3   OH251513   2.752   0.122   4.571  0.3659  0.7543  0.1063
10033TIP3    H151514   2.685   0.190   4.575 -0.0120  0.5066 -1.4591
10033TIP3    H251515   2.743   0.074   4.653 -0.9963  1.0790  0.1571
10034TIP3   OH251516   2.746   4.555  13.622 -0.0263 -0.3906  0.2731
10034TIP3    H151517   2.725   4.464  13.604 -1.1648 -0.3181  1.1474
10034TIP3    H251518   2.841   4.554  13.640 -0.2959 -1.7043  1.9218
10035TIP3   OH251519   3.747   2.447   2.241  0.7199  0.3744  0.4854
10035TIP3    H151520   3.680   2.514   2.232  1.0681  0.3936 -3.1141
10035TIP3    H251521   3.702   2.374   2.285 -1.3184  0.8713 -0.6452
10036TIP3   OH251522   3.772   4.593  11.234  0.3540 -0.1985 -0.1759
10036TIP3    H151523   3.711   4.519  11.230 -1.7419  1.4685 -0.4860
10036TIP3    H251524   3.736   4.657  11.173  3.7524  0.0018 -2.1993
10037TIP3   OH251525   0.313   5.938   5.104  0.5808 -0.2492 -0.3412
10037TIP3    H151526   0.403   5.935   5.137  0.6436  0.7693 -0.3998
10037TIP3    H251527   0.300   5.852   5.064  0.9683 -0.9967  1.0918
10038TIP3   OH251528   2.384   6.729   2.761 -0.7756  0.1702 -0.2285
10038TIP3    H151529   2.441   6.716   2.686  0.0049  0.1990  0.3453
10038TIP3    H251530   2.438   6.777   2.824 -1.3827  0.0610  0.3842
10039TIP3   OH251531   5.169   6.483  14.634  0.0929  0.0148  0.0812
10039TIP3    H151532   5.179   6.525  14.720 -0.6414  1.4335 -0.5025
10039TIP3    H251533   5.240   6.418  14.631  0.0599 -0.1408  1.7915
10040TIP3   OH251534   6.117   0.625  15.181 -0.1207  0.2720  0.2073
10040TIP3    H151535   6.098   0.681  15.106  2.4817 -0.2847 -1.0016
10040TIP3    H251536   6.072   0.543  15.161  1.0350 -0.0850 -1.1479
10041TIP3   OH251537   0.762   4.864   0.715  0.4349 -0.0232 -0.2373
10041TIP3    H151538   0.782   4.947   0.672  0.1003  0.5116  0.6018
10041TIP3    H251539   0.698   4.822   0.658 -1.9144  1.7965  0.8626
10042TIP3   OH251540   4.179   5.853  13.836 -0.7092  0.5571 -0.1023
10042TIP3    H151541   4.096   5.829  13.877 -0.5550 -0.3457 -0.3029
10042TIP3    H251542   4.195   5.784  13.772  0.9753 -0.1795  1.0351
10043TIP3   OH251543   2.987   2.969  11.531 -0.2063 -0.9867  0.6095
10043TIP3    H151544   2.914   2.965  11.593 -1.3140 -0.1131 -0.5719
10043TIP3    H251545   3.038   2.890  11.549 -2.3427 -2.5015  0.4068
10044TIP3   OH251546   4.879   4.711   4.100 -0.7246 -0.2674 -0.6483
10044TIP3    H151547   4.807   4.653   4.074 -0.6391 -0.5699 -0.2251
10044TIP3    H251548   4.843   4.763   4.172 -0.8303  0.2751 -1.0884
10045TIP3   OH251549   5.838   4.112  17.250  0.4745 -0.0471 -0.4269
10045TIP3    H151550   5.926   4.137  17.276  0.4479  0.7495 -1.0554
10045TIP3    H251551   5.819   4.167  17.174 -0.6806  0.0124 -0.1142
10046TIP3   OH251552   4.903   0.626   3.889 -0.5199 -0.1011 -0.4195
10046TIP3    H151553   4.885   0.624   3.795  0.3821 -2.3517 -0.6040
10046TIP3    H251554   4.941   0.713   3.904 -1.0965  0.4663 -2.0296
10047TIP3   OH251555   5.995   4.286   1.817 -0.1459  0.0317 -0.0083
10047TIP3    H151556   5.912   4.331   1.810 -0.1513  0.1690  0.8588
10047TIP3    H251557   5.973   4.193   1.809 -0.1803  0.1317 -1.3806
10048TIP3   OH251558   1.792   6.323   1.715  0.3741 -0.0415 -0.2339
10048TIP3    H151559   1.884   6.305   1.700  0.3791  0.1684 -0.4571
10048TIP3    H251560   1.752   6.237   1.728  0.6728 -0.1057  0.2828
10049TIP3   OH251561   6.182   6.405   2.314 -0.3538  0.2287 -0.4955
10049TIP3    H151562   6.168   6.377   2.404  1.6890 -0.0549 -0.2203
10049TIP3    H251563   6.210   6.326   2.268  0.3543  0.7281 -0.9513
10050TIP3   OH251564   1.645   5.563   5.621 -0.1248 -0.0145  0.3779
10050TIP3    H151565   1.563   5.612   5.629  0.2253  1.3938 -3.1665
10050TIP3    H251566   1.648   5.534   5.530  1.8304 -2.9367  1.2048
10051TIP3   OH251567   6.538   5.681   0.834 -0.5656 -0.1090  0.7692
10051TIP3    H151568   6.609   5.745   0.828 -0.2492 -0.5740 -1.8196
10051TIP3    H251569   6.581   5.597   0.850 -0.4978 -0.3727 -0.6791
10052TIP3   OH251570   1.600   2.335  11.391  0.0348 -0.6124  0.4544
10052TIP3    H151571   1.652   2.288  11.326  0.2980  0.4330 -0.1008
10052TIP3    H251572   1.509   2.327  11.360  0.3978  2.4427 -1.7773
10053TIP3   OH251573   4.431   1.076   0.652 -0.2132  0.4790 -0.5495
10053TIP3    H151574   4.461   1.058   0.741  0.4742 -1.5994 -1.1483
10053TIP3    H251575   4.345   1.116   0.663 -0.9045 -1.3143  1.0234
10054TIP3   OH251576   0.574   4.397   1.769  0.6768  1.0614 -0.2398
10054TIP3    H151577   0.585   4.469   1.830 -1.2824  0.2728  1.1717
10054TIP3    H251578   0.527   4.435   1.695  2.1680  1.8035 -0.8464
10055TIP3   OH251579   1.690   6.601  15.379 -0.3284 -0.8824 -0.0353
10055TIP3    H151580   1.683   6.509  15.354  0.1215 -1.1654  0.8194
10055TIP3    H251581   1.626   6.647  15.324 -0.1822 -1.6266 -0.8328
10056TIP3   OH251582   1.566   1.083  16.763 -0.6283  0.0779 -0.5695
10056TIP3    H151583   1.558   1.000  16.809 -0.2639  0.0865 -0.4880
10056TIP3    H251584   1.500   1.079  16.694  0.1618 -0.7769 -1.3164
10057TIP3   OH251585   5.245   4.482   0.533  0.0086  0.1263 -0.2850
10057TIP3    H151586   5.150   4.477   0.541  0.0806 -0.0027  0.5250
10057TIP3    H251587   5.260   4.497   0.439 -0.9039  3.0362 -0.0441
10058TIP3   OH251588   2.449   6.377   2.827  0.0458  0.3855  0.1030
10058TIP3    H151589   2.472   6.458   2.872  1.5598  0.6213 -1.0173
10058TIP3    H251590   2.445   6.401   2.734  0.3976 -0.7775 -0.2390
10059TIP3   OH251591   4.359   1.749   2.293 -0.7209 -0.8239  0.9172
10059TIP3    H151592   4.409   1.703   2.225 -1.9623 -1.5917  0.4873
10059TIP3    H251593   4.334   1.832   2.253  1.2493  0.1591  1.5823
10060TIP3   OH251594   5.347   3.032   3.651 -0.3491  0.0062  0.2550
10060TIP3    H151595   5.431   3.014   3.693  0.5476  0.0376 -1.4043
10060TIP3    H251596   5.296   3.077   3.718  1.9077  2.3592  0.5742
10061TIP3   OH251597   2.536   4.135  12.827  0.1225 -0.4052  0.3046
10061TIP3    H151598   2.553   4.047  12.793 -0.2831 -0.0951 -0.7215
10061TIP3    H251599   2.621   4.179  12.823 -0.1260 -0.0247 -1.3720
10062TIP3   OH251600   1.952   0.201  13.902 -0.5722 -0.2875 -1.0856
10062TIP3    H151601   1.893   0.266  13.865  1.8376  1.3558 -2.3265
10062TIP3    H251602   1.984   0.151  13.826  0.6620 -0.2072 -0.6474
10063TIP3   OH251603   2.781   6.407   4.694  0.0238 -0.0296 -0.3373
10063TIP3    H151604   2.775   6.322   4.737 -0.9033  0.8985  1.4954
10063TIP3    H251605   2.864   6.405   4.647 -0.0085 -1.9484 -0.3667
10064TIP3   OH251606   0.291   1.174   0.940  0.4609 -0.0041  0.3173
10064TIP3    H151607   0.318   1.259   0.976  0.7269  0.4886 -0.9604
10064TIP3    H251608   0.199   1.166   0.964 -0.2021  1.6922 -1.3123
10065TIP3   OH251609   2.803   0.164  14.041  0.1950  0.2368  0.1303
10065TIP3    H151610   2.721   0.178  13.994 -0.1318 -2.0677 -0.0851
10065TIP3    H251611   2.778   0.161  14.133 -0.0431 -0.9098  0.0338
10066TIP3   OH251612   5.626   4.412   0.537  0.3524  0.3273 -0.3262
10066TIP3    H151613   5.720   4.400   0.552  0.0550 -0.6835  0.8358
10066TIP3    H251614   5.620   4.443   0.447  1.7018 -1.3059 -1.0265
10067TIP3   OH251615   2.790   4.781  15.760 -0.8976  0.3684  0.2172
10067TIP3    H151616   2.712   4.815  15.803  0.3488  2.8568  0.7299
10067TIP3    H251617   2.849   4.758  15.831  0.5810  3.0595  0.0197
10068TIP3   OH251618   6.463   0.575  14.091  0.1463 -0.2491 -0.1470
10068TIP3    H151619   6.522   0.538  14.157 -0.1798 -0.2071  0.1689
10068TIP3    H251620   6.394   0.618  14.141 -0.6925 -1.1327 -0.5057
10069TIP3   OH251621   3.545   5.880   6.067  0.1366  0.3992 -0.1425
10069TIP3    H151622   3.573   5.875   6.159 -0.8059 -1.1466  0.1097
10069TIP3    H251623   3.473   5.943   6.068 -2.1400 -1.9802  0.9205
10070TIP3   OH251624   6.612   5.420   4.896  0.4896 -0.1842  0.2625
10070TIP3    H151625   6.570   5.506   4.910 -1.9166 -1.0824 -0.8605
10070TIP3    H251626   6.705   5.438   4.902  0.0499  2.0227  2.8117
10071TIP3   OH251627   1.096   5.011   5.290 -0.4049 -0.4806 -0.1866
10071TIP3    H151628   1.078   5.024   5.383  0.4652  2.3671 -0.3124
10071TIP3    H251629   1.141   5.091   5.263 -0.6691 -1.1908 -3.0897
10072TIP3   OH251630   6.283   3.662   0.233 -0.5622 -0.2607 -0.0399
10072TIP3    H151631   6.330   3.582   0.211  1.3899  1.0061 -0.7745
10072TIP3    H251632   6.207   3.633   0.283  1.1074 -2.4494  1.4073
10073TIP3   OH251633   1.287   1.096  12.661 -0.1660  0.3837  0.1841
10073TIP3    H151634   1.252   1.181  12.687  0.9446  0.5455  1.2476
10073TIP3    H251635   1.337   1.114  12.581  0.4275  0.8222  0.6485
10074TIP3   OH251636   0.950   0.283  16.910 -0.2064 -0.2443  0.1064
10074TIP3    H151637   1.007   0.285  16.987  0.7703  1.6026 -0.5879
10074TIP3    H251638   1.011   0.281  16.836 -1.1129 -0.9713 -0.6464
10075TIP3   OH251639   4.808   1.399   5.803  0.1393 -0.0474  0.0294
10075TIP3    H151640   4.739   1.334   5.815  1.1154 -0.8148  1.8840
10075TIP3    H251641   4.835   1.422   5.892  3.7409 -1.3935 -0.5576
10076TIP3   OH251642   2.767   5.468  12.082  0.0655  0.2243 -0.3646
10076TIP3    H151643   2.693   5.487  12.025  1.2000 -0.4670 -2.1497
10076TIP3    H251644   2.788   5.376  12.065 -0.2062 -0.3392  1.9960
10077TIP3   OH251645   5.037   1.274   0.289 -0.2534 -0.2002  0.2988
10077TIP3    H151646   5.101   1.301   0.355 -0.6160  0.5111  0.3700
10077TIP3    H251647   4.957   1.260   0.340 -0.2889 -0.5801  0.1380
10078TIP3   OH251648   4.002   2.959   0.907  0.1482  0.7439  0.3156
10078TIP3    H151649   3.998   2.906   0.987 -1.5474  1.9111  1.0797
10078TIP3    H251650   3.910   2.977   0.886  0.6024  3.5772  0.2795
10079TIP3   OH251651   1.808   2.136   3.707 -0.6228  0.7970 -0.1785
10079TIP3    H151652   1.882   2.196   3.717 -0.6805  0.9302 -0.5436
10079TIP3    H251653   1.732   2.194   3.694 -0.5288  0.6452 -1.5779
10080TIP3   OH251654   5.418   2.669   2.173  0.0580 -0.0346  0.7952
10080TIP3    H151655   5.411   2.756   2.213  0.4994  0.0285  0.7456
10080TIP3    H251656   5.467   2.617   2.237  0.3320 -0.0711  0.5608
10081TIP3   OH251657   3.766   6.015   1.125 -0.3058 -0.5485  0.5450
10081TIP3    H151658   3.726   5.988   1.043 -1.8196  2.0129  0.3342
10081TIP3    H251659   3.692   6.032   1.183  0.4910  2.1730  0.8751
10082TIP3   OH251660   2.095   4.116  12.525  0.0993 -0.2421 -0.4559
10082TIP3    H151661   2.061   4.157  12.605  0.4305 -0.4337 -0.2153
10082TIP3    H251662   2.111   4.025  12.549 -1.5733 -0.7981 -1.2553
10083TIP3   OH251663   5.855   4.005  16.877 -0.1805  0.0698  0.0067
10083TIP3    H151664   5.875   4.093  16.845  0.0091  0.4175  1.0389
10083TIP3    H251665   5.924   3.950  16.842 -0.3727  0.3069 -0.7544
10084TIP3   OH251666   6.187   1.520  16.267 -0.7894 -0.7671 -0.0429
10084TIP3    H151667   6.230   1.483  16.344 -0.3953 -0.2417 -0.0113
10084TIP3    H251668   6.132   1.591  16.301 -1.2517 -1.0625 -0.1532
10085TIP3   OH251669   4.075   0.773  11.535  0.1872 -0.1925 -0.1555
10085TIP3    H151670   4.145   0.750  11.474  0.4154 -1.8642  0.6696
10085TIP3    H251671   4.115   0.764  11.621 -0.6126  0.3938  0.2833
10086TIP3   OH251672   4.696   0.549  13.604 -0.4394 -0.0878  0.1250
10086TIP3    H151673   4.687   0.588  13.691  0.4774  1.2867 -0.3729
10086TIP3    H251674   4.631   0.593  13.550 -0.7223 -0.6417  0.0071
10087TIP3   OH251675   6.481   6.673  16.559  0.1231  0.1818 -0.7778
10087TIP3    H151676   6.426   6.741  16.600 -0.9899 -0.1662 -1.6497
10087TIP3    H251677   6.423   6.597  16.552  1.3302 -0.8684  0.1283
10088TIP3   OH251678   0.773   0.607   5.934 -0.2677 -0.5571 -0.2566
10088TIP3    H151679   0.843   0.568   5.986 -0.0559 -1.4233 -1.1704
10088TIP3    H251680   0.692   0.580   5.979 -0.0572  0.0706  0.5369
10089TIP3   OH251681   4.357   2.064  11.664 -0.1491 -0.1007  0.3442
10089TIP3    H151682   4.359   2.070  11.569  1.0171  1.1355  0.4243
10089TIP3    H251683   4.284   2.004  11.682 -0.1354 -0.6779 -1.3173
10090TIP3   OH251684   6.588   3.678  15.007 -0.3619  0.0097  0.0439
10090TIP3    H151685   6.513   3.714  14.959  0.4579  1.8110  0.0331
10090TIP3    H251686   6.555   3.661  15.095 -1.3757 -1.5144 -0.5791
10091TIP3   OH251687   3.181   2.542  12.295  0.1044  0.6508  0.0521
10091TIP3    H151688   3.177   2.467  12.354 -3.5449  0.1148 -0.6582
10091TIP3    H251689   3.156   2.617  12.348  0.4188  0.8067 -0.0144
10092TIP3   OH251690   4.173   0.274  16.625  0.3468 -0.4929  0.6819
10092TIP3    H151691   4.133   0.340  16.568  0.9937 -1.2518 -0.7106
10092TIP3    H251692   4.099   0.238  16.675 -0.1175  0.7342  0.9232
10093TIP3   OH251693   3.729   2.225  13.368  0.8801  0.0730 -0.5553
10093TIP3    H151694   3.815   2.262  13.346 -0.1520  0.5480 -4.5125
10093TIP3    H251695   3.686   2.213  13.284 -2.3633 -1.7119  1.1776
10094TIP3   OH251696   3.387   4.504  15.582  0.1797 -0.2067 -0.1783
10094TIP3    H151697   3.297   4.522  15.610  1.0143  1.7867  1.4530
10094TIP3    H251698   3.386   4.412  15.554 -2.0101 -0.6568  1.1912
10095TIP3   OH251699   6.332   1.158   3.221  0.2142  0.1630  0.3807
10095TIP3    H151700   6.287   1.236   3.253 -0.0080  0.8973 -1.6155
10095TIP3    H251701   6.370   1.184   3.138  1.4335 -1.4489  0.3889
10096TIP3   OH251702   3.920   4.038   0.262  0.6627 -0.0516 -0.6137
10096TIP3    H151703   3.927   3.954   0.306 -0.0245 -1.1489 -2.4925
10096TIP3    H251704   3.991   4.039   0.198 -0.1122  0.2175 -1.4928
10097TIP3   OH251705   6.707   6.637  17.079  0.2811 -0.0853 -0.1415
10097TIP3    H151706   6.624   6.684  17.082 -0.6182 -1.6282  0.4525
10097TIP3    H251707   6.737   6.635  17.170  1.3799  1.1056 -0.4498
10098TIP3   OH251708   0.823   2.694   5.695  0.1345 -0.4645 -0.0067
10098TIP3    H151709   0.863   2.740   5.621  3.3631 -0.2992  1.6719
10098TIP3    H251710   0.887   2.702   5.766 -0.7800 -4.3861  1.5169
10099TIP3   OH251711   4.159   2.991  15.336 -0.3116  0.0207 -0.1433
10099TIP3    H151712   4.162   2.931  15.411  2.0932  0.3834  0.1109
10099TIP3    H251713   4.125   2.937  15.264 -0.1399 -1.0748  0.5748
10100TIP3   OH251714   2.543   5.070   3.417 -0.2325  0.3520 -0.0137
10100TIP3    H151715   2.468   5.015   3.441  0.0446  0.2236  0.5722
10100TIP3    H251716   2.526   5.154   3.461 -0.9287  0.9491 -1.3434
10101TIP3   OH251717   5.510   4.405   2.412 -0.2923 -0.0104 -0.4183
10101TIP3    H151718   5.525   4.381   2.503 -1.0845 -2.1214 -0.7857
10101TIP3    H251719   5.418   4.431   2.409 -0.1136  0.6145 -0.5119
10102TIP3   OH251720   6.390   5.646   5.278 -0.0882  0.0453 -0.3366
10102TIP3    H151721   6.462   5.610   5.228 -0.2703  0.0913 -0.6340
10102TIP3    H251722   6.369   5.579   5.343  0.4557  0.1804 -0.0131
10103TIP3   OH251723   5.445   4.381   5.059 -0.2733 -0.3427  0.1810
10103TIP3    H151724   5.407   4.450   5.114 -0.8654 -0.3659 -0.1933
10103TIP3    H251725   5.518   4.348   5.111 -0.3588  0.1492  0.6315
10104TIP3   OH251726   5.351   1.183  15.605 -0.3460 -0.0454  0.3901
10104TIP3    H151727   5.390   1.144  15.684 -0.6413  0.3494  0.7351
10104TIP3    H251728   5.384   1.129  15.533  0.4877  0.0179  0.7115
10105TIP3   OH251729   6.008   4.148   6.186  0.3806 -0.0103  0.0571
10105TIP3    H151730   5.984   4.211   6.254 -1.1263 -0.2286 -0.2461
10105TIP3    H251731   5.927   4.131   6.139  0.7619 -2.1300  0.0695
10106TIP3   OH251732   1.579   3.627  17.318 -0.0793  0.0656 -0.0989
10106TIP3    H151733   1.665   3.645  17.356  0.8148 -1.9209 -1.0297
10106TIP3    H251734   1.527   3.592  17.391  0.8756 -1.5149 -0.1464
10107TIP3   OH251735   2.150   2.433  17.358 -0.0666  0.0154 -0.0101
10107TIP3    H151736   2.246   2.431  17.352 -0.1065 -0.4211 -0.6164
10107TIP3    H251737   2.130   2.381  17.435  0.2828  2.2683  1.7182
10108TIP3   OH251738   5.826   2.764   5.892 -1.2175 -0.1371 -0.2534
10108TIP3    H151739   5.859   2.812   5.816  0.2399  0.7035  0.8407
10108TIP3    H251740   5.731   2.762   5.881 -1.0145 -0.3649 -2.2541
10109TIP3   OH251741   2.814   5.519   5.114 -0.5122 -0.3982  0.2708
10109TIP3    H151742   2.850   5.457   5.178  0.0586 -0.6801 -0.3038
10109TIP3    H251743   2.743   5.563   5.160  0.6562  0.2740  1.4962
10110TIP3   OH251744   6.699   0.774  13.501  0.1775  0.1550 -0.3118
10110TIP3    H151745   6.662   0.693  13.535  0.1369  0.6770  0.9702
10110TIP3    H251746   6.649   0.843  13.545 -0.1308  0.8777 -1.7679
10111TIP3   OH251747   1.015   4.730   0.764 -0.4594  0.3861 -0.1646
10111TIP3    H151748   1.056   4.712   0.679 -0.8870 -2.5199  0.1537
10111TIP3    H251749   0.925   4.754   0.742 -0.5367 -0.2362 -0.5575
10112TIP3   OH251750   0.561   3.414  13.552 -0.3536  0.0762 -0.4280
10112TIP3    H151751   0.503   3.487  13.576  0.8520  0.5708  1.2115
10112TIP3    H251752   0.648   3.454  13.544  0.3193 -1.1412  0.4518
10113TIP3   OH251753   0.046   1.390   2.154  0.9186 -0.1375  0.7198
10113TIP3    H151754   0.010   1.472   2.120 -0.3976 -0.9839 -0.0009
10113TIP3    H251755   0.016   1.323   2.092  1.3842 -1.2593  1.6722
10114TIP3   OH251756   6.342   4.468  16.298 -0.0349 -0.1533 -0.5673
10114TIP3    H151757   6.414   4.528  16.276 -0.3157  0.0205 -1.0322
10114TIP3    H251758   6.367   4.385  16.260 -1.0196  0.4071 -2.5674
10115TIP3   OH251759   4.756   0.452  15.736  0.3168  0.0426 -0.1695
10115TIP3    H151760   4.826   0.468  15.673  0.0184 -0.1853 -0.5671
10115TIP3    H251761   4.781   0.501  15.813  0.8627  0.0508 -0.3480
10116TIP3   OH251762   0.435   6.311   1.338  0.6299  0.0381  0.1055
10116TIP3    H151763   0.356   6.336   1.386 -0.9194 -0.5227 -1.9846
10116TIP3    H251764   0.505   6.316   1.402 -1.1734  0.1411  2.1734
10117TIP3   OH251765   3.863   0.701   4.594  0.8126 -0.0611  0.3468
10117TIP3    H151766   3.891   0.617   4.631 -0.7760 -0.5325  0.5584
10117TIP3    H251767   3.845   0.682   4.502 -0.0085 -0.0939  0.5023
10118TIP3   OH251768   1.588   0.592  12.617 -0.3668 -0.0140 -0.0073
10118TIP3    H151769   1.617   0.679  12.646 -0.6519  0.4184 -0.9804
10118TIP3    H251770   1.529   0.610  12.543 -1.6650 -0.9576  0.7495
10119TIP3   OH251771   4.965   0.174   3.923 -0.0623  0.6813 -0.1985
10119TIP3    H151772   4.939   0.097   3.973  0.6476 -0.8012 -1.9672
10119TIP3    H251773   5.042   0.209   3.969 -0.3066  0.2541  0.5436
10120TIP3   OH251774   1.620   5.863  13.654 -0.4514  0.1449  0.6972
10120TIP3    H151775   1.557   5.932  13.634 -0.6147  0.1309  1.1423
10120TIP3    H251776   1.600   5.793  13.592 -0.5749  0.3235  0.5352
10121TIP3   OH251777   4.016   2.231   4.780 -0.3342 -0.1838  0.4642
10121TIP3    H151778   3.961   2.166   4.738 -0.3906  1.3163 -1.9929
10121TIP3    H251779   3.954   2.290   4.824 -0.5353  0.0684 -0.1444
10122TIP3   OH251780   2.712   0.263   5.796 -0.0708 -0.4890 -0.3223
10122TIP3    H151781   2.764   0.238   5.872 -0.7547 -0.7333  0.0635
10122TIP3    H251782   2.637   0.204   5.796 -2.1680  1.9770  1.0787
10123TIP3   OH251783   0.194   1.138  14.268 -0.2105  0.1917  0.0637
10123TIP3    H151784   0.207   1.124  14.175 -1.1848 -0.8482  0.0629
10123TIP3    H251785   0.101   1.159  14.277 -0.6519 -1.8392  0.9821
10124TIP3   OH251786   4.922   5.037   1.008 -0.2255 -0.0348  0.6752
10124TIP3    H151787   4.866   5.032   1.085 -0.5124 -0.8083  0.4232
10124TIP3    H251788   4.999   4.984   1.030 -0.9338 -1.4400 -0.0689
10125TIP3   OH251789   6.233   2.401  14.283  0.0956  0.1006  0.0618
10125TIP3    H151790   6.207   2.332  14.222  2.0393  0.0194 -0.7571
10125TIP3    H251791   6.257   2.475  14.226  0.3657  0.6029  0.8114
10126TIP3   OH251792   0.547   0.397   4.731 -0.1315 -0.1048 -0.0774
10126TIP3    H151793   0.486   0.456   4.775 -1.3223  0.3883 -2.2428
10126TIP3    H251794   0.627   0.448   4.720  0.9168 -0.8435  3.0275
10127TIP3   OH251795   0.828   0.139   3.217 -0.3856 -0.1652 -0.0493
10127TIP3    H151796   0.801   0.218   3.264  1.0872  0.5862 -0.4139
10127TIP3    H251797   0.894   0.169   3.154 -0.1306 -1.6130 -0.5177
10128TIP3   OH251798   2.642   3.863  16.114  0.5931 -0.3726  0.1794
10128TIP3    H151799   2.734   3.836  16.119  0.5626 -0.8431 -1.3707
10128TIP3    H251800   2.621   3.893  16.203  2.7333  1.3731  0.1778
10129TIP3   OH251801   5.775   4.446   2.546  0.3602 -0.4172  0.0062
10129TIP3    H151802   5.782   4.387   2.471  0.6073 -0.6781  0.2320
10129TIP3    H251803   5.739   4.392   2.616  2.8577 -0.9995  0.9496
10130TIP3   OH251804   5.598   3.993   2.799 -0.0801 -0.1169 -0.0845
10130TIP3    H151805   5.610   3.944   2.718  0.1403  0.4932 -0.4289
10130TIP3    H251806   5.687   4.004   2.834 -0.2798 -1.6357  1.0167
10131TIP3   OH251807   0.376   6.514  10.873  0.8801  0.1962 -0.0628
10131TIP3    H151808   0.396   6.425  10.844  1.2340  0.4644 -0.6663
10131TIP3    H251809   0.427   6.570  10.815 -0.2708  0.8420 -0.4817
10132TIP3   OH251810   1.189   0.498  12.479 -0.0102  0.3078 -0.0579
10132TIP3    H151811   1.101   0.528  12.460  0.6587  2.3859 -0.1506
10132TIP3    H251812   1.192   0.489  12.575  0.1233  1.9552  0.1311
10133TIP3   OH251813   0.455   1.377  12.100 -0.1170  0.2256  0.0010
10133TIP3    H151814   0.428   1.292  12.066  0.1567 -0.1031  0.5873
10133TIP3    H251815   0.414   1.382  12.187  0.5596  0.3179  0.3251
10134TIP3   OH251816   0.813   6.042  15.651  0.7107  0.2522 -0.3883
10134TIP3    H151817   0.833   6.037  15.558  3.3116 -0.8123  0.1643
10134TIP3    H251818   0.825   5.953  15.684 -1.4873  0.3132  0.7840
10135TIP3   OH251819   4.025   0.826   3.840 -0.2881  0.0891 -0.1293
10135TIP3    H151820   3.984   0.911   3.827 -1.2291 -0.5727 -1.9122
10135TIP3    H251821   4.006   0.803   3.931 -1.0536  1.2556  0.0207
10136TIP3   OH251822   5.592   0.429   5.798  0.1317 -0.7864  0.6087
10136TIP3    H151823   5.658   0.374   5.838 -0.1564 -1.4708  0.1586
10136TIP3    H251824   5.579   0.500   5.861  1.1878 -0.7137  0.7564
10137TIP3   OH251825   4.926   4.727  15.868  0.1532 -0.1026 -0.4188
10137TIP3    H151826   5.006   4.749  15.916  0.1732 -1.6119  0.3011
10137TIP3    H251827   4.855   4.744  15.929 -0.0246  0.3196 -0.7320
10138TIP3   OH251828   0.603   2.344   0.979 -0.2270 -0.0682 -0.4260
10138TIP3    H151829   0.684   2.379   1.016 -0.3984  1.2876 -1.2548
10138TIP3    H251830   0.554   2.312   1.054  1.4749 -1.8926  0.0094
10139TIP3   OH251831   4.786   4.478  11.613  0.3329  0.2568 -0.0061
10139TIP3    H151832   4.880   4.463  11.606 -0.0374 -2.3152 -0.6318
10139TIP3    H251833   4.763   4.527  11.534  0.9441 -0.5226 -0.6868
10140TIP3   OH251834   4.149   4.868   3.151  0.2198  0.0687  0.2798
10140TIP3    H151835   4.062   4.829   3.138  0.2317  0.0820  0.1600
10140TIP3    H251836   4.204   4.796   3.181  0.9504 -0.6961 -2.5744
10141TIP3   OH251837   0.997   3.152   1.244 -0.1990  0.2302  0.4196
10141TIP3    H151838   0.902   3.148   1.251 -0.2123  0.8297  0.6147
10141TIP3    H251839   1.028   3.071   1.283 -0.7421 -1.1844 -1.9247
10142TIP3   OH251840   1.648   2.636   3.681 -0.1950  0.7447  0.1360
10142TIP3    H151841   1.563   2.638   3.727 -1.3261  0.0791 -1.8217
10142TIP3    H251842   1.657   2.724   3.645  0.0855  0.8950  0.5688
10143TIP3   OH251843   3.457   4.344   0.232  0.2556  0.2541  0.3934
10143TIP3    H151844   3.394   4.412   0.212 -3.5024 -3.4536 -2.1798
10143TIP3    H251845   3.514   4.341   0.155  0.4239  0.5068  0.5088
10144TIP3   OH251846   6.283   3.840  16.804  0.1326  0.0961 -0.2628
10144TIP3    H151847   6.256   3.820  16.894 -1.7808  1.6948 -0.3979
10144TIP3    H251848   6.322   3.928  16.810 -2.5573  1.4663 -1.3060
10145TIP3   OH251849   6.179   6.634  14.584 -0.1217  0.0477 -0.1475
10145TIP3    H151850   6.123   6.649  14.660 -0.9294  1.7613 -1.0338
10145TIP3    H251851   6.169   6.540  14.566 -1.9350  0.1057  0.3171
10146TIP3   OH251852   4.421   1.392   4.871 -0.2069  0.1579  0.1736
10146TIP3    H151853   4.512   1.379   4.898 -0.4560 -1.5212  0.2885
10146TIP3    H251854   4.425   1.463   4.806  1.4186 -1.0771 -1.1406
10147TIP3   OH251855   4.946   6.623   5.733 -0.1672 -0.2871  0.4236
10147TIP3    H151856   5.023   6.631   5.677 -0.0895  0.2075  0.5926
10147TIP3    H251857   4.900   6.707   5.722  0.4726  0.3047  2.0079
10148TIP3   OH251858   2.369   2.715   5.388 -0.3562 -0.2545  0.1122
10148TIP3    H151859   2.352   2.808   5.404  0.3808  0.2058 -1.6502
10148TIP3    H251860   2.463   2.704   5.402 -0.4890 -0.8355  0.6527
10149TIP3   OH251861   5.229   2.552  14.206 -0.0521  0.3227  0.1155
10149TIP3    H151862   5.198   2.461  14.203  1.1825 -0.0857 -1.4876
10149TIP3    H251863   5.287   2.560  14.130  2.3047  1.5625  1.9236
10150TIP3   OH251864   3.604   3.502  12.055  0.2463 -0.0767  0.3932
10150TIP3    H151865   3.556   3.429  12.015 -0.7813 -1.4294  3.6956
10150TIP3    H251866   3.695   3.488  12.029 -0.3786 -0.5826 -1.6865
10151TIP3   OH251867   2.478   6.666   5.077 -0.2632  0.3751  0.1801
10151TIP3    H151868   2.458   6.757   5.055  0.7220  0.4375 -0.5468
10151TIP3    H251869   2.564   6.670   5.118 -0.0304 -0.2718 -0.2319
10152TIP3   OH251870   2.983   1.571  16.279  0.1717  0.1428  0.1343
10152TIP3    H151871   3.036   1.529  16.211  0.5261  1.8927 -0.7052
10152TIP3    H251872   3.011   1.528  16.361  2.3564  0.4979 -0.3633
10153TIP3   OH251873   0.850   0.737   4.429 -0.1984  0.4068 -0.1162
10153TIP3    H151874   0.879   0.646   4.438 -0.5315  0.4492  2.2898
10153TIP3    H251875   0.916   0.787   4.476 -1.0378  1.1568  0.3030
10154TIP3   OH251876   3.453   3.702  11.431 -0.2721 -0.1896  0.4915
10154TIP3    H151877   3.437   3.612  11.402  0.0701 -0.3062  0.6541
10154TIP3    H251878   3.441   3.755  11.352  0.8496 -0.5310  0.0721
10155TIP3   OH251879   3.708   0.792  17.216 -0.6047  0.3914  0.4246
10155TIP3    H151880   3.662   0.708  17.211 -0.8211  0.4302  1.6344
10155TIP3    H251881   3.789   0.772  17.263  0.1401  0.5409 -0.7510
10156TIP3   OH251882   3.328   0.412   2.859 -0.6416 -0.2069  0.3913
10156TIP3    H151883   3.324   0.508   2.850  0.3982 -0.2876 -1.4233
10156TIP3    H251884   3.243   0.388   2.896 -0.7846  1.4384  1.2573
10157TIP3   OH251885   2.727   0.124   1.889  0.2342 -0.5389  0.5676
10157TIP3    H151886   2.646   0.156   1.930  0.6113  1.7869 -0.3506
10157TIP3    H251887   2.782   0.097   1.963  0.0622  1.4797  1.4851
10158TIP3   OH251888   6.019   2.130   0.565 -0.1214  0.4225 -0.6064
10158TIP3    H151889   5.925   2.138   0.578  0.0266  0.6337  0.4015
10158TIP3    H251890   6.057   2.169   0.644  0.7993 -0.5090 -0.5728
10159TIP3   OH251891   2.515   2.800  16.458 -0.1112  0.6095 -0.1436
10159TIP3    H151892   2.483   2.790  16.547 -0.6903  0.8856 -0.3166
10159TIP3    H251893   2.469   2.876  16.424  1.3544  1.5363 -0.1360
10160TIP3   OH251894   4.133   5.349  14.292  0.3015 -0.0740 -0.1909
10160TIP3    H151895   4.183   5.344  14.210  2.0570 -1.0343  0.8620
10160TIP3    H251896   4.195   5.319  14.359 -1.3328 -0.0837  1.3876
10161TIP3   OH251897   5.174   5.874   2.542  0.1138 -0.7924 -0.1313
10161TIP3    H151898   5.263   5.905   2.552  0.5427 -1.7630 -0.7582
10161TIP3    H251899   5.154   5.829   2.624  0.5615 -1.4175 -0.3576
10162TIP3   OH251900   1.472   0.002  11.448 -0.6284  0.0616  0.1176
10162TIP3    H151901   1.511  -0.084  11.429 -0.2240  0.2593  0.0613
10162TIP3    H251902   1.446  -0.004  11.540  1.1668  0.5532  0.6901
10163TIP3   OH251903   5.598   2.780  12.852 -0.5076  0.3308  0.0588
10163TIP3    H151904   5.510   2.770  12.814 -1.0318  0.0565  1.2904
10163TIP3    H251905   5.632   2.860  12.813 -0.8156 -0.1992 -1.3569
10164TIP3   OH251906   1.241   4.193   2.014 -0.4806 -0.0266  0.2364
10164TIP3    H151907   1.258   4.205   2.107 -0.4657  0.1035  0.2174
10164TIP3    H251908   1.326   4.167   1.978 -0.2300  0.9240  0.0906
10165TIP3   OH251909   6.474   4.632   3.634 -0.2136  0.1335 -0.0443
10165TIP3    H151910   6.379   4.620   3.644 -0.4469 -0.3402 -2.3412
10165TIP3    H251911   6.483   4.685   3.555  1.4268  1.6150  1.0488
10166TIP3   OH251912   5.046   2.253   2.050 -0.3463 -0.0612  0.2959
10166TIP3    H151913   5.053   2.283   2.140  0.4167  2.0084 -0.3979
10166TIP3    H251914   4.952   2.262   2.029 -0.1925  1.6722  0.2102
10167TIP3   OH251915   2.213   3.093  12.782  0.3220  1.0836  0.5175
10167TIP3    H151916   2.135   3.044  12.804  0.6422  0.3413  0.0295
10167TIP3    H251917   2.185   3.154  12.714  1.0936 -2.4964 -3.4009
10168TIP3   OH251918   1.622   4.123   0.684  0.0756  0.4281  0.6574
10168TIP3    H151919   1.621   4.050   0.745  0.7450 -0.9289 -0.8868
10168TIP3    H251920   1.714   4.144   0.672 -0.0568  0.7838  0.2238
10169TIP3   OH251921   4.129   5.968  12.087 -0.1628  0.1743  0.3604
10169TIP3    H151922   4.124   5.918  12.169  0.5896 -0.9584 -0.2604
10169TIP3    H251923   4.222   5.983  12.073 -0.2814  0.3555 -0.2794
10170TIP3   OH251924   6.037   4.307  16.870  0.3492  0.2594 -0.0753
10170TIP3    H151925   5.963   4.314  16.809  1.5565  2.1459 -1.4356
10170TIP3    H251926   6.112   4.288  16.815  1.1128 -0.3302  1.1311
10171TIP3   OH251927   2.192   0.394   1.003 -0.7508 -0.2759 -0.1485
10171TIP3    H151928   2.129   0.376   0.933  1.4711  1.5306 -2.8070
10171TIP3    H251929   2.176   0.485   1.028  1.0038  0.3407 -1.1530
10172TIP3   OH251930   4.649   2.523   5.815  0.1039  0.1692 -0.6176
10172TIP3    H151931   4.619   2.544   5.903  1.9629 -0.2243  0.1508
10172TIP3    H251932   4.655   2.607   5.770 -1.9015  0.2799 -0.7749
10173TIP3   OH251933   0.012   2.353   4.467 -0.5812  0.0696 -0.1838
10173TIP3    H151934  -0.056   2.286   4.476 -1.8984  1.3199 -0.4381
10173TIP3    H251935   0.079   2.313   4.411 -0.4693 -1.6373  1.0700
10174TIP3   OH251936   4.558   1.296   1.502  0.2177 -0.1749 -0.2220
10174TIP3    H151937   4.551   1.213   1.455  0.0220 -1.1895  1.5099
10174TIP3    H251938   4.540   1.363   1.436  1.3092 -1.4301 -1.8794
10175TIP3   OH251939   1.926   0.599   3.967 -0.2622  0.0909 -0.1751
10175TIP3    H151940   1.875   0.521   3.989 -1.0861  0.7612  0.3359
10175TIP3    H251941   1.861   0.660   3.931  0.2515  0.8169  0.1251
10176TIP3   OH251942   6.614   3.119   3.390  0.6390 -0.4184  0.0485
10176TIP3    H151943   6.643   3.030   3.411 -0.1115 -1.0415 -1.3728
10176TIP3    H251944   6.557   3.108   3.314  0.2357  1.2519  0.0678
10177TIP3   OH251945   2.643   1.648  16.364 -0.5480 -0.5676 -0.1682
10177TIP3    H151946   2.710   1.640  16.297 -0.4067 -1.1031  0.0327
10177TIP3    H251947   2.666   1.729  16.411  1.2812 -1.8556  1.3104
10178TIP3   OH251948   6.446   0.913   5.233 -0.1150  0.3196  0.0473
10178TIP3    H151949   6.436   0.848   5.303 -0.8909 -0.8126 -1.0830
10178TIP3    H251950   6.483   0.865   5.160 -0.4790  1.2105 -0.7427
10179TIP3   OH251951   4.170   1.319  13.452 -0.0079 -0.5725 -0.3202
10179TIP3    H151952   4.259   1.284  13.455 -0.2003 -1.0270  0.6821
10179TIP3    H251953   4.174   1.393  13.392  1.5854  0.8660  1.4382
10180TIP3   OH251954   0.392   4.831   3.787  0.1267 -0.1691  0.6435
10180TIP3    H151955   0.313   4.886   3.778 -1.4139 -2.4618 -0.9731
10180TIP3    H251956   0.393   4.778   3.708  3.5978  0.0085  0.4105
10181TIP3   OH251957   6.273   0.689   0.073 -0.0944  0.4656 -0.1840
10181TIP3    H151958   6.200   0.715   0.129  0.2236 -0.4167  0.6815
10181TIP3    H251959   6.232   0.650  -0.004 -0.5407  0.1301  0.2161
10182TIP3   OH251960   5.603   1.456  15.155 -0.2313  0.3958 -0.1896
10182TIP3    H151961   5.549   1.470  15.233  0.7326 -0.5791  0.6951
10182TIP3    H251962   5.687   1.427  15.189 -0.3659 -1.9822 -1.6281
10183TIP3   OH251963   0.772   1.290  16.944  0.9206 -0.1538 -0.4435
10183TIP3    H151964   0.712   1.292  17.019  0.5734  1.4943 -0.7253
10183TIP3    H251965   0.790   1.197  16.930 -0.4954 -0.6038  0.5116
10184TIP3   OH251966   4.570   6.011  11.885 -0.3235 -0.0275 -0.4366
10184TIP3    H151967   4.554   6.099  11.853  0.0509 -0.2301 -1.1982
10184TIP3    H251968   4.561   5.955  11.808  0.6432 -0.5119 -0.2216
10185TIP3   OH251969   4.925   2.013  12.041  0.4314  0.2698 -0.0280
10185TIP3    H151970   4.950   1.939  11.985 -0.2244  0.2922 -0.3594
10185TIP3    H251971   4.987   2.010  12.114 -0.2661 -1.2821  0.5478
10186TIP3   OH251972   4.819   4.499   2.820  0.0183 -0.5656  0.1610
10186TIP3    H151973   4.862   4.429   2.868  0.7553 -0.5298 -0.4258
10186TIP3    H251974   4.780   4.456   2.744  1.9613 -0.1204 -1.1396
10187TIP3   OH251975   0.511   1.468   5.038 -0.4735  0.3992 -0.2249
10187TIP3    H151976   0.423   1.488   5.005 -0.6786  0.5441  0.4015
10187TIP3    H251977   0.568   1.527   4.989 -0.5667 -0.5328 -1.5133
10188TIP3   OH251978   6.200   3.596   3.665  0.8056 -0.0736  0.1042
10188TIP3    H151979   6.231   3.658   3.599 -0.3906  0.2557 -0.1732
10188TIP3    H251980   6.222   3.636   3.749  1.2997  0.0550 -0.0867
10189TIP3   OH251981   1.582   3.739  12.102  0.0211  0.6632 -0.3686
10189TIP3    H151982   1.577   3.647  12.075 -0.3025  0.7084 -0.4721
10189TIP3    H251983   1.491   3.770  12.097  0.2596  1.2618 -1.3279
10190TIP3   OH251984   0.686   6.676  13.877 -0.2274 -0.6080 -0.3569
10190TIP3    H151985   0.616   6.718  13.927 -0.4110 -0.1909 -0.9552
10190TIP3    H251986   0.753   6.656  13.943 -0.4984 -0.1398  0.0716
10191TIP3   OH251987   4.750   4.542  17.292  0.2435 -0.1087 -0.2256
10191TIP3    H151988   4.680   4.479  17.307  0.1336  0.3057  1.1658
10191TIP3    H251989   4.785   4.561  17.380 -0.3122  2.3922 -0.4476
10192TIP3   OH251990   6.712   5.873  17.008  0.0429 -0.0881 -0.1409
10192TIP3    H151991   6.642   5.915  16.958  0.3951 -0.4418 -0.9517
10192TIP3    H251992   6.766   5.830  16.942  2.3440  2.0396  0.2128
10193TIP3   OH251993   2.704   0.650  16.889 -0.1202 -0.2609 -0.5871
10193TIP3    H151994   2.647   0.721  16.859 -1.2695 -0.9119 -0.0287
10193TIP3    H251995   2.644   0.586  16.926  1.1699  0.5189  3.2587
10194TIP3   OH251996   6.116   0.706   6.149 -0.0526  0.2481 -0.0663
10194TIP3    H151997   6.113   0.614   6.123 -2.3996 -0.5004  2.3632
10194TIP3    H251998   6.194   0.741   6.105  0.9494 -2.8690 -1.0516
10195TIP3   OH251999   3.603   3.056   4.858 -0.2418  0.2785  0.5674
10195TIP3    H152000   3.556   3.112   4.797  0.5283  1.5340  1.0841
10195TIP3    H252001   3.539   2.989   4.884 -1.0356  0.6425 -0.4179
10196TIP3   OH252002   0.827   2.783  14.178 -0.2904 -0.6076 -0.0891
10196TIP3    H152003   0.752   2.742  14.135 -1.1027 -0.2326  0.9244
10196TIP3    H252004   0.857   2.717  14.241  0.3326 -0.8084 -0.5841
10197TIP3   OH252005   3.938   2.816   5.554  0.5212 -0.0296 -0.5891
10197TIP3    H152006   3.882   2.839   5.628  0.7811  2.2924 -1.0364
10197TIP3    H252007   3.879   2.814   5.479  0.1606 -2.9117 -0.3238
10198TIP3   OH252008   6.511   1.984   2.437 -0.1263  0.1533  0.7763
10198TIP3    H152009   6.435   1.943   2.477  0.1012 -1.9869 -0.8203
10198TIP3    H252010   6.497   2.078   2.449 -1.4066 -0.2800  3.3043
10199TIP3   OH252011   0.357   0.165   4.250 -0.0974 -0.2108 -0.5495
10199TIP3    H152012   0.434   0.111   4.234 -0.2248 -0.5332 -0.1099
10199TIP3    H252013   0.295   0.139   4.182 -0.1687 -0.6386 -0.3199
10200TIP3   OH252014   3.397   0.442   1.733  0.1842  0.3241 -0.1900
10200TIP3    H152015   3.321   0.393   1.763  0.2361  0.9591  1.0535
10200TIP3    H252016   3.443   0.467   1.814 -0.2316  3.0152 -0.6969
10201TIP3   OH252017   3.552   5.682   3.322 -0.0624 -0.1117 -0.4524
10201TIP3    H152018   3.632   5.726   3.292 -0.6331 -0.0886 -1.9793
10201TIP3    H252019   3.503   5.752   3.366  1.3268 -0.4235  1.7592
10202TIP3   OH252020   1.631   0.262   1.216  0.1127 -0.1854  0.2001
10202TIP3    H152021   1.560   0.283   1.156 -0.6508 -1.4922  0.5968
10202TIP3    H252022   1.672   0.185   1.179  0.1346 -0.5356  0.9255
10203TIP3   OH252023   2.647   4.299  13.615  0.0012 -0.3409  0.1843
10203TIP3    H152024   2.566   4.344  13.638  0.7568  0.8389  0.6253
10203TIP3    H252025   2.685   4.273  13.699  0.8964  0.6240  0.1040
10204TIP3   OH252026   0.815   1.494   0.859 -0.2713 -0.2728 -0.5703
10204TIP3    H152027   0.872   1.535   0.794  0.3762 -0.2458  0.0060
10204TIP3    H252028   0.851   1.521   0.943 -0.4256 -1.2131 -0.1904
10205TIP3   OH252029   1.239   4.400   1.399  0.3447  0.2763 -0.8123
10205TIP3    H152030   1.198   4.436   1.478 -3.2654 -2.7846 -1.0032
10205TIP3    H252031   1.311   4.347   1.432 -0.5329 -0.2152  0.3804
10206TIP3   OH252032   4.875   3.676  11.195 -0.2450  0.4537  0.0258
10206TIP3    H152033   4.838   3.636  11.273  0.2402  0.3976  0.2299
10206TIP3    H252034   4.950   3.727  11.227  0.4284 -0.1938 -0.4933
10207TIP3   OH252035   5.573   4.163  15.661 -0.6238  0.3506 -0.2930
10207TIP3    H152036   5.517   4.215  15.719  2.0110  1.9171  1.0336
10207TIP3    H252037   5.622   4.228  15.611  0.7161 -0.9315 -0.7030
10208TIP3   OH252038   5.566   0.040  15.031  0.1889  0.0024 -0.6268
10208TIP3    H152039   5.518  -0.040  15.010 -0.8824 -0.1227  1.8238
10208TIP3    H252040   5.655   0.011  15.050  0.2746 -0.3328 -1.5165
10209TIP3   OH252041   5.208   2.111  12.119  0.3350 -0.3993 -0.3311
10209TIP3    H152042   5.211   2.065  12.035 -0.8483  0.2756 -0.7729
10209TIP3    H252043   5.250   2.195  12.102 -0.9089  0.1973 -0.5834
10210TIP3   OH252044   5.536   4.800   2.355 -0.2082  0.5526 -0.2290
10210TIP3    H152045   5.627   4.822   2.335 -0.4019  0.4744 -1.2814
10210TIP3    H252046   5.540   4.750   2.437  0.8095 -0.4062 -0.8385
10211TIP3   OH252047   2.405   2.373   1.696 -0.3681  1.3078  0.0285
10211TIP3    H152048   2.413   2.423   1.777  0.2795  2.6300 -0.8030
10211TIP3    H252049   2.362   2.292   1.722 -1.7018  2.3801  1.4114
10212TIP3   OH252050   5.889   3.982   5.896  0.3451 -0.7499  0.1140
10212TIP3    H152051   5.820   4.022   5.949  1.5993  1.7897  0.0285
10212TIP3    H252052   5.909   3.899   5.940 -1.5073 -0.7057  1.1442
10213TIP3   OH252053   2.344   5.938  15.643 -0.2359 -0.5034 -0.2662
10213TIP3    H152054   2.358   6.032  15.635 -0.8254 -0.4855 -1.2457
10213TIP3    H252055   2.321   5.925  15.735 -1.8113  0.5610 -0.4714
10214TIP3   OH252056   4.489   2.643  13.950 -0.2511 -0.6105 -0.4202
10214TIP3    H152057   4.558   2.666  13.888 -0.3917 -0.2672 -0.4537
10214TIP3    H252058   4.434   2.581  13.903 -0.1912 -0.5768 -0.5359
10215TIP3   OH252059   3.284   1.149   3.369 -0.3521  0.3545  0.4154
10215TIP3    H152060   3.356   1.092   3.396 -0.4368  1.5521  3.6098
10215TIP3    H252061   3.206   1.106   3.403 -0.3215  2.6807  4.0066
10216TIP3   OH252062   0.249   5.529   5.448 -0.4900  0.0409  0.5008
10216TIP3    H152063   0.307   5.456   5.468  0.2059  0.4497  0.0135
10216TIP3    H252064   0.305   5.592   5.401 -1.4473  0.2380 -0.3918
10217TIP3   OH252065   6.202   1.961  10.459  0.5870  0.2012  0.0295
10217TIP3    H152066   6.236   1.987  10.545 -1.9440  0.5633  1.0051
10217TIP3    H252067   6.195   1.866  10.463 -0.0584  0.2628  0.4539
10218TIP3   OH252068   1.982   2.290  15.230 -0.0809  0.9859  0.0710
10218TIP3    H152069   1.975   2.261  15.321 -1.2784  0.4508 -0.1808
10218TIP3    H252070   1.900   2.336  15.212 -0.8397 -0.8042 -1.3780
10219TIP3   OH252071   0.358   2.367  14.386 -0.4279 -0.6289  0.3452
10219TIP3    H152072   0.335   2.280  14.420 -0.3121 -0.8800 -0.2063
10219TIP3    H252073   0.278   2.398  14.343 -0.8938  0.1256  1.7009
10220TIP3   OH252074   0.298   3.640   3.727  0.2676 -0.6650  0.1453
10220TIP3    H152075   0.300   3.633   3.631 -1.8724 -2.0050  0.1405
10220TIP3    H252076   0.244   3.567   3.756 -2.0408  1.6082  2.1123
10221TIP3   OH252077   0.267   0.604   0.687 -0.0899 -0.0106  0.3926
10221TIP3    H152078   0.174   0.623   0.673 -0.7775 -1.9794  1.7763
10221TIP3    H252079   0.298   0.571   0.602 -0.4440  1.3241 -0.2754
10222TIP3   OH252080   0.979   4.896   2.584  0.4265  0.5743  0.2966
10222TIP3    H152081   0.900   4.841   2.584  0.3481  0.6161 -1.9466
10222TIP3    H252082   1.017   4.882   2.671 -1.0406 -0.9204  0.7603
10223TIP3   OH252083   3.386   1.439  14.006 -0.4289  0.2333  0.0842
10223TIP3    H152084   3.376   1.349  13.977  1.2164  0.2485 -0.5767
10223TIP3    H252085   3.305   1.482  13.977 -0.3015 -0.5279 -1.4912
10224TIP3   OH252086   5.521   1.386  12.553 -0.3133 -0.4355  0.1105
10224TIP3    H152087   5.476   1.309  12.519 -0.5537  0.5153 -1.8842
10224TIP3    H252088   5.457   1.457  12.546  0.6986  0.4567 -0.5528
10225TIP3   OH252089   5.679   3.890   5.454 -0.3290 -0.2390  0.5253
10225TIP3    H152090   5.768   3.914   5.482 -0.1695 -0.5843  0.3178
10225TIP3    H252091   5.625   3.902   5.533  0.1914 -1.6164  1.1158
10226TIP3   OH252092   0.119   0.342   4.697 -1.2008  0.0591 -0.2856
10226TIP3    H152093   0.174   0.310   4.625 -1.1680 -0.5756  0.0152
10226TIP3    H252094   0.045   0.384   4.653 -0.5688  0.7649 -0.6906
10227TIP3   OH252095   2.306   1.771   3.676 -0.2548  0.0788  0.0232
10227TIP3    H152096   2.276   1.855   3.712  1.1387  1.2296 -1.3629
10227TIP3    H252097   2.314   1.787   3.582  3.4481 -0.4448  0.1088
10228TIP3   OH252098   6.051   2.859  15.798  0.4726  0.2287  0.4157
10228TIP3    H152099   6.068   2.807  15.719  1.4104  2.4939 -0.9692
10228TIP3    H252100   6.009   2.798  15.858  0.7914 -1.8968 -1.3925
10229TIP3   OH252101   3.457   3.181   5.279 -0.0327 -0.7540 -0.5487
10229TIP3    H152102   3.450   3.241   5.353  1.4622  0.2090 -1.1524
10229TIP3    H252103   3.472   3.095   5.319 -1.7416 -0.6882  0.3024
10230TIP3   OH252104   3.312   1.205  14.558  0.3456  0.3500  0.0426
10230TIP3    H152105   3.280   1.185  14.646  0.1867  0.6170  0.0446
10230TIP3    H252106   3.404   1.230  14.571  0.8565 -1.3180 -0.0637
10231TIP3   OH252107   5.287   0.976   3.413 -0.1283  0.3971 -0.1124
10231TIP3    H152108   5.367   0.944   3.456  0.0860 -0.2289 -0.9469
10231TIP3    H252109   5.295   0.946   3.322 -0.8855  1.1216 -0.4294
10232TIP3   OH252110   2.327   0.939   2.940  0.3176 -0.4138 -0.1395
10232TIP3    H152111   2.304   0.850   2.968  0.5988 -0.9130 -1.4374
10232TIP3    H252112   2.406   0.960   2.990 -0.7673 -0.1627  1.5349
10233TIP3   OH252113   1.733   0.631  16.478 -0.0546 -0.1319 -0.4702
10233TIP3    H152114   1.811   0.646  16.425 -0.4334 -1.4809 -1.4369
10233TIP3    H252115   1.767   0.604  16.564  0.5389  0.2220 -0.5902
10234TIP3   OH252116   0.769   0.013  12.501  0.6813 -0.3763  0.4354
10234TIP3    H152117   0.678   0.000  12.530  0.8241 -0.3118  0.9313
10234TIP3    H252118   0.821  -0.034  12.566  0.9611 -1.1211 -0.3300
10235TIP3   OH252119   1.052   5.282   4.571 -0.6823 -0.3135  0.2166
10235TIP3    H152120   1.124   5.224   4.545 -1.4216 -0.6950 -1.0203
10235TIP3    H252121   1.052   5.352   4.506 -2.2939 -1.0577 -0.6280
10236TIP3   OH252122   2.845   3.356  15.716  0.1158 -0.6997 -0.3638
10236TIP3    H152123   2.833   3.361  15.621  1.5941 -0.0266 -0.5447
10236TIP3    H252124   2.764   3.316  15.748 -2.8049  3.6912 -1.3500
10237TIP3   OH252125   3.082   1.420  16.069 -0.4345  0.5722 -0.0710
10237TIP3    H152126   3.020   1.436  15.998  0.5538  1.5487 -0.7562
10237TIP3    H252127   3.159   1.383  16.025 -0.3093 -0.0948  0.6874
10238TIP3   OH252128   5.241   3.938  16.760 -0.0660  0.2888 -0.1993
10238TIP3    H152129   5.285   3.890  16.689  0.3616  0.5190 -0.0953
10238TIP3    H252130   5.174   3.990  16.717 -0.0956  0.0963 -0.3881
10239TIP3   OH252131   6.731   1.202  11.548  0.2867 -0.0800  0.2960
10239TIP3    H152132   6.802   1.263  11.529  0.5465 -0.3370  0.4393
10239TIP3    H252133   6.652   1.248  11.521  0.3177  0.9600  1.8293
10240TIP3   OH252134   1.708   2.319   3.199 -0.0069  0.4622  0.3131
10240TIP3    H152135   1.734   2.349   3.286  0.8843 -0.8723  0.5163
10240TIP3    H252136   1.621   2.281   3.212  0.8511 -1.3368  0.9859
10241TIP3   OH252137   3.011   1.252  12.337 -0.4791  0.7002  0.1959
10241TIP3    H152138   3.053   1.233  12.253  1.9682 -1.2511  1.7140
10241TIP3    H252139   2.928   1.205  12.333  0.2623 -0.6034 -0.6160
10242TIP3   OH252140   1.053   0.955   0.884 -0.1041  0.0603  0.1783
10242TIP3    H152141   0.961   0.968   0.858 -0.2858 -0.9921  0.2183
10242TIP3    H252142   1.057   0.983   0.975 -0.4176 -0.0023  0.2122
10243TIP3   OH252143   4.431   0.471  16.353  0.1192  0.0821  0.3651
10243TIP3    H152144   4.419   0.566  16.357  1.3980  0.2535  0.6992
10243TIP3    H252145   4.496   0.452  16.421  0.4236 -0.9280 -0.1861
10244TIP3   OH252146   1.348   6.198   2.962 -0.4663  0.0480  0.1113
10244TIP3    H152147   1.417   6.132   2.952 -0.9173 -0.3534 -0.4148
10244TIP3    H252148   1.274   6.150   2.998 -2.3559 -0.8705 -4.2515
10245TIP3   OH252149   1.423   0.379  11.938  0.7528 -0.7170  0.1052
10245TIP3    H152150   1.358   0.339  11.996  0.1463  1.1356  0.7662
10245TIP3    H252151   1.467   0.444  11.993  1.2085  0.0349 -1.1137
10246TIP3   OH252152   5.076   5.594  13.009  0.0673  0.0300  0.2149
10246TIP3    H152153   5.004   5.545  13.049  0.5951  0.0860  1.2678
10246TIP3    H252154   5.046   5.685  13.008  0.8368  0.3695  2.4497
10247TIP3   OH252155   5.424   1.175   2.615  0.3431 -0.0061  0.2919
10247TIP3    H152156   5.360   1.205   2.679  1.9242  0.5478  1.6689
10247TIP3    H252157   5.434   1.081   2.632 -1.0151 -0.3992 -0.8147
10248TIP3   OH252158   4.692   0.485  11.828 -0.1127  0.0843 -0.3061
10248TIP3    H152159   4.670   0.488  11.735  0.1893  0.0697 -0.3775
10248TIP3    H252160   4.782   0.454  11.831  0.1714  0.9145 -0.0523
10249TIP3   OH252161   3.124   5.197  16.681  0.0411 -0.2173  0.5475
10249TIP3    H152162   3.218   5.204  16.697  0.2516 -1.3681 -0.0872
10249TIP3    H252163   3.103   5.274  16.629  1.2279 -1.3488 -1.7702
10250TIP3   OH252164   2.418   6.734  16.004 -0.2488 -0.6453 -0.1068
10250TIP3    H152165   2.488   6.757  16.065  0.7082  1.0446 -1.7496
10250TIP3    H252166   2.453   6.660  15.954  0.3409  0.1278 -0.8519
10251TIP3   OH252167   0.359   5.747  13.956  0.5334  0.5966  0.1078
10251TIP3    H152168   0.445   5.788  13.943  0.7054  0.0883 -0.4157
10251TIP3    H252169   0.361   5.668  13.901 -0.3859  0.7485 -0.1710
10252TIP3   OH252170   0.875   4.220   4.004  0.6139 -0.1189  0.1760
10252TIP3    H152171   0.862   4.254   4.092  0.1355  2.5291 -0.8420
10252TIP3    H252172   0.883   4.297   3.949 -0.1345 -1.6775 -2.2762
10253TIP3   OH252173   5.037   1.771  12.598 -0.6126 -0.3703 -0.9157
10253TIP3    H152174   5.052   1.703  12.664  0.3781  1.2054  0.5671
10253TIP3    H252175   4.948   1.802  12.615 -0.7786 -0.7479 -1.0823
10254TIP3   OH252176   4.321   1.071   2.244 -0.1205  0.2293  0.1979
10254TIP3    H152177   4.342   1.052   2.335  1.2244  2.7389  0.5095
10254TIP3    H252178   4.231   1.040   2.232 -0.3116 -0.1538  2.3605
10255TIP3   OH252179   1.841   3.479  14.328 -0.6185  0.1116 -0.7875
10255TIP3    H152180   1.834   3.566  14.289  0.2700  0.1548 -0.8842
10255TIP3    H252181   1.936   3.465  14.338 -0.7906 -0.1059  0.8748
10256TIP3   OH252182   6.225   4.556   1.151  0.1848 -0.4463 -0.3598
10256TIP3    H152183   6.279   4.635   1.148  0.8328 -0.9076 -2.7952
10256TIP3    H252184   6.285   4.487   1.179 -0.1470 -0.2893  0.8020
10257TIP3   OH252185   6.158   4.775   5.806  0.0645 -0.2640 -0.0076
10257TIP3    H152186   6.246   4.758   5.839  0.4199  1.0690 -0.2393
10257TIP3    H252187   6.167   4.851   5.748 -1.5162  1.0276  1.3416
10258TIP3   OH252188   1.005   3.424  14.779  0.4403  0.1552  0.5364
10258TIP3    H152189   0.943   3.373  14.832 -0.4199 -0.2500 -0.8208
10258TIP3    H252190   1.049   3.359  14.724 -1.1424  0.8542 -1.6943
10259TIP3   OH252191   5.889   0.511   1.190 -0.4525 -0.3049  0.0459
10259TIP3    H152192   5.814   0.535   1.244  0.0334 -1.9516  1.5511
10259TIP3    H252193   5.962   0.560   1.229 -0.7830  1.8607 -1.8579
10260TIP3   OH252194   5.577   1.298   5.983  0.7811  0.4350 -0.0912
10260TIP3    H152195   5.630   1.260   5.912  2.3603 -0.0277  1.2727
10260TIP3    H252196   5.541   1.378   5.946  0.3793 -0.5179 -1.8710
10261TIP3   OH252197   6.272   4.396   0.398 -0.4769 -0.2294 -0.2193
10261TIP3    H152198   6.233   4.309   0.387  1.6392 -1.2744 -0.0978
10261TIP3    H252199   6.226   4.452   0.336 -0.5601 -1.9155 -1.7641
10262TIP3   OH252200   5.626   1.789  12.777  0.2292  0.0565 -0.1762
10262TIP3    H152201   5.720   1.796  12.760  0.2151 -0.9399 -0.6764
10262TIP3    H252202   5.611   1.697  12.796 -0.7712  0.0741 -0.8200
10263TIP3   OH252203   4.844   5.053  17.358  0.6284 -0.4323 -0.0538
10263TIP3    H152204   4.883   4.965  17.364 -0.3982 -1.0442 -1.7313
10263TIP3    H252205   4.782   5.057  17.431  1.3718 -0.7166  0.6110
10264TIP3   OH252206   4.965   6.257  15.135 -0.6629 -0.0693 -0.2161
10264TIP3    H152207   4.946   6.197  15.063 -1.4433 -0.2991  0.1774
10264TIP3    H252208   5.011   6.204  15.200 -2.6086 -0.6212  0.7564
10265TIP3   OH252209   0.875   2.658  14.950 -0.1016  1.0856 -0.3667
10265TIP3    H152210   0.936   2.638  15.020  0.5271  2.5332 -0.4654
10265TIP3    H252211   0.830   2.576  14.933  1.6678  0.0256 -0.1533
10266TIP3   OH252212   2.461   4.860   4.710  0.1907  0.9137  0.2175
10266TIP3    H152213   2.500   4.775   4.730 -2.5678 -0.5268  0.0648
10266TIP3    H252214   2.474   4.912   4.789  0.1309 -0.4003  1.1268
10267TIP3   OH252215   4.113   5.567   0.798  0.0636 -0.1697  0.0866
10267TIP3    H152216   4.071   5.643   0.758 -1.8288 -0.6894  0.9838
10267TIP3    H252217   4.082   5.567   0.889  0.6911 -1.5420  0.3313
10268TIP3   OH252218   3.689   3.348   5.851 -0.2644 -0.5143  0.6138
10268TIP3    H152219   3.733   3.409   5.911 -0.0945  1.8868 -1.7559
10268TIP3    H252220   3.751   3.276   5.841  1.0980  0.5605  0.9572
10269TIP3   OH252221   4.923   5.315  16.103  0.0309  0.8370 -0.3254
10269TIP3    H152222   4.923   5.388  16.165  2.8077  0.6684 -0.0012
10269TIP3    H252223   4.917   5.237  16.159  1.0202  0.7292 -0.3562
10270TIP3   OH252224   5.771   4.416   1.977  0.4539  0.0817 -0.3451
10270TIP3    H152225   5.800   4.330   2.008  1.7976  0.7616  0.3770
10270TIP3    H252226   5.707   4.445   2.042  1.0180  0.2068  0.1572
10271TIP3   OH252227   2.798   0.388   5.472  0.1053 -0.2561  0.3176
10271TIP3    H152228   2.821   0.301   5.438  0.3778 -0.6394  1.4456
10271TIP3    H252229   2.702   0.389   5.475  0.0750 -0.1885 -0.5093
10272TIP3   OH252230   6.110   5.943  14.518 -0.0317 -0.3057 -0.1299
10272TIP3    H152231   6.136   5.907  14.433  1.9240 -0.6277  0.5475
10272TIP3    H252232   6.015   5.945  14.515 -0.0094  0.2082 -2.5312
10273TIP3   OH252233   2.944   1.377  14.297 -0.0638 -0.7055  0.4152
10273TIP3    H152234   2.886   1.340  14.230 -0.0680  0.6072 -0.3416
10273TIP3    H252235   3.008   1.308  14.314  0.0963 -0.9949 -1.1591
10274TIP3   OH252236   3.310   4.430  11.618 -0.1136  0.1716 -0.2637
10274TIP3    H152237   3.307   4.511  11.667  0.7378  0.2781 -0.3613
10274TIP3    H252238   3.226   4.388  11.634  0.1250  0.2233  1.2351
10275TIP3   OH252239   2.868   5.658  15.623  0.2231 -0.5455  0.7462
10275TIP3    H152240   2.830   5.643  15.710  0.9950  0.1012  1.2168
10275TIP3    H252241   2.798   5.637  15.562 -0.2576 -1.2553  1.5196
10276TIP3   OH252242   1.441   6.743  17.335  0.2201 -0.3289  0.1862
10276TIP3    H152243   1.432   6.649  17.317  0.5680 -0.0265 -1.8249
10276TIP3    H252244   1.419   6.785  17.252  0.0424  1.3897  1.0588
10277TIP3   OH252245   5.699   1.806   4.032 -0.0019 -0.0042 -0.6406
10277TIP3    H152246   5.637   1.873   4.062 -1.2624 -0.2948 -2.3952
10277TIP3    H252247   5.644   1.737   3.995  1.3158 -1.5559  0.1768
10278TIP3   OH252248   0.718   5.082  16.327 -0.0160  0.4596  0.0720
10278TIP3    H152249   0.647   5.141  16.353  0.7546  1.5450 -0.2267
10278TIP3    H252250   0.735   5.029  16.404 -1.0629  0.2663  0.1890
10279TIP3   OH252251   1.884   6.074   1.509 -0.0867  0.0379  0.8398
10279TIP3    H152252   1.821   6.101   1.442 -0.4766 -1.6001  0.5012
10279TIP3    H252253   1.831   6.039   1.580  0.3352  1.5901  1.9781
10280TIP3   OH252254   3.372   6.764   3.245 -0.5335  0.0807 -0.1669
10280TIP3    H152255   3.441   6.827   3.223 -2.2086  1.8504 -0.6046
10280TIP3    H252256   3.362   6.712   3.165  1.2780 -1.2415  0.3963
10281TIP3   OH252257   1.644   6.539   3.503 -0.9694 -0.1961 -0.8880
10281TIP3    H152258   1.712   6.474   3.522  1.8071  2.4749 -0.8846
10281TIP3    H252259   1.562   6.498   3.532  0.8872 -2.7736  1.1828
10282TIP3   OH252260   2.300   0.190   0.029 -0.1241  0.7214  0.2076
10282TIP3    H152261   2.350   0.258  -0.015  0.4238  0.2728  0.1320
10282TIP3    H252262   2.361   0.149   0.090 -0.1421 -0.3900 -0.4851
10283TIP3   OH252263   1.283   5.728  12.978 -0.0636 -0.1200  0.3764
10283TIP3    H152264   1.341   5.658  13.008 -0.5059 -0.2351  0.9637
10283TIP3    H252265   1.286   5.794  13.046  0.6803  0.6404 -0.3697
10284TIP3   OH252266   3.303   1.980   4.160  0.2345  0.1892 -0.3334
10284TIP3    H152267   3.359   2.057   4.171 -1.4334  1.1824  2.0304
10284TIP3    H252268   3.219   2.015   4.130 -1.1022 -0.3467  2.4057
10285TIP3   OH252269   4.868   3.378  13.470 -0.4642 -0.0920 -0.7042
10285TIP3    H152270   4.885   3.291  13.434  2.2534 -0.4896  1.2973
10285TIP3    H252271   4.795   3.365  13.531 -0.1259 -0.9453 -0.4784
10286TIP3   OH252272   5.189   1.565   4.904 -0.0139  0.9444 -0.4937
10286TIP3    H152273   5.152   1.490   4.949  0.6548  1.0989  0.3297
10286TIP3    H252274   5.113   1.617   4.876 -0.4373  0.8822  0.5163
10287TIP3   OH252275   5.987   1.024   1.308 -0.3164  0.0009 -0.2129
10287TIP3    H152276   5.927   1.018   1.382 -2.8531  0.2679 -2.0884
10287TIP3    H252277   6.073   1.006   1.345 -1.5940 -1.0101  2.5670
10288TIP3   OH252278   3.238   6.510  14.189  0.3065 -0.1182  0.4834
10288TIP3    H152279   3.216   6.563  14.112  2.4151 -0.9003 -0.7502
10288TIP3    H252280   3.238   6.573  14.262 -0.4907  0.8950 -0.3505
10289TIP3   OH252281   4.442   3.992  16.826  0.2627 -0.1095 -0.3295
10289TIP3    H152282   4.372   3.980  16.762  1.2082  0.3166 -1.4918
10289TIP3    H252283   4.426   3.926  16.893 -0.1046 -1.3526 -1.6013
10290TIP3   OH252284   1.863   4.236  15.212  0.0792  0.0747 -0.0905
10290TIP3    H152285   1.890   4.261  15.301  2.9289 -0.2726 -0.7799
10290TIP3    H252286   1.767   4.238  15.216  0.0990  1.0494  2.6989
10291TIP3   OH252287   4.141   2.478   0.865  0.5964  0.0653 -0.9361
10291TIP3    H152288   4.182   2.391   0.866  0.8226  0.1735 -0.8030
10291TIP3    H252289   4.153   2.511   0.954 -0.4120 -0.2001 -0.6869
10292TIP3   OH252290   1.418   6.623   1.749  0.1633  0.3960  0.1984
10292TIP3    H152291   1.392   6.532   1.758 -0.0143  0.3679 -0.5037
10292TIP3    H252292   1.359   6.672   1.806 -1.2029  0.2923 -1.0706
10293TIP3   OH252293   4.280   4.589  12.450 -0.2905  0.0827  0.2771
10293TIP3    H152294   4.230   4.663  12.486 -0.8745 -0.1858  0.0436
10293TIP3    H252295   4.367   4.624  12.434  0.3565 -0.0532  2.9748
10294TIP3   OH252296   0.707   2.137   6.166  0.6436 -0.0805 -0.5734
10294TIP3    H152297   0.636   2.201   6.172  0.0267 -0.7494 -0.6259
10294TIP3    H252298   0.785   2.185   6.194  0.1929  0.6931 -0.6112
10295TIP3   OH252299   1.668   6.538   4.546 -0.0277 -0.3856 -0.2106
10295TIP3    H152300   1.675   6.634   4.546  0.2925 -0.3993 -1.0231
10295TIP3    H252301   1.736   6.510   4.608 -0.7145 -0.0642  0.7070
10296TIP3   OH252302   3.171   1.580  13.930 -0.6950  0.1895  0.1648
10296TIP3    H152303   3.086   1.602  13.892 -0.7184  1.0786  0.7078
10296TIP3    H252304   3.198   1.659  13.977  0.3268 -0.1619  0.1954
10297TIP3   OH252305   6.228   0.427   0.819  0.7083  1.1535 -0.5542
10297TIP3    H152306   6.175   0.503   0.844 -1.7075 -0.0412 -1.6672
10297TIP3    H252307   6.258   0.390   0.902  0.4380  2.3059  0.0767
10298TIP3   OH252308   1.954   5.537  11.096 -0.2229  0.0748  0.3449
10298TIP3    H152309   2.019   5.521  11.165  1.0729  0.5070 -0.7280
10298TIP3    H252310   2.000   5.517  11.015 -0.9977  1.6599 -0.5466
10299TIP3   OH252311   1.033   6.010   3.484 -0.5684  0.0775  0.3335
10299TIP3    H152312   0.980   5.933   3.462 -0.8521 -0.5698  2.9148
10299TIP3    H252313   1.093   5.978   3.551  0.1493  1.8364  0.5665
10300TIP3   OH252314   5.223   3.146   0.114  0.8040  0.7499  0.2047
10300TIP3    H152315   5.128   3.131   0.113  0.7435  1.1287  0.2041
10300TIP3    H252316   5.244   3.172   0.024  0.8185  1.2026  0.3357
10301TIP3   OH252317   3.213   5.601  11.334 -0.4456  0.5368 -0.1473
10301TIP3    H152318   3.235   5.567  11.248 -1.6421  0.3196 -0.3759
10301TIP3    H252319   3.192   5.524  11.386 -3.4175  0.8447 -0.7381
10302TIP3   OH252320   6.188   3.529  14.861 -0.2673 -0.7911 -0.2293
10302TIP3    H152321   6.121   3.597  14.864  0.7363  0.2341 -0.5969
10302TIP3    H252322   6.254   3.562  14.800  1.5678 -0.8333  1.6261
10303TIP3   OH252323   5.865   2.623   4.439  0.1999  0.4997 -0.0975
10303TIP3    H152324   5.804   2.558   4.407  0.4466  0.3000 -0.1636
10303TIP3    H252325   5.876   2.602   4.532  0.4860  0.2827 -0.1805
10304TIP3   OH252326   5.293   1.225  17.042  0.0727 -0.4812 -0.6946
10304TIP3    H152327   5.350   1.170  17.096 -1.1018 -0.2956  0.7991
10304TIP3    H252328   5.211   1.230  17.091 -0.9368 -0.0034 -2.3505
10305TIP3   OH252329   2.647   6.749   5.804  0.1021  0.3649 -0.1369
10305TIP3    H152330   2.571   6.792   5.765 -0.1990 -0.8771 -0.9817
10305TIP3    H252331   2.669   6.679   5.743 -0.2397 -1.5220  1.7529
10306TIP3   OH252332   3.814   0.779  14.676 -0.0751 -0.3124 -0.6596
10306TIP3    H152333   3.904   0.748  14.663  0.3713 -0.3851  2.0158
10306TIP3    H252334   3.760   0.715  14.629  1.1340 -2.1818  0.3452
10307TIP3   OH252335   2.375   5.764   4.289  0.1620 -0.2122  0.6856
10307TIP3    H152336   2.282   5.773   4.269  0.2251  0.7397  0.7538
10307TIP3    H252337   2.415   5.843   4.251  1.4972 -2.1901 -2.4407
10308TIP3   OH252338   3.683   3.434  11.264 -0.0109  0.1786  0.1124
10308TIP3    H152339   3.689   3.459  11.172 -1.2208  1.1268  0.2724
10308TIP3    H252340   3.598   3.393  11.273 -0.1059  0.5238  0.9005
10309TIP3   OH252341   6.437   3.862   3.245  0.0292 -0.4700  0.0352
10309TIP3    H152342   6.530   3.855   3.268 -0.0068 -0.2972  0.2275
10309TIP3    H252343   6.417   3.778   3.203  0.3959 -0.3112 -0.4534
10310TIP3   OH252344   2.034   6.076  15.721 -0.0678  0.1672  0.3847
10310TIP3    H152345   2.007   6.131  15.647  1.6495  0.5575  0.0084
10310TIP3    H252346   2.060   5.993  15.680  0.4560  0.2224  0.6077
10311TIP3   OH252347   0.362   2.247   4.780 -0.3814 -0.4366 -0.3486
10311TIP3    H152348   0.267   2.234   4.782 -0.7888  2.1340  0.4199
10311TIP3    H252349   0.374   2.331   4.736  1.7133 -1.6461 -2.2637
10312TIP3   OH252350   1.709   4.033  12.865  0.1602 -0.4271  0.2418
10312TIP3    H152351   1.702   4.124  12.895 -0.3987 -0.5700  0.5477
10312TIP3    H252352   1.648   3.984  12.920 -0.1705 -0.8512 -0.4835
10313TIP3   OH252353   3.084   1.369  12.949  0.4436  0.3186 -0.5809
10313TIP3    H152354   3.177   1.362  12.931  0.1695 -0.2613 -1.8964
10313TIP3    H252355   3.043   1.312  12.884 -0.7687 -0.1891  0.5911
10314TIP3   OH252356   1.270   5.392   4.114  0.0758  0.0924  0.0366
10314TIP3    H152357   1.241   5.475   4.152  0.5334  0.0981  0.3864
10314TIP3    H252358   1.198   5.331   4.131 -0.3290  0.4533 -0.3642
10315TIP3   OH252359   0.288   0.187  15.109 -0.0765 -0.1328 -0.2540
10315TIP3    H152360   0.201   0.150  15.092 -0.1328  0.0066 -0.2693
10315TIP3    H252361   0.346   0.138  15.051 -0.1002 -0.4297 -0.0289
10316TIP3   OH252362   4.517   0.412  14.198  0.0411  0.3981  0.4046
10316TIP3    H152363   4.536   0.318  14.193  1.3981  0.4534  2.9676
10316TIP3    H252364   4.523   0.442  14.108 -0.8840 -2.0341 -0.5609
10317TIP3   OH252365   3.231   3.005   1.122  0.3420 -0.1299 -0.3703
10317TIP3    H152366   3.162   3.072   1.126  0.5990  0.1703 -0.7982
10317TIP3    H252367   3.244   2.990   1.028  1.8238  0.8470 -0.3544
10318TIP3   OH252368   3.750   0.143   4.667  0.0984  0.3278 -0.3257
10318TIP3    H152369   3.714   0.119   4.581  0.6980  0.0331 -0.4997
10318TIP3    H252370   3.705   0.086   4.729  0.1634  0.0616 -0.5230
10319TIP3   OH252371   0.280   2.979  11.499 -0.9743 -0.2334 -0.3980
10319TIP3    H152372   0.258   2.913  11.433 -0.0099 -2.3390  1.2856
10319TIP3    H252373   0.369   2.957  11.527 -1.2586  0.7336  1.4176
10320TIP3   OH252374   2.240   4.484   0.074 -0.0048 -0.0442 -0.0391
10320TIP3    H152375   2.185   4.411   0.103 -0.0573 -0.9075 -2.1414
10320TIP3    H252376   2.201   4.511  -0.009  2.0935  0.0344 -1.0448
10321TIP3   OH252377   0.439   4.146  10.750 -0.6028 -0.3473  0.2090
10321TIP3    H152378   0.376   4.185  10.811 -0.9836 -0.4546 -0.1098
10321TIP3    H252379   0.523   4.152  10.795 -0.8291 -0.1313  0.6092
10322TIP3   OH252380   0.976   2.614  11.077 -0.0323 -0.2569 -0.5430
10322TIP3    H152381   1.027   2.596  10.998  1.7279  1.6141  0.0805
10322TIP3    H252382   0.903   2.668  11.046  1.7987  2.3013 -0.7440
10323TIP3   OH252383   0.927   4.400   0.116 -0.0533 -0.2107 -0.0716
10323TIP3    H152384   0.984   4.323   0.124 -0.9371 -0.9421 -0.6425
10323TIP3    H252385   0.932   4.424   0.024  0.9455  1.0187  0.2686
10324TIP3   OH252386   1.903   1.840   0.373 -0.3920  0.3111  0.4800
10324TIP3    H152387   1.952   1.758   0.380 -0.1420  0.3820 -0.3772
10324TIP3    H252388   1.814   1.816   0.398 -0.4068 -0.3121 -0.1271
10325TIP3   OH252389   5.804   4.745  13.373 -0.2985  0.0348  0.0274
10325TIP3    H152390   5.759   4.799  13.308 -0.8490  0.0122  0.3788
10325TIP3    H252391   5.882   4.795  13.397 -0.9260  0.8008  0.5323
10326TIP3   OH252392   0.702   4.831  11.415 -0.6965 -0.1425 -0.1427
10326TIP3    H152393   0.731   4.794  11.499  1.4267  1.9295  0.1638
10326TIP3    H252394   0.689   4.755  11.358 -1.5402 -1.5661  1.8502
10327TIP3   OH252395   4.050   4.049   1.203 -0.0138 -0.6650 -0.3871
10327TIP3    H152396   4.078   4.067   1.113  2.8825  2.5728  0.9512
10327TIP3    H252397   4.128   4.014   1.246 -0.7487 -0.2792  1.3331
10328TIP3   OH252398   6.237   3.512  17.139  0.2024 -0.2236  0.0930
10328TIP3    H152399   6.147   3.542  17.154  0.3716  0.2918  0.1191
10328TIP3    H252400   6.268   3.488  17.226  0.8025  1.6773  0.4486
10329TIP3   OH252401   0.114   0.742   3.759  0.2999  0.9918 -0.0480
10329TIP3    H152402   0.042   0.704   3.710 -0.6512  2.8100 -0.1461
10329TIP3    H252403   0.103   0.709   3.848 -0.8791  1.5142  0.0150
10330TIP3   OH252404   3.729   4.913  14.894 -0.4197 -0.4781  0.2874
10330TIP3    H152405   3.699   5.001  14.918 -0.6549 -0.8947  1.5789
10330TIP3    H252406   3.781   4.927  14.814 -2.3444  0.5358 -0.8782
10331TIP3   OH252407   6.332   1.324  13.902  0.3084  0.1103  0.6856
10331TIP3    H152408   6.409   1.373  13.873  0.6307 -0.4711  0.5305
10331TIP3    H252409   6.269   1.333  13.831  0.9941 -1.0813 -0.1194
10332TIP3   OH252410   0.987   1.895   6.046  0.1712 -0.1690 -0.5588
10332TIP3    H152411   1.062   1.839   6.065  0.4389  0.6355  0.9637
10332TIP3    H252412   0.926   1.878   6.118 -0.3564  0.4436 -0.8529
10333TIP3   OH252413   6.683   1.989   3.832  0.2552  0.0314  0.5307
10333TIP3    H152414   6.597   2.028   3.819  1.0408  0.8537 -4.3716
10333TIP3    H252415   6.740   2.063   3.854  0.0859 -0.2180  1.9027
10334TIP3   OH252416   0.975   5.936   1.135 -0.1916  0.0874 -0.2062
10334TIP3    H152417   1.006   5.948   1.046 -1.5611  0.7973 -0.6147
10334TIP3    H252418   1.020   6.004   1.185 -2.1048  2.1240 -1.0784
10335TIP3   OH252419   1.094   4.705   1.289 -0.1994  0.1080  0.2644
10335TIP3    H152420   1.039   4.699   1.211 -0.8296 -1.9424  0.8013
10335TIP3    H252421   1.123   4.615   1.305 -0.6629  0.3166  2.7663
10336TIP3   OH252422   5.882   4.535  12.527  0.6301 -0.1137  0.4438
10336TIP3    H152423   5.833   4.614  12.551 -1.1240 -0.5654 -1.4387
10336TIP3    H252424   5.816   4.466  12.521  0.7832 -0.2053 -4.7840
10337TIP3   OH252425   5.347   2.323  15.546 -0.1044 -0.1532 -0.2103
10337TIP3    H152426   5.389   2.329  15.460  0.4793  1.0769  0.1409
10337TIP3    H252427   5.417   2.295  15.605 -0.1018  0.5662  0.1368
10338TIP3   OH252428   5.835   4.171  13.602  0.0432  0.4525 -0.2535
10338TIP3    H152429   5.867   4.183  13.512  1.1451 -1.5514 -0.1924
10338TIP3    H252430   5.880   4.092  13.633 -1.0643  0.5356  1.7278
10339TIP3   OH252431   5.954   6.065   0.145 -0.3145  0.8856 -0.2624
10339TIP3    H152432   6.009   6.041   0.219 -0.8141  0.8630  0.1053
10339TIP3    H252433   6.007   6.043   0.068 -0.0711  0.2472  0.0811
10340TIP3   OH252434   6.379   0.506  11.141  0.0721 -0.1248  0.1635
10340TIP3    H152435   6.435   0.534  11.214  0.5558 -2.4341  0.7591
10340TIP3    H252436   6.360   0.587  11.094  2.2814  1.0386  1.0907
10341TIP3   OH252437   0.482   0.032  12.596 -0.6450  0.1022 -0.2557
10341TIP3    H152438   0.443   0.116  12.571 -2.4847 -0.8234 -0.6810
10341TIP3    H252439   0.429   0.002  12.669  0.9609 -0.0169  0.9123
10342TIP3   OH252440   2.665   1.478   4.517  0.2361  0.2466 -0.2466
10342TIP3    H152441   2.655   1.489   4.611  0.9574  1.5894 -0.3008
10342TIP3    H252442   2.576   1.472   4.483 -0.0280 -1.9919  0.6679
10343TIP3   OH252443   0.234   3.010   0.768  0.2006 -0.0427 -0.4357
10343TIP3    H152444   0.204   2.947   0.834  1.1804  0.3096  0.3740
10343TIP3    H252445   0.176   3.085   0.778 -0.7450 -0.6573 -1.1588
10344TIP3   OH252446   6.540   0.019   5.260  0.0393 -0.0090 -0.3405
10344TIP3    H152447   6.578  -0.017   5.340  0.8421  2.0569  0.2855
10344TIP3    H252448   6.604   0.083   5.230  0.3554 -1.5862 -3.3945
10345TIP3   OH252449   2.296   0.019  15.074  0.4222 -0.3329 -0.6208
10345TIP3    H152450   2.247   0.072  15.012  0.9259  0.9747  0.0545
10345TIP3    H252451   2.298   0.072  15.154  0.7197 -1.4993  0.1667
10346TIP3   OH252452   2.913   2.316   2.816  0.0195 -0.4763  0.0775
10346TIP3    H152453   2.898   2.232   2.773  0.0173  0.1956 -1.2793
10346TIP3    H252454   2.927   2.378   2.744  0.8408  0.5329  1.0631
10347TIP3   OH252455   1.125   0.110   0.993  0.0805 -0.0001 -0.1001
10347TIP3    H152456   1.118   0.014   0.998  3.4302 -0.3136  0.8651
10347TIP3    H252457   1.058   0.136   0.929  0.8903 -3.2480 -2.4927
10348TIP3   OH252458   2.234   5.097  15.476 -0.0281  0.7794 -0.3304
10348TIP3    H152459   2.285   5.108  15.557 -0.0711  0.5895 -0.2779
10348TIP3    H252460   2.300   5.086  15.408  0.0011  0.5626 -0.2667
10349TIP3   OH252461   4.909   2.294   4.595  0.2406 -0.4877 -0.3212
10349TIP3    H152462   4.978   2.229   4.582  0.4828 -0.8704  2.3464
10349TIP3    H252463   4.831   2.254   4.555  0.9001 -1.3330 -0.8123
10350TIP3   OH252464   0.927   1.922  12.765  0.9853 -0.6986  0.0592
10350TIP3    H152465   0.866   1.996  12.760  0.0500 -1.4309  0.3492
10350TIP3    H252466   1.012   1.959  12.740  0.7108  0.6676  1.0390
10351TIP3   OH252467   4.516   0.785  15.211 -0.1524 -0.0824  0.1724
10351TIP3    H152468   4.523   0.880  15.201  0.1110  0.0406  1.3374
10351TIP3    H252469   4.568   0.749  15.139 -0.8016  0.6425 -0.6693
10352TIP3   OH252470   4.715   6.614   0.688 -0.0949  0.1473 -0.0274
10352TIP3    H152471   4.736   6.691   0.635  1.0728 -0.3399 -0.3010
10352TIP3    H252472   4.776   6.617   0.761 -1.2794  0.4676  0.9833
10353TIP3   OH252473   0.427   3.883  11.570 -1.0145  0.1532  0.0601
10353TIP3    H152474   0.393   3.891  11.659 -0.0230 -0.2850  0.4913
10353TIP3    H252475   0.349   3.870  11.516 -1.6121  0.1731  0.8937
10354TIP3   OH252476   0.089   0.230   1.115 -0.4347  0.5672  0.4198
10354TIP3    H152477   0.176   0.247   1.153  0.1050 -0.2019 -0.4184
10354TIP3    H252478   0.062   0.314   1.078  1.5840  0.0795 -2.5036
10355TIP3   OH252479   3.114   1.501   0.217 -0.1380  0.1004 -0.8974
10355TIP3    H152480   3.035   1.556   0.218 -1.0697 -1.1987 -0.0957
10355TIP3    H252481   3.098   1.438   0.146 -0.7953 -1.4679  0.5765
10356TIP3   OH252482   0.170   3.240  14.727  0.2350  0.4084  0.5493
10356TIP3    H152483   0.123   3.306  14.675  0.0732 -0.0082  0.1593
10356TIP3    H252484   0.258   3.240  14.690  0.6555  1.4070  1.4781
10357TIP3   OH252485   2.571   3.913  13.795  0.3824 -0.3524  0.3725
10357TIP3    H152486   2.521   3.831  13.800  2.1412 -1.4410  1.1116
10357TIP3    H252487   2.629   3.901  13.720 -0.7617  1.1089 -0.8004
10358TIP3   OH252488   2.630   5.010  17.045  0.5840  0.8440 -0.5230
10358TIP3    H152489   2.602   4.939  17.101  0.6257 -0.0279 -1.5674
10358TIP3    H252490   2.567   5.010  16.972  1.7586  0.5308 -1.5726
10359TIP3   OH252491   5.726   6.293   0.665  0.5598  0.4684  0.0385
10359TIP3    H152492   5.661   6.330   0.725  0.2403  1.3416 -0.8292
10359TIP3    H252493   5.795   6.259   0.723 -0.0013  0.8019  0.9191
10360TIP3   OH252494   2.138   3.414   0.676 -0.1197  0.4428 -0.2712
10360TIP3    H152495   2.144   3.422   0.771 -0.2837  0.7364 -0.2816
10360TIP3    H252496   2.219   3.370   0.650  0.6538  1.7316 -0.1420
10361TIP3   OH252497   1.624   1.318   2.570 -0.2371 -0.3643  0.1036
10361TIP3    H152498   1.597   1.293   2.482  0.8739 -1.3928  0.0294
10361TIP3    H252499   1.633   1.235   2.617  3.3390 -0.2416 -0.0596
10362TIP3   OH252500   3.402   2.684   4.755 -0.5556 -0.3329 -0.2631
10362TIP3    H152501   3.401   2.771   4.793 -0.3411 -0.4927  0.1132
10362TIP3    H252502   3.488   2.676   4.714 -0.8285 -0.1193 -0.8826
10363TIP3   OH252503   0.096   3.202   2.538  0.2216 -0.5261  0.1900
10363TIP3    H152504   0.175   3.195   2.483  1.0811  0.6137  1.2078
10363TIP3    H252505   0.035   3.254   2.485  0.2064 -1.2634 -0.5363
10364TIP3   OH252506   6.132   3.706  12.094  0.5160 -0.0609  0.3353
10364TIP3    H152507   6.095   3.659  12.168  0.7517  0.8175  1.0194
10364TIP3    H252508   6.136   3.797  12.122 -0.9618  0.5898 -1.3664
10365TIP3   OH252509   6.428   6.063   5.998  0.1186 -0.5181 -0.3568
10365TIP3    H152510   6.367   6.033   5.931  0.5115 -1.3302 -0.3628
10365TIP3    H252511   6.464   6.145   5.964 -0.0245 -0.6933 -0.9316
10366TIP3   OH252512   4.534   1.024   4.323 -0.3982 -0.2261 -0.2838
10366TIP3    H152513   4.610   0.966   4.313  1.1162  1.6070  0.0038
10366TIP3    H252514   4.525   1.035   4.418 -0.4988  0.1738 -0.3362
10367TIP3   OH252515   4.415   5.851   5.388  0.0293 -0.9049  0.2852
10367TIP3    H152516   4.488   5.818   5.441 -0.0483 -0.6443  0.5577
10367TIP3    H252517   4.409   5.943   5.411 -0.5056 -0.9666  0.4045
10368TIP3   OH252518   2.968   1.932  15.936 -0.0354 -0.5952  0.1895
10368TIP3    H152519   2.875   1.941  15.955 -0.0180  0.5189 -0.2051
10368TIP3    H252520   2.971   1.874  15.860 -0.3423 -1.4498  0.8187
10369TIP3   OH252521   1.403   0.370   2.256  0.0608  0.3978 -0.4959
10369TIP3    H152522   1.389   0.415   2.339  0.9240 -2.0070  1.0898
10369TIP3    H252523   1.497   0.375   2.242 -0.2933  2.5688 -2.4948
10370TIP3   OH252524   4.022   4.724  11.574  0.6042  0.5831 -0.3872
10370TIP3    H152525   4.011   4.769  11.490 -0.6709 -0.8774 -1.0549
10370TIP3    H252526   3.969   4.645  11.566  2.4970 -0.8956  0.8427
10371TIP3   OH252527   1.225   1.102  16.909 -0.0473  0.0740 -0.0772
10371TIP3    H152528   1.159   1.081  16.976  1.5646  1.9746  2.3173
10371TIP3    H252529   1.297   1.042  16.928  0.0450 -0.0379 -0.7792
10372TIP3   OH252530   0.681   0.679   3.963  0.0541  0.1469  0.0281
10372TIP3    H152531   0.716   0.741   4.027 -1.0868 -0.3511  1.1847
10372TIP3    H252532   0.757   0.654   3.910  1.3117 -0.2928  1.9191
10373TIP3   OH252533   4.529   5.341  11.821 -0.0072  0.3047 -0.3454
10373TIP3    H152534   4.449   5.336  11.874 -0.5146  1.7874 -0.9421
10373TIP3    H252535   4.540   5.434  11.802  0.0146 -0.1575 -3.0324
10374TIP3   OH252536   2.851   2.852  13.942 -0.1183  0.2854  0.0657
10374TIP3    H152537   2.869   2.911  14.015 -1.7462 -0.9685  1.5743
10374TIP3    H252538   2.763   2.878  13.912  0.0951  0.0873 -0.7522
10375TIP3   OH252539   6.218   5.801  16.036  0.1642  0.0096 -0.5234
10375TIP3    H152540   6.161   5.877  16.031  0.4158  0.1836 -0.7520
10375TIP3    H252541   6.306   5.836  16.023  0.4863 -0.0343  1.2400
10376TIP3   OH252542   4.730   6.059   2.169 -0.6637 -0.3287  0.6207
10376TIP3    H152543   4.724   6.060   2.265 -0.8189  1.3618  0.6311
10376TIP3    H252544   4.774   5.977   2.148 -0.3766 -0.5980  2.1609
10377TIP3   OH252545   0.037   0.251   2.187 -0.2443  0.7496  0.0515
10377TIP3    H152546  -0.041   0.268   2.240  0.4106  1.7762  0.7035
10377TIP3    H252547   0.110   0.277   2.242  0.5459  0.2750 -0.7467
10378TIP3   OH252548   5.427   3.492  16.545 -0.1920  0.5879  0.3262
10378TIP3    H152549   5.425   3.406  16.588  0.0618  1.2729  1.7832
10378TIP3    H252550   5.511   3.529  16.571 -0.1270  1.1264 -0.6228
10379TIP3   OH252551   4.209   6.441   2.861 -0.2549  0.0602 -0.1136
10379TIP3    H152552   4.201   6.415   2.769 -0.3680 -0.4589  0.0409
10379TIP3    H252553   4.194   6.536   2.861 -0.3059  0.0520 -0.6239
10380TIP3   OH252554   1.130   5.615   0.263 -0.2732  0.2476 -0.3148
10380TIP3    H152555   1.045   5.584   0.233  0.1138 -0.1586 -1.0139
10380TIP3    H252556   1.169   5.657   0.186 -0.6867  2.2945  0.5392
10381TIP3   OH252557   6.359   1.478  12.943 -0.0912 -0.1821  0.1121
10381TIP3    H152558   6.378   1.484  12.849 -1.0516 -0.8377 -0.1384
10381TIP3    H252559   6.385   1.563  12.978  0.9875 -0.1941 -0.6098
10382TIP3   OH252560   3.218   0.389   4.131  0.4843 -0.1645  0.0404
10382TIP3    H152561   3.163   0.319   4.097 -0.3745  0.1672  0.7026
10382TIP3    H252562   3.199   0.391   4.225  0.9643  0.5383  0.1310
10383TIP3   OH252563   2.348   1.856  11.672  0.0200 -0.1760 -0.5643
10383TIP3    H152564   2.272   1.908  11.648 -0.4530 -0.3205  0.5657
10383TIP3    H252565   2.422   1.903  11.633 -0.5876  0.2487 -1.2296
10384TIP3   OH252566   0.121   2.072  13.231 -0.4187  0.4471 -0.1820
10384TIP3    H152567   0.180   2.017  13.283 -1.4753 -1.3563 -0.8351
10384TIP3    H252568   0.076   2.126  13.296  0.8255  0.7809  0.4423
10385TIP3   OH252569   0.586   0.420  14.644 -0.0344  0.2931 -0.2155
10385TIP3    H152570   0.551   0.331  14.639  0.3902  0.1701 -1.3756
10385TIP3    H252571   0.527   0.467  14.703 -0.2947 -0.7356  0.3688
10386TIP3   OH252572   4.984   5.973   3.721  0.5295  0.1893  0.3738
10386TIP3    H152573   4.908   5.946   3.670  2.0799 -1.2007 -1.3535
10386TIP3    H252574   4.976   6.068   3.728 -1.6342  0.0225  0.7667
10387TIP3   OH252575   6.068   2.825   1.969 -0.0287  0.1627 -0.2310
10387TIP3    H152576   6.163   2.836   1.973 -0.0553  1.2951 -1.6466
10387TIP3    H252577   6.041   2.886   1.900 -1.6461 -1.0454 -0.7110
10388TIP3   OH252578   4.904   3.259  13.775 -0.0713 -0.0473 -0.1937
10388TIP3    H152579   4.829   3.209  13.743 -0.3511  0.7327 -0.8022
10388TIP3    H252580   4.915   3.231  13.865 -0.6175 -0.7368 -0.3316
10389TIP3   OH252581   4.476   4.839   5.608 -0.4393 -0.4627 -0.5411
10389TIP3    H152582   4.420   4.853   5.531 -1.5604 -1.1071  0.1323
10389TIP3    H252583   4.415   4.836   5.682  0.5372 -0.7199  0.2762
10390TIP3   OH252584   4.661   5.171   5.043 -0.2307  0.7281  0.0520
10390TIP3    H152585   4.602   5.097   5.059  1.4269 -0.1194  2.9985
10390TIP3    H252586   4.724   5.138   4.979 -0.2110 -0.0030  0.4354
10391TIP3   OH252587   1.841   4.000  15.573 -0.2705  0.6774  0.6153
10391TIP3    H152588   1.783   3.932  15.607 -0.7461  0.7886  0.0626
10391TIP3    H252589   1.862   3.971  15.484  0.2894  0.7844  0.7124
10392TIP3   OH252590   6.563   5.370  14.550  0.0807 -0.6639  0.1703
10392TIP3    H152591   6.592   5.459  14.568 -0.7562 -0.2205 -0.6130
10392TIP3    H252592   6.475   5.365  14.588  0.2853 -1.3023  0.5896
10393TIP3   OH252593   3.304   1.873   1.863 -0.5435 -0.3457 -0.1440
10393TIP3    H152594   3.281   1.820   1.787  0.0525 -1.3744  0.3631
10393TIP3    H252595   3.228   1.868   1.921 -1.2437  0.9543 -0.9302
10394TIP3   OH252596   5.544   5.438   1.442 -0.0900 -0.5038  0.6971
10394TIP3    H152597   5.574   5.445   1.533 -1.2192  0.3902  1.0257
10394TIP3    H252598   5.466   5.383   1.446 -0.9780  0.6952  0.5050
10395TIP3   OH252599   0.415   4.235  11.700 -0.1598  0.3957 -0.4965
10395TIP3    H152600   0.492   4.188  11.732 -0.3465  0.9654  0.8719
10395TIP3    H252601   0.445   4.280  11.621  0.8269  0.3291 -0.1704
10396TIP3   OH252602   0.742   6.359  13.912 -0.0097  0.2618 -0.1636
10396TIP3    H152603   0.825   6.311  13.915  0.3618  0.9018 -0.1162
10396TIP3    H252604   0.744   6.403  13.827 -0.2591  0.3521 -0.1208
10397TIP3   OH252605   2.959   4.278  15.735  0.6157  0.2703 -0.4555
10397TIP3    H152606   2.929   4.187  15.730 -1.3703  0.6615  2.2292
10397TIP3    H252607   3.047   4.272  15.772  0.0009 -0.5849  0.9820
10398TIP3   OH252608   0.525   1.766   4.411 -0.6624  0.0137 -0.7645
10398TIP3    H152609   0.525   1.842   4.353 -2.7144  0.9827  0.4172
10398TIP3    H252610   0.434   1.737   4.413 -0.3833 -0.8894  0.8195
10399TIP3   OH252611   6.326   3.835   6.393 -0.3588  0.1325  0.1118
10399TIP3    H152612   6.410   3.790   6.387  0.1420  0.5651  2.8973
10399TIP3    H252613   6.265   3.767   6.425 -1.2433 -0.2861 -2.2507
10400TIP3   OH252614   0.345   1.401  16.404 -0.4040 -0.5677 -0.7589
10400TIP3    H152615   0.266   1.435  16.447 -0.0194  0.4033 -0.8072
10400TIP3    H252616   0.333   1.306  16.406 -0.5663 -0.5564  1.2009
10401TIP3   OH252617   3.867   0.372   4.774 -0.4043 -0.8104  0.4515
10401TIP3    H152618   3.850   0.291   4.726 -2.1025  1.2317 -2.7025
10401TIP3    H252619   3.781   0.405   4.797  0.0926  1.1044 -0.2129
10402TIP3   OH252620   6.621   1.667  12.392  0.3219  0.0841 -0.1734
10402TIP3    H152621   6.570   1.586  12.385  0.3475  0.0865 -0.3761
10402TIP3    H252622   6.699   1.652  12.339 -0.1215  0.5863 -0.9891
10403TIP3   OH252623   4.318   2.345   4.447  0.1123 -0.1857  0.2530
10403TIP3    H152624   4.271   2.426   4.467  0.2398 -0.3799  1.4383
10403TIP3    H252625   4.383   2.370   4.382  0.0396  0.6302  0.4831
10404TIP3   OH252626   1.229   1.838  11.417  0.2637 -0.0856 -0.1743
10404TIP3    H152627   1.248   1.849  11.324 -0.9234  0.3287 -0.3876
10404TIP3    H252628   1.200   1.747  11.424 -0.1338  0.0283 -0.3066
10405TIP3   OH252629   5.946   4.071   6.572 -0.3223 -0.3619 -0.3827
10405TIP3    H152630   5.949   4.165   6.593 -0.2407 -0.9721  2.9411
10405TIP3    H252631   5.885   4.065   6.499  2.4192  2.5754 -3.2162
10406TIP3   OH252632   5.363   1.880   3.659  0.5385  0.1262  0.0521
10406TIP3    H152633   5.351   1.797   3.706  2.3156 -1.7252 -2.4671
10406TIP3    H252634   5.452   1.908   3.683 -0.4922  2.0792  1.8654
10407TIP3   OH252635   2.354   3.201   5.789  0.1596  0.0692 -0.0540
10407TIP3    H152636   2.436   3.230   5.748 -0.4081  0.9797 -0.5809
10407TIP3    H252637   2.348   3.108   5.768  1.8837 -0.4404  1.4255
10408TIP3   OH252638   4.484   3.799  17.000 -0.0754  0.0019 -0.2919
10408TIP3    H152639   4.577   3.804  16.975  0.2651  5.1101  1.0092
10408TIP3    H252640   4.485   3.793  17.095 -1.1424 -0.4406 -0.2965
10409TIP3   OH252641   4.138   0.191   4.643 -0.2357  0.1287 -0.0497
10409TIP3    H152642   4.103   0.116   4.596 -0.7273  0.4457 -0.1971
10409TIP3    H252643   4.126   0.170   4.736 -0.3087  0.0019 -0.0884
10410TIP3   OH252644   1.802   6.144  12.557  0.8367  0.1861 -0.0856
10410TIP3    H152645   1.868   6.090  12.514  0.1866 -0.1799 -0.6604
10410TIP3    H252646   1.778   6.095  12.635  0.7284 -0.0477 -0.2608
10411TIP3   OH252647   0.653   2.788   0.092 -0.3310  0.1804  0.3706
10411TIP3    H152648   0.616   2.855   0.150 -0.8521  0.7640 -0.6110
10411TIP3    H252649   0.744   2.816   0.078 -0.0897 -0.1657  1.1850
10412TIP3   OH252650   5.330   4.278   4.228 -0.3521  0.0072  0.5126
10412TIP3    H152651   5.393   4.298   4.159 -0.7588  1.5520  0.5624
10412TIP3    H252652   5.312   4.185   4.217 -0.3105  0.1807 -1.3967
10413TIP3   OH252653   5.660   2.819  16.366  0.4929  0.5638 -0.5324
10413TIP3    H152654   5.603   2.859  16.432  1.6384  0.0528  0.8143
10413TIP3    H252655   5.684   2.734  16.403 -0.2277 -0.5242 -2.4166
10414TIP3   OH252656   3.788   2.181   5.321 -0.6425 -0.0253  0.3017
10414TIP3    H152657   3.793   2.242   5.395  1.1881  1.3271 -0.8572
10414TIP3    H252658   3.746   2.231   5.252 -1.1385 -0.8399  0.0032
10415TIP3   OH252659   1.244   6.108   0.719 -0.3055  0.2594 -0.2696
10415TIP3    H152660   1.306   6.084   0.650 -1.8381  0.8919 -1.9625
10415TIP3    H252661   1.207   6.025   0.748  0.0639  0.0117 -0.4931
10416TIP3   OH252662   4.376   3.628   1.172 -0.2284 -0.1185 -0.1179
10416TIP3    H152663   4.308   3.663   1.229 -0.2256 -0.2557 -0.0284
10416TIP3    H252664   4.332   3.558   1.123 -0.2633  0.0838 -0.3755
10417TIP3   OH252665   6.249   1.536  11.639  0.0730 -0.3421  0.2808
10417TIP3    H152666   6.174   1.506  11.587  0.4158  0.3516 -0.6516
10417TIP3    H252667   6.253   1.475  11.713 -1.9339  0.1089  0.8305
10418TIP3   OH252668   4.877   5.555   5.182 -0.4488  0.3280  0.5549
10418TIP3    H152669   4.793   5.511   5.199 -1.8107  2.1347 -1.0415
10418TIP3    H252670   4.869   5.639   5.228 -1.1146  2.0875 -2.5405
10419TIP3   OH252671   1.507   3.708  11.135  0.0735 -0.6890  0.5017
10419TIP3    H152672   1.542   3.760  11.207  0.7155  0.2969 -0.4941
10419TIP3    H252673   1.529   3.757  11.056 -0.2988 -1.9182 -0.4071
10420TIP3   OH252674   2.106   2.177  15.703 -0.6202  0.5128  0.0445
10420TIP3    H152675   2.201   2.169  15.715 -0.3911 -2.2287 -2.4106
10420TIP3    H252676   2.085   2.266  15.732  3.0354  1.9754 -1.2721
10421TIP3   OH252677   5.945   2.478  12.372  0.0538 -0.0575 -0.6389
10421TIP3    H152678   6.015   2.476  12.306  0.4972  1.0207 -0.2172
10421TIP3    H252679   5.936   2.570  12.394 -0.6454 -0.3298  0.2391
10422TIP3   OH252680   4.445   1.101   1.335  0.5610 -0.3639 -0.1754
10422TIP3    H152681   4.451   1.012   1.371 -1.7210 -0.3065  0.4808
10422TIP3    H252682   4.361   1.103   1.290  0.8925  1.2825 -0.8094
10423TIP3   OH252683   5.143   1.719   2.295 -0.1670 -0.1642  0.1144
10423TIP3    H152684   5.163   1.634   2.334  3.4863  1.7373  3.1232
10423TIP3    H252685   5.210   1.731   2.228 -0.5810  0.3604 -0.2135
10424TIP3   OH252686   5.690   0.351  13.477  0.0948 -0.9603 -0.2134
10424TIP3    H152687   5.640   0.270  13.473 -1.5944  0.0454 -0.3471
10424TIP3    H252688   5.624   0.421  13.474  1.5546  0.4472 -1.5206
10425TIP3   OH252689   2.844   4.346   2.783  0.4136  0.6085 -0.4010
10425TIP3    H152690   2.770   4.313   2.732  1.2453 -1.0654 -0.5918
10425TIP3    H252691   2.836   4.441   2.777 -1.4704  0.4711 -0.7633
10426TIP3   OH252692   6.479   2.105  16.808 -0.9447 -0.1600 -0.7859
10426TIP3    H152693   6.390   2.100  16.774 -1.1182  2.7870 -0.9897
10426TIP3    H252694   6.535   2.104  16.731 -0.9631  0.4887 -0.8096
10427TIP3   OH252695   0.758   3.597   0.377  0.6209 -0.1069 -0.0540
10427TIP3    H152696   0.783   3.689   0.376 -2.4017  0.8292  0.8074
10427TIP3    H252697   0.816   3.557   0.441  1.0692  1.4919  0.5795
10428TIP3   OH252698   3.862   0.322   1.630 -0.8317 -0.4550  0.2123
10428TIP3    H152699   3.811   0.364   1.560 -0.2420  2.0036  1.1352
10428TIP3    H252700   3.803   0.321   1.705  0.0568  1.5369  1.0177
10429TIP3   OH252701   6.505   2.374  16.306  0.0999  0.1588 -0.2085
10429TIP3    H152702   6.552   2.456  16.291 -0.0709 -0.1920 -3.5644
10429TIP3    H252703   6.555   2.329  16.373  1.8204  1.8139 -0.2990
10430TIP3   OH252704   2.967   2.224   5.382 -0.8221 -0.5460  0.0435
10430TIP3    H152705   3.060   2.212   5.400 -0.5449 -0.7842 -1.4196
10430TIP3    H252706   2.924   2.157   5.435 -0.2072 -0.2110  0.9972
10431TIP3   OH252707   4.398   0.392   3.329 -0.4759  0.0664 -0.0346
10431TIP3    H152708   4.382   0.338   3.407 -0.3620  0.5581  0.3303
10431TIP3    H252709   4.410   0.328   3.259  1.4810 -0.4853  0.7132
10432TIP3   OH252710   3.957   3.814  17.255 -0.0172 -0.0103  0.3511
10432TIP3    H152711   3.886   3.876  17.242  0.5695  0.5621 -0.2475
10432TIP3    H252712   3.917   3.739  17.298 -0.8680  0.5207  0.4953
10433TIP3   OH252713   6.643   2.301  11.317 -0.4976 -0.0674 -0.3850
10433TIP3    H152714   6.641   2.272  11.226  0.3418 -0.4231 -0.2973
10433TIP3    H252715   6.567   2.358  11.326 -0.4307  0.1848 -1.3800
10434TIP3   OH252716   3.608   1.500  13.565  0.3093  0.6820  0.3183
10434TIP3    H152717   3.585   1.592  13.551 -1.2436  0.3475  0.5275
10434TIP3    H252718   3.662   1.477  13.489  0.2159  1.5868 -0.0392
10435TIP3   OH252719   6.309   2.273  11.696  0.2694  0.1350  0.3249
10435TIP3    H152720   6.239   2.300  11.637 -0.1236 -0.4018  0.5418
10435TIP3    H252721   6.386   2.322  11.666 -0.0601  0.2965 -0.2679
10436TIP3   OH252722   5.105   3.461   1.382  0.2056 -0.2616  0.0684
10436TIP3    H152723   5.053   3.541   1.373 -0.2893 -0.7452 -1.7599
10436TIP3    H252724   5.087   3.430   1.471 -2.3207 -0.1837 -0.3421
10437TIP3   OH252725   6.620   2.954   5.284  0.0129  0.2188  0.5402
10437TIP3    H152726   6.665   2.891   5.228  0.3015  0.2606  0.7225
10437TIP3    H252727   6.679   2.967   5.358  0.3573  1.3557  0.0909
10438TIP3   OH252728   0.155   5.557   4.330  0.5880 -0.4173 -0.5709
10438TIP3    H152729   0.223   5.597   4.383 -0.6792  2.0611 -0.6554
10438TIP3    H252730   0.179   5.579   4.240  0.0529 -0.1321 -0.6479
10439TIP3   OH252731   4.308   2.761  16.510  0.2878 -0.3616  0.3924
10439TIP3    H152732   4.335   2.671  16.530 -1.9597 -1.4345 -1.0065
10439TIP3    H252733   4.266   2.755  16.424  2.2836  2.5184 -0.9701
10440TIP3   OH252734   5.529   1.517   6.513  1.0695 -0.2699 -0.0499
10440TIP3    H152735   5.478   1.597   6.497  2.4922  1.1717  2.0255
10440TIP3    H252736   5.507   1.493   6.603  0.4528 -2.4569 -0.7257
10441TIP3   OH252737   3.960   3.300  12.946 -0.2222  0.3882  0.0024
10441TIP3    H152738   3.930   3.355  12.874  0.5326  2.2048  0.9914
10441TIP3    H252739   3.881   3.263  12.983 -0.6137 -0.7626 -1.8559
10442TIP3   OH252740   5.820   6.698  15.072  0.0501 -0.0826  0.1678
10442TIP3    H152741   5.914   6.701  15.053 -0.0432  0.0009 -0.2932
10442TIP3    H252742   5.791   6.615  15.033  0.0884 -0.5350  1.0625
10443TIP3   OH252743   0.752   3.084  13.422 -0.0933 -0.2908 -0.4411
10443TIP3    H152744   0.757   3.031  13.502 -1.3580  1.1172  0.6190
10443TIP3    H252745   0.661   3.077  13.394 -0.2168  1.0661 -0.4379
10444TIP3   OH252746   1.570   5.787   1.845 -0.0660  0.2393 -0.0225
10444TIP3    H152747   1.479   5.786   1.874 -0.3062 -0.9173 -0.7497
10444TIP3    H252748   1.565   5.810   1.752  0.3583 -0.0988 -0.1314
10445TIP3   OH252749   1.340   2.516   4.176  0.4102 -0.3277 -0.1920
10445TIP3    H152750   1.282   2.441   4.172 -0.2864  0.2675 -2.2086
10445TIP3    H252751   1.282   2.592   4.176  1.1344  0.2522 -0.8483
10446TIP3   OH252752   6.525   1.357   5.323 -0.4078 -0.1211  0.2465
10446TIP3    H152753   6.495   1.296   5.390 -0.8031 -0.1960 -0.0003
10446TIP3    H252754   6.615   1.330   5.305 -0.6581 -0.7823 -0.0313
10447TIP3   OH252755   4.019   6.257  11.406  0.2710  0.1226 -0.0769
10447TIP3    H152756   3.985   6.346  11.401  0.3815  0.1437 -0.4713
10447TIP3    H252757   4.057   6.241  11.320  0.7889 -0.0926  0.1891
10448TIP3   OH252758   3.854   3.929  12.054 -0.1767  0.1624  0.4175
10448TIP3    H152759   3.802   3.970  12.123 -0.2306  0.6400  0.0963
10448TIP3    H252760   3.804   3.851  12.030 -0.5910  0.4514  0.3246
10449TIP3   OH252761   1.569   2.869   1.400  0.5570  0.0869  0.6752
10449TIP3    H152762   1.495   2.813   1.424 -0.1558  1.0399  0.7693
10449TIP3    H252763   1.555   2.951   1.448  1.1038  0.6645 -0.1020
10450TIP3   OH252764   4.403   0.962   5.109 -0.0465 -0.6793  0.5438
10450TIP3    H152765   4.419   1.019   5.184 -0.4207  0.0585  0.0754
10450TIP3    H252766   4.462   0.995   5.041  0.8269 -1.8025  0.7235
10451TIP3   OH252767   3.616   5.102  14.469  0.1972  0.4218  0.0551
10451TIP3    H152768   3.579   5.124  14.555 -0.2680 -0.1531  0.0088
10451TIP3    H252769   3.631   5.007  14.472  1.6198  0.6216  0.0388
10452TIP3   OH252770   5.081   0.697   1.218  0.4075  0.4816 -0.2117
10452TIP3    H152771   5.074   0.738   1.304  0.6664 -1.0273  0.5545
10452TIP3    H252772   4.997   0.652   1.205 -0.2140  1.9168 -1.4271
10453TIP3   OH252773   5.192   1.849   0.568  0.0184 -0.1688 -0.2246
10453TIP3    H152774   5.195   1.868   0.662  0.4712 -0.9002 -0.0825
10453TIP3    H252775   5.283   1.830   0.545 -0.0421  0.3126 -0.8816
10454TIP3   OH252776   3.327   5.987  17.250 -0.4315  0.1980  0.3909
10454TIP3    H152777   3.283   6.067  17.221 -1.7834 -1.6291 -3.1193
10454TIP3    H252778   3.414   6.017  17.278 -0.7336  2.8562 -1.1895
10455TIP3   OH252779   0.354   4.379   4.441 -0.6317  0.0145  0.1335
10455TIP3    H152780   0.276   4.414   4.485  0.2922  1.6565  0.5528
10455TIP3    H252781   0.324   4.359   4.352 -1.7018 -0.0929  0.4997
10456TIP3   OH252782   0.750   4.885   1.622 -0.0374 -0.0604  0.3083
10456TIP3    H152783   0.748   4.981   1.620  1.1519  0.0153 -2.6223
10456TIP3    H252784   0.785   4.864   1.708  1.3061  2.2442  0.4223
10457TIP3   OH252785   0.155   1.898  13.034 -0.2423 -0.1044  0.4266
10457TIP3    H152786   0.246   1.890  13.062 -0.4044 -2.2921  0.5110
10457TIP3    H252787   0.115   1.956  13.099  0.3460 -1.8482  2.4797
10458TIP3   OH252788   1.852   6.252  14.736 -0.0491 -0.3737  0.5819
10458TIP3    H152789   1.925   6.306  14.707  1.0424 -1.8520  0.4541
10458TIP3    H252790   1.893   6.176  14.777 -1.5320 -0.9843  1.0175
10459TIP3   OH252791   4.194   2.619   2.295  0.2851 -0.4110  0.1425
10459TIP3    H152792   4.252   2.598   2.222 -0.3700  3.8052 -1.8898
10459TIP3    H252793   4.250   2.668   2.356  0.4261 -2.4957  1.7904
10460TIP3   OH252794   0.473   5.666   3.295  0.1703 -0.7227 -0.3115
10460TIP3    H152795   0.410   5.627   3.356  1.1942 -0.4058  0.9884
10460TIP3    H252796   0.545   5.604   3.291  0.6242 -0.1981 -0.3076
10461TIP3   OH252797   3.199   5.974   3.822 -0.1953 -0.0858  0.4420
10461TIP3    H152798   3.291   5.950   3.833 -0.4475 -1.4250 -0.2487
10461TIP3    H252799   3.197   6.025   3.741 -0.0110  0.3558  0.7060
10462TIP3   OH252800   5.062   2.979  12.607  0.5802  0.4795 -0.1393
10462TIP3    H152801   5.008   2.952  12.533  0.2302  0.8099 -0.0062
10462TIP3    H252802   5.000   3.014  12.671  0.9097  0.4729  0.1893
10463TIP3   OH252803   5.043   2.815  14.686 -0.4361  0.2129  0.2364
10463TIP3    H152804   5.057   2.742  14.746 -0.2758 -0.5687 -0.7343
10463TIP3    H252805   5.130   2.852  14.671 -0.5447  0.7712  0.9096
10464TIP3   OH252806   6.575   4.098   4.857  0.1230  0.2950 -0.6247
10464TIP3    H152807   6.606   4.008   4.864 -0.8107  0.0685  1.4741
10464TIP3    H252808   6.641   4.142   4.803  1.5772 -1.2232 -0.1851
10465TIP3   OH252809   0.656   0.188   4.895 -0.2054 -0.2052 -0.8095
10465TIP3    H152810   0.726   0.160   4.836  0.2717  0.2662 -0.4719
10465TIP3    H252811   0.625   0.270   4.857 -0.0318 -0.0041 -0.5164
10466TIP3   OH252812   5.597   2.079   3.886  0.5142 -0.3310  0.0246
10466TIP3    H152813   5.613   2.044   3.798  2.0848  2.6610 -0.9982
10466TIP3    H252814   5.528   2.144   3.873  1.0574  0.4355  0.9114
10467TIP3   OH252815   2.130   4.395   1.345  0.0108 -0.3221 -0.3502
10467TIP3    H152816   2.087   4.454   1.283  0.5404  0.3130 -0.1323
10467TIP3    H252817   2.076   4.402   1.425 -0.2331 -0.5498 -0.4931
10468TIP3   OH252818   3.219   4.656   5.159  0.0120  0.1741  0.3118
10468TIP3    H152819   3.180   4.584   5.109  0.0245  0.0792  0.4389
10468TIP3    H252820   3.187   4.644   5.248 -1.7928  1.5927 -0.0808
10469TIP3   OH252821   1.190   5.976  11.557  0.0650  0.3230 -0.2210
10469TIP3    H152822   1.194   5.925  11.476 -0.4270  1.6524 -1.1067
10469TIP3    H252823   1.227   6.061  11.534 -2.0067  1.4490  0.3324
10470TIP3   OH252824   2.679   2.807   2.710  0.1158  0.1496  0.1114
10470TIP3    H152825   2.771   2.818   2.736  1.0542 -1.9906 -1.9177
10470TIP3    H252826   2.651   2.895   2.685  1.0513  1.1391  2.3088
10471TIP3   OH252827   6.630   2.215  17.046  0.8888  0.2067 -0.0914
10471TIP3    H152828   6.689   2.220  16.971 -1.1565 -1.4231 -1.9586
10471TIP3    H252829   6.547   2.183  17.009 -0.3451 -0.2769  2.8165
10472TIP3   OH252830   4.028   5.828  15.342  0.2274  0.4551  0.0418
10472TIP3    H152831   4.073   5.910  15.361 -1.7898  1.5148  0.4727
10472TIP3    H252832   3.970   5.849  15.269  1.4350 -1.2579 -1.4780
10473TIP3   OH252833   1.926   4.763  15.042  0.5175  0.1666  0.1073
10473TIP3    H152834   2.005   4.775  14.990  0.4065 -0.6220 -0.2546
10473TIP3    H252835   1.916   4.668  15.050 -0.7514  0.2359 -0.4168
10474TIP3   OH252836   6.701   1.139  15.306 -0.1295 -0.1586 -0.2948
10474TIP3    H152837   6.659   1.073  15.362 -1.3810  0.6602 -0.2243
10474TIP3    H252838   6.644   1.143  15.229  0.5503  0.0609 -0.7874
10475TIP3   OH252839   5.278   1.524   4.626  0.0612  0.0313  0.5277
10475TIP3    H152840   5.256   1.558   4.713  1.1388  1.2164  0.3616
10475TIP3    H252841   5.371   1.504   4.631  0.0839 -0.0911 -0.2826
10476TIP3   OH252842   2.699   2.874  13.019  0.5846  0.3236  0.2736
10476TIP3    H152843   2.670   2.784  13.032 -0.6949  0.5971 -0.4590
10476TIP3    H252844   2.793   2.867  13.000 -0.0532 -1.2302 -3.0836
10477TIP3   OH252845   3.409   6.458   0.175  0.4106 -0.4460  0.1296
10477TIP3    H152846   3.320   6.492   0.171 -0.2438 -2.0536  0.0434
10477TIP3    H252847   3.413   6.392   0.105  1.7891 -0.1596 -0.1076
10478TIP3   OH252848   2.924   6.011   0.168 -0.4425  0.2586  0.0250
10478TIP3    H152849   2.931   5.916   0.180 -2.3543  0.1777  0.9961
10478TIP3    H252850   3.009   6.045   0.194 -0.1597 -1.1059  1.0303
10479TIP3   OH252851   4.051   4.071   4.404  0.0987 -0.4700  0.1859
10479TIP3    H152852   4.069   4.165   4.403 -0.1536 -0.4115  0.7812
10479TIP3    H252853   4.038   4.050   4.496  0.4256 -1.1437  0.0909
10480TIP3   OH252854   1.037   4.778   2.259  0.0562  0.0411 -0.3374
10480TIP3    H152855   1.033   4.779   2.164 -0.5120 -0.4842 -0.3277
10480TIP3    H252856   1.065   4.866   2.283  2.8131 -0.5516 -1.0780
10481TIP3   OH252857   2.627   6.364   2.406  0.2610  0.0572 -0.6302
10481TIP3    H152858   2.585   6.278   2.404 -0.2416  0.3174 -1.3269
10481TIP3    H252859   2.591   6.407   2.483  1.1277 -0.6510  0.2042
10482TIP3   OH252860   2.361   0.730   1.195  0.0081 -0.2108  0.3408
10482TIP3    H152861   2.293   0.668   1.221 -0.0661 -0.9052 -1.4215
10482TIP3    H252862   2.350   0.741   1.101  1.7231  0.4100  0.1675
10483TIP3   OH252863   3.449   1.724   3.163 -0.1104  0.2091  0.1281
10483TIP3    H152864   3.520   1.764   3.213  0.5581 -0.5532 -0.1836
10483TIP3    H252865   3.464   1.630   3.171 -0.0608  0.0585 -1.3724
10484TIP3   OH252866   2.818   0.204   1.491 -0.0453 -0.5849  0.0795
10484TIP3    H152867   2.777   0.290   1.486  1.0568 -0.0200  0.4314
10484TIP3    H252868   2.756   0.145   1.449  0.0499  0.7023 -1.9721
10485TIP3   OH252869   6.060   4.317  15.198 -0.0035 -0.2342  0.2682
10485TIP3    H152870   6.152   4.335  15.181 -0.5503  0.7418 -2.0783
10485TIP3    H252871   6.053   4.316  15.294  2.0158  2.0734  0.5512
10486TIP3   OH252872   1.931   2.347  13.385  0.0274 -0.3066  0.4562
10486TIP3    H152873   1.978   2.428  13.401  0.1414 -0.2364 -0.2241
10486TIP3    H252874   1.995   2.278  13.403  0.2676 -0.2205 -0.0689
10487TIP3   OH252875   4.060   3.414   4.605  0.2331  0.3425 -0.8963
10487TIP3    H152876   4.095   3.327   4.624 -1.1140 -0.2682 -1.1138
10487TIP3    H252877   3.979   3.398   4.557 -0.1606  1.7122 -0.7358
10488TIP3   OH252878   5.428   3.314  14.955  0.0105 -0.3279  0.2658
10488TIP3    H152879   5.504   3.256  14.954 -1.5412 -2.5086  0.6570
10488TIP3    H252880   5.409   3.330  14.863 -0.7623 -2.2134  0.0661
10489TIP3   OH252881   0.951   1.364   5.435 -0.3690 -0.7397  0.2954
10489TIP3    H152882   1.042   1.333   5.439  0.4007  1.0670 -1.4489
10489TIP3    H252883   0.915   1.322   5.356 -0.5472 -0.2826  0.1260
10490TIP3   OH252884   0.109   4.433  14.178  0.9637  0.5177 -0.1934
10490TIP3    H152885   0.110   4.510  14.121  0.2827  1.4271  0.9637
10490TIP3    H252886   0.052   4.458  14.251  1.6643 -0.6578  0.8024
10491TIP3   OH252887   6.453   4.579   2.764 -0.9488 -0.0099  0.6448
10491TIP3    H152888   6.379   4.604   2.818  0.0413  0.8499  1.6568
10491TIP3    H252889   6.462   4.650   2.700 -2.8769 -1.6095 -1.5415
10492TIP3   OH252890   2.648   3.909   6.579  0.0327  0.2983 -0.1539
10492TIP3    H152891   2.572   3.949   6.621 -0.7734 -1.2437 -0.1026
10492TIP3    H252892   2.690   3.859   6.649  0.5157  0.3085 -0.4326
10493TIP3   OH252893   4.295   4.945  16.638 -0.2123  0.2762  0.0184
10493TIP3    H152894   4.391   4.948  16.635 -0.1631 -0.6122  0.3826
10493TIP3    H252895   4.269   4.924  16.549 -0.1127  1.3513 -0.2722
10494TIP3   OH252896   1.303   0.872  13.357 -0.2498 -0.2251 -0.5373
10494TIP3    H152897   1.263   0.785  13.360 -0.3908 -0.1455 -0.0194
10494TIP3    H252898   1.232   0.928  13.325 -0.2295 -0.2629 -0.6486
10495TIP3   OH252899   3.238   4.362  14.244  0.5118 -0.2266 -0.1433
10495TIP3    H152900   3.331   4.338  14.245  0.2247 -1.5652 -1.2901
10495TIP3    H252901   3.219   4.382  14.152  0.0006  1.5832  0.3171
10496TIP3   OH252902   2.984   1.693  11.632 -0.0645  0.0056 -0.6414
10496TIP3    H152903   2.982   1.789  11.642  0.6135 -0.1442  1.2476
10496TIP3    H252904   3.055   1.664  11.688 -0.5792 -1.6668 -0.7934
10497TIP3   OH252905   3.625   3.872   2.792  0.3480  0.1158  0.4291
10497TIP3    H152906   3.653   3.782   2.810  1.5389  0.1552 -0.9820
10497TIP3    H252907   3.627   3.915   2.877  1.5367 -0.7404  0.8716
10498TIP3   OH252908   5.685   5.780   1.580  0.3674 -0.2246 -0.4961
10498TIP3    H152909   5.665   5.869   1.609 -1.2893 -0.7886  0.2310
10498TIP3    H252910   5.778   5.783   1.557  0.1339  1.9102 -1.4114
10499TIP3   OH252911   0.488   4.159   2.816 -0.1805 -0.1176 -0.6684
10499TIP3    H152912   0.529   4.204   2.742 -0.6874 -0.3938 -1.1318
10499TIP3    H252913   0.395   4.180   2.808 -0.1391  0.4864  0.3544
10500TIP3   OH252914   1.388   2.266  10.920 -0.7100 -0.4685 -0.6797
10500TIP3    H152915   1.369   2.216  10.999 -1.9651 -1.7790 -1.7618
10500TIP3    H252916   1.476   2.239  10.895 -0.8032 -1.0272 -0.4206
10501TIP3   OH252917   4.784   2.575   2.083 -0.0161  0.1103 -0.0827
10501TIP3    H152918   4.872   2.600   2.056  0.2679 -1.1491 -0.3936
10501TIP3    H252919   4.763   2.498   2.028 -0.7773 -0.4050  0.8992
10502TIP3   OH252920   6.433   0.639  14.677  0.0968  0.7079 -0.3950
10502TIP3    H152921   6.466   0.553  14.651  0.3509  0.3036  1.1727
10502TIP3    H252922   6.464   0.699  14.608  0.2293 -0.3840 -1.3025
10503TIP3   OH252923   3.315   5.433   6.140  0.3983 -0.1200  0.0959
10503TIP3    H152924   3.403   5.461   6.162  0.3485  0.6950 -0.7015
10503TIP3    H252925   3.313   5.430   6.044 -0.6355  0.5627  0.0712
10504TIP3   OH252926   1.528   4.725   5.669  0.1250  0.5549 -0.3225
10504TIP3    H152927   1.593   4.775   5.620  0.6235  0.3822  0.1546
10504TIP3    H252928   1.457   4.711   5.607  0.5608  0.7112 -0.8649
10505TIP3   OH252929   3.412   3.880   5.174  0.5111  0.4762  0.5008
10505TIP3    H152930   3.426   3.950   5.237 -2.0025  0.3665  1.2683
10505TIP3    H252931   3.404   3.925   5.090  1.7657  0.8038  0.5322
10506TIP3   OH252932   2.242   4.273   4.557  0.5099  0.2944  0.1810
10506TIP3    H152933   2.309   4.339   4.541 -0.6356  1.5961  0.5337
10506TIP3    H252934   2.222   4.237   4.471  1.1653  0.3801 -0.0107
10507TIP3   OH252935   5.630   1.822   1.952 -0.0350  0.2966  0.5418
10507TIP3    H152936   5.603   1.832   1.861  2.3847  1.5291 -0.1365
10507TIP3    H252937   5.590   1.896   1.997 -2.1350 -0.9175  0.7769
10508TIP3   OH252938   1.292   0.771   4.874  0.1763 -0.0556  0.1112
10508TIP3    H152939   1.238   0.834   4.826  0.3710 -0.0240 -0.0694
10508TIP3    H252940   1.251   0.765   4.960 -0.6411 -0.7034 -0.3143
10509TIP3   OH252941   5.921   0.345   2.966 -0.1354  0.3323  0.3361
10509TIP3    H152942   5.974   0.372   2.892 -0.0086 -0.2213  0.2208
10509TIP3    H252943   5.896   0.254   2.947 -0.3116  0.2669  0.8457
10510TIP3   OH252944   6.678   5.960  14.636  0.1789  0.3013  0.0540
10510TIP3    H152945   6.689   6.055  14.630 -1.2656  0.5849  1.3151
10510TIP3    H252946   6.606   5.940  14.576 -0.7946  0.2978  1.1968
10511TIP3   OH252947   5.231   1.008   2.430  0.1291 -0.0823 -0.1866
10511TIP3    H152948   5.213   1.102   2.432 -0.6011 -0.1350 -2.1701
10511TIP3    H252949   5.272   0.990   2.515  0.8895  2.1299 -0.0150
10512TIP3   OH252950   5.503   2.226   5.692  0.1519 -0.3672  0.5438
10512TIP3    H152951   5.592   2.203   5.720  0.2966 -0.7579 -0.2048
10512TIP3    H252952   5.483   2.164   5.622 -0.8699 -0.5407  0.9724
10513TIP3   OH252953   0.955   6.712  16.220 -0.3381  0.3245 -0.4222
10513TIP3    H152954   0.913   6.709  16.134 -1.1034 -0.4138 -0.0413
10513TIP3    H252955   1.048   6.700  16.202 -0.2863  1.6887 -1.2622
10514TIP3   OH252956   2.923   3.133  16.832 -0.6776  0.0132  0.1824
10514TIP3    H152957   2.925   3.038  16.837 -1.3763 -0.0846 -1.0851
10514TIP3    H252958   2.832   3.155  16.813 -0.7546  1.0157  1.5614
10515TIP3   OH252959   3.878   4.126   3.870  0.2094  0.0057  0.6531
10515TIP3    H152960   3.922   4.075   3.802 -0.1617 -0.2201  0.5835
10515TIP3    H252961   3.864   4.064   3.942  1.4684  0.4710  1.3370
10516TIP3   OH252962   6.402   4.296   4.981  0.4947  0.5023 -0.2992
10516TIP3    H152963   6.447   4.213   4.964 -1.0230 -0.4012 -0.1194
10516TIP3    H252964   6.377   4.328   4.894  0.1420  0.1986 -0.3153
10517TIP3   OH252965   0.513   3.566  15.478  0.4095 -0.1633 -0.1899
10517TIP3    H152966   0.535   3.544  15.387  1.0228 -1.1691  0.1952
10517TIP3    H252967   0.554   3.651  15.492 -0.8806  0.6878 -1.2814
10518TIP3   OH252968   1.807   5.560  14.882  0.4588 -0.5035  0.0988
10518TIP3    H152969   1.763   5.508  14.814 -2.0350  0.2859  0.9773
10518TIP3    H252970   1.840   5.495  14.944 -1.5319 -1.1729  0.5573
10519TIP3   OH252971   6.478   1.961  14.996 -0.2757 -0.2470 -0.5283
10519TIP3    H152972   6.498   2.034  15.054  1.4939 -0.4013 -0.8901
10519TIP3    H252973   6.478   1.999  14.908 -0.1179 -0.5336 -0.6539
10520TIP3   OH252974   6.241   4.814  11.900  0.0612  0.0675 -0.2938
10520TIP3    H152975   6.149   4.799  11.920 -0.2254 -1.2586 -2.3015
10520TIP3    H252976   6.287   4.741  11.943  0.1525  0.5203  0.3941
10521TIP3   OH252977   1.349   2.553  15.388  0.3005  0.3497  0.0726
10521TIP3    H152978   1.268   2.523  15.429  0.4311  0.3468  0.3300
10521TIP3    H252979   1.418   2.528  15.449  0.7465 -1.7000 -1.1494
10522TIP3   OH252980   2.590   1.010   2.680 -0.2413 -0.1029 -0.6286
10522TIP3    H152981   2.561   0.921   2.699  2.3897 -1.0992 -0.7925
10522TIP3    H252982   2.546   1.033   2.599 -1.2766 -1.0814 -0.3779
10523TIP3   OH252983   0.566   1.924  12.787 -0.6587  0.0398 -0.6545
10523TIP3    H152984   0.583   1.848  12.842  0.3531 -0.2523 -1.3508
10523TIP3    H252985   0.479   1.908  12.752 -1.4759  0.3886  1.0767
10524TIP3   OH252986   3.476   3.677  17.021  0.1048  0.0123 -0.6516
10524TIP3    H152987   3.515   3.599  17.059 -0.5772 -0.3996 -0.7865
10524TIP3    H252988   3.524   3.750  17.062  1.9037 -0.4727 -1.7807
10525TIP3   OH252989   6.699   1.111  14.405 -0.8541 -0.6271  0.3289
10525TIP3    H152990   6.713   1.021  14.374 -2.4660 -0.2793 -1.6692
10525TIP3    H252991   6.606   1.113  14.429 -0.8265  0.5053  0.3657
10526TIP3   OH252992   4.108   0.091   2.356 -0.1767  0.1422  0.1184
10526TIP3    H152993   4.195   0.116   2.325 -0.9925  3.0119 -0.0616
10526TIP3    H252994   4.116  -0.003   2.373  3.3455  0.4846  1.3438
10527TIP3   OH252995   6.425   5.953   3.432 -0.0200  0.2866 -0.6930
10527TIP3    H152996   6.399   5.915   3.516  0.4348  1.4847  0.0210
10527TIP3    H252997   6.505   5.905   3.408  0.7682  1.0084  0.3864
10528TIP3   OH252998   0.247   6.321  13.656  0.0105  0.1969 -0.4990
10528TIP3    H152999   0.335   6.312  13.691  0.0904  0.5428 -0.6089
10528TIP3    H253000   0.211   6.233  13.657  0.2977  0.0836 -0.2937
10529TIP3   OH253001   0.869   3.213  14.483 -0.5136 -0.2750  0.0011
10529TIP3    H153002   0.914   3.140  14.441  0.6826  0.2809  0.2630
10529TIP3    H253003   0.889   3.203  14.576 -0.4521  0.2932  0.0523
10530TIP3   OH253004   3.637   3.697   4.782  0.4307  0.5348  0.3994
10530TIP3    H153005   3.728   3.697   4.810  0.5679  0.7112 -0.0325
10530TIP3    H253006   3.607   3.607   4.797  1.4676 -0.2677 -1.9304
10531TIP3   OH253007   1.791   4.949  16.926  0.2562 -0.0471  0.1290
10531TIP3    H153008   1.732   4.934  17.000  0.5739 -3.3710 -0.1454
10531TIP3    H253009   1.871   4.984  16.965  0.0426 -0.7736  1.2528
10532TIP3   OH253010   1.067   6.239  11.730  0.4447  0.5068 -0.1722
10532TIP3    H153011   1.004   6.244  11.659  0.6229  1.5256 -0.2679
10532TIP3    H253012   1.015   6.257  11.809  0.5293  0.8959 -0.2043
10533TIP3   OH253013   4.119   5.008  15.740  0.4565 -0.1215 -0.3434
10533TIP3    H153014   4.192   4.972  15.689  0.0228 -1.2113 -0.2309
10533TIP3    H253015   4.142   5.100  15.753  1.2919 -0.1810 -1.2277
10534TIP3   OH253016   1.694   5.026  15.288 -0.2043 -0.1657  0.2261
10534TIP3    H153017   1.619   5.063  15.336 -0.6109  1.7133 -1.6548
10534TIP3    H253018   1.771   5.057  15.336 -0.6055 -0.8134  1.3129
10535TIP3   OH253019   5.310   4.328   6.727 -0.3193  0.5397 -0.4000
10535TIP3    H153020   5.354   4.282   6.655  0.9270  0.1006  0.6085
10535TIP3    H253021   5.250   4.263   6.763  0.4631  0.1238  0.1703
10536TIP3   OH253022   1.564   4.843   5.018 -0.3116 -0.9096  0.0967
10536TIP3    H153023   1.588   4.830   5.110  0.3936 -0.9129 -0.0786
10536TIP3    H253024   1.474   4.875   5.021 -0.9881 -2.7275  0.7041
10537TIP3   OH253025   4.928   4.746  12.230 -0.4545 -0.2041  0.1009
10537TIP3    H153026   4.887   4.673  12.183 -2.4916 -0.0131  1.4798
10537TIP3    H253027   4.892   4.824  12.189  1.1176  0.0827 -0.8403
10538TIP3   OH253028   3.019   2.441  15.575  0.4447  0.4782 -0.4277
10538TIP3    H153029   3.008   2.441  15.670 -2.1749 -3.1185 -0.5010
10538TIP3    H253030   3.077   2.366  15.559  0.7882  0.9997 -1.6721
10539TIP3   OH253031   0.751   1.378   5.624  0.2569  1.0825 -0.1025
10539TIP3    H153032   0.775   1.288   5.647 -0.3556  0.3761 -2.0161
10539TIP3    H253033   0.800   1.396   5.544 -1.5923  1.4718 -1.2011
10540TIP3   OH253034   6.293   3.881   4.905 -0.6215 -0.4438  0.0070
10540TIP3    H153035   6.258   3.832   4.980 -1.0762 -1.4973 -0.8643
10540TIP3    H253036   6.388   3.881   4.919 -0.5554 -2.0414 -0.2092
10541TIP3   OH253037   3.203   3.088   5.174  0.0899  0.6278  0.0007
10541TIP3    H153038   3.223   2.999   5.147 -1.9795 -0.3869  1.4824
10541TIP3    H253039   3.283   3.120   5.215  0.5900 -0.9146  0.2845
10542TIP3   OH253040   2.405   5.957  16.610 -0.0055 -0.2691 -0.2576
10542TIP3    H153041   2.490   5.922  16.582 -0.0200  0.0344 -0.6828
10542TIP3    H253042   2.391   5.918  16.696  0.3429 -0.6998 -0.3901
10543TIP3   OH253043   1.183   1.687   6.124  0.0625  0.2791  0.3936
10543TIP3    H153044   1.235   1.693   6.204  0.1898 -0.3553  0.3627
10543TIP3    H253045   1.111   1.629   6.147 -0.4902  0.9316  0.3539
10544TIP3   OH253046   1.890   3.608   0.842 -0.0422  0.1240  0.2220
10544TIP3    H153047   1.841   3.687   0.864 -1.2712 -0.2561 -0.9834
10544TIP3    H253048   1.875   3.549   0.915 -1.2340  0.1072 -0.0146
10545TIP3   OH253049   5.856   2.232  16.233  0.2315  0.0008 -0.2368
10545TIP3    H153050   5.784   2.170  16.250 -0.3189  0.1641 -1.7792
10545TIP3    H253051   5.822   2.316  16.262 -0.2766  0.0928 -1.0344
10546TIP3   OH253052   3.299   3.789   2.057  0.2011  0.2794 -0.3736
10546TIP3    H153053   3.281   3.736   1.980  0.1592 -1.9895  1.0846
10546TIP3    H253054   3.214   3.798   2.101  0.6638 -1.0523  0.8950
10547TIP3   OH253055   6.727   1.650   2.821  0.5166 -0.3262  0.0027
10547TIP3    H153056   6.764   1.644   2.909  3.1653  0.7168 -0.9212
10547TIP3    H253057   6.800   1.681   2.767 -0.9904 -0.9848 -2.5825
10548TIP3   OH253058   0.606   4.834   0.943 -0.3875  0.5749  0.2033
10548TIP3    H153059   0.683   4.850   0.888 -0.3131  0.7368  0.3565
10548TIP3    H253060   0.607   4.739   0.958  0.9511  0.8275  1.9380
10549TIP3   OH253061   4.899   5.814   4.597 -0.0285 -0.6498 -0.3335
10549TIP3    H153062   4.903   5.764   4.515  0.5606 -0.8085 -0.2083
10549TIP3    H253063   4.876   5.749   4.663 -0.5326 -0.5158 -0.3691
10550TIP3   OH253064   4.809   4.786  11.906  0.4768 -0.5195  0.2149
10550TIP3    H153065   4.724   4.791  11.862 -0.1315 -1.2342  1.2528
10550TIP3    H253066   4.810   4.861  11.966  0.4000 -0.7342  0.4881
10551TIP3   OH253067   5.721   1.235  15.824  0.0056  0.4254 -0.5659
10551TIP3    H153068   5.752   1.268  15.908 -1.8130  0.2986  0.2021
10551TIP3    H253069   5.691   1.312  15.776 -2.1194  0.2060  0.3126
10552TIP3   OH253070   1.715   0.000  17.333  0.4754  0.1876 -0.3497
10552TIP3    H153071   1.743  -0.060  17.402 -1.0488  2.1538  2.1645
10552TIP3    H253072   1.619   0.001  17.339  0.4285  3.3567  0.3270
10553TIP3   OH253073   1.720   6.722   6.128  0.1483  0.3438 -0.9116
10553TIP3    H153074   1.763   6.637   6.120 -0.2918 -0.0893  0.7844
10553TIP3    H253075   1.658   6.711   6.201 -1.1728  1.6207 -1.7675
10554TIP3   OH253076   1.739   4.876   0.435  0.0361  0.3142 -0.9016
10554TIP3    H153077   1.819   4.825   0.445 -0.7748 -0.6119  1.7347
10554TIP3    H253078   1.765   4.966   0.457  0.1979 -0.1684  1.0454
10555TIP3   OH253079   2.362   3.825  11.393 -0.0857 -0.4375  0.2902
10555TIP3    H153080   2.418   3.760  11.351 -1.1285 -0.6204 -0.8924
10555TIP3    H253081   2.421   3.893  11.423  1.0498 -1.9445  1.6376
10556TIP3   OH253082   6.027   6.012   2.815 -0.0846  0.7930  0.4532
10556TIP3    H153083   6.039   6.084   2.753  0.1216  0.2871 -0.0985
10556TIP3    H253084   6.110   5.965   2.814  0.0849  1.0396  1.4656
10557TIP3   OH253085   4.054   4.056  16.755  0.4218 -0.4076 -0.8837
10557TIP3    H153086   4.119   4.072  16.824  1.2974 -1.4691 -1.4427
10557TIP3    H253087   3.991   3.996  16.794 -0.1544  0.4748 -0.4050
10558TIP3   OH253088   1.101   0.030   3.353  0.3295 -0.2711 -0.8833
10558TIP3    H153089   1.019   0.063   3.317  0.3417  2.2013  1.0872
10558TIP3    H253090   1.076  -0.040   3.412 -0.3419  0.1649 -0.6414
10559TIP3   OH253091   1.107   2.922   2.386 -0.1271 -0.0058  0.5049
10559TIP3    H153092   1.106   2.909   2.481 -1.2585 -0.3270  0.4634
10559TIP3    H253093   1.026   2.971   2.368  1.2744  2.2766 -0.0168
10560TIP3   OH253094   6.537   2.263   6.268 -0.7566 -0.2514 -0.1276
10560TIP3    H153095   6.548   2.311   6.350  1.3215 -2.2749  0.8524
10560TIP3    H253096   6.522   2.173   6.294  2.1056 -1.3803 -1.8741
10561TIP3   OH253097   5.840   5.252  16.479  0.2770 -0.3185 -0.0913
10561TIP3    H153098   5.851   5.343  16.450 -0.6005 -0.9596 -2.6866
10561TIP3    H253099   5.758   5.253  16.528 -1.7958 -0.2540 -3.2619
10562TIP3   OH253100   3.262   1.910   3.021 -0.4137 -0.3853  0.0062
10562TIP3    H153101   3.350   1.935   2.993 -1.2438  0.9602 -1.5851
10562TIP3    H253102   3.257   1.937   3.113  1.0968 -1.3164  0.4032
10563TIP3   OH253103   4.869   0.352  14.659  0.0040  0.1675 -0.3091
10563TIP3    H153104   4.794   0.295  14.642  0.4322 -0.1835 -1.0743
10563TIP3    H253105   4.885   0.395  14.575  0.2237  0.7702  0.0397
10564TIP3   OH253106   2.050   2.196  13.723  0.0510  0.1320  0.3209
10564TIP3    H153107   2.078   2.254  13.793 -0.2876 -1.1643  1.5812
10564TIP3    H253108   1.958   2.176  13.743 -0.3309  0.4496 -1.0075
10565TIP3   OH253109   6.166   4.862   4.444 -0.7041  1.1158 -1.0621
10565TIP3    H153110   6.104   4.806   4.398 -1.9258  1.1039  0.5574
10565TIP3    H253111   6.151   4.949   4.407 -1.3136  1.0189 -1.0450
10566TIP3   OH253112   4.544   4.176   1.657 -0.2700  0.0645  0.1527
10566TIP3    H153113   4.606   4.170   1.584 -0.8689 -0.5030 -0.3232
10566TIP3    H253114   4.463   4.139   1.622 -1.1526  1.6185  0.4752
10567TIP3   OH253115   2.764   4.178   5.512  0.5137 -0.0875  0.1294
10567TIP3    H153116   2.671   4.157   5.500  0.3565  0.2378  0.7217
10567TIP3    H253117   2.805   4.155   5.428 -0.0953 -0.2581 -0.1285
10568TIP3   OH253118   3.446   2.340  13.675  0.3896  0.5179  0.5452
10568TIP3    H153119   3.368   2.388  13.703 -0.9963 -1.8119  1.0075
10568TIP3    H253120   3.499   2.332  13.755  0.2551  0.6347  0.6468
10569TIP3   OH253121   5.440   3.881  12.494 -0.1985 -0.7343 -0.2199
10569TIP3    H153122   5.388   3.802  12.514  2.5380 -1.8773  3.5795
10569TIP3    H253123   5.426   3.938  12.570  1.4323  0.4005 -0.7349
10570TIP3   OH253124   5.509   0.878  16.604  0.2756 -0.4071 -0.8205
10570TIP3    H153125   5.586   0.828  16.577  1.9152  1.4350  0.1093
10570TIP3    H253126   5.465   0.823  16.668  0.6754 -1.6161 -1.5594
10571TIP3   OH253127   2.849   4.129   2.349  0.6200 -0.4392  0.4299
10571TIP3    H153128   2.789   4.201   2.334  1.5750  0.4421  0.7139
10571TIP3    H253129   2.810   4.080   2.421 -0.5448 -0.8070 -0.4225
10572TIP3   OH253130   6.075   1.197  14.984 -0.2685 -0.7608 -0.1558
10572TIP3    H153131   6.069   1.224  15.076  0.1691 -1.8454  0.2059
10572TIP3    H253132   5.983   1.192  14.955 -0.3786  0.7311 -0.1512
10573TIP3   OH253133   3.612   6.494  14.711 -0.5991  0.2158 -0.2792
10573TIP3    H153134   3.576   6.509  14.798  0.5588  1.4004  0.0338
10573TIP3    H253135   3.545   6.526  14.651 -1.1494 -0.0292  0.1977
10574TIP3   OH253136   5.897   2.035   3.894 -0.0400 -0.3712 -0.2637
10574TIP3    H153137   5.913   2.045   3.800  0.2417 -1.6936 -0.3751
10574TIP3    H253138   5.803   2.020   3.901 -0.0070 -0.6328 -0.3728
10575TIP3   OH253139   0.356   4.133   5.403  0.8632  0.2396 -0.3419
10575TIP3    H153140   0.335   4.088   5.484  0.8935 -0.2429 -0.5996
10575TIP3    H253141   0.324   4.222   5.416  0.1479 -0.0410 -0.0993
10576TIP3   OH253142   2.044   5.442  13.341 -0.2392 -0.2161  0.5946
10576TIP3    H153143   2.024   5.435  13.434 -0.8266  1.3872  0.6147
10576TIP3    H253144   2.134   5.409  13.333  0.2747  0.7994  1.9261
10577TIP3   OH253145   1.498   6.706   1.286  0.2475 -0.4094 -0.0577
10577TIP3    H153146   1.579   6.738   1.325 -0.3730  1.4358 -0.1961
10577TIP3    H253147   1.444   6.680   1.361  0.5640 -0.6601  0.0861
10578TIP3   OH253148   4.856   5.089  11.742 -0.1756  0.7695 -0.1951
10578TIP3    H153149   4.818   5.142  11.671 -0.3254 -0.4678 -1.0755
10578TIP3    H253150   4.845   4.999  11.713  1.1348  0.2763  0.7193
10579TIP3   OH253151   3.968   4.831   2.498 -0.0530 -0.0423 -0.0418
10579TIP3    H153152   3.963   4.746   2.453 -1.4243 -0.1220  0.2041
10579TIP3    H253153   3.997   4.808   2.587  0.2708 -0.1697 -0.1785
10580TIP3   OH253154   5.527   2.052   2.105  0.0149 -0.0607  0.2248
10580TIP3    H153155   5.433   2.067   2.122 -0.1315  0.6012 -1.0813
10580TIP3    H253156   5.551   2.121   2.043  1.9852  1.3655  2.4071
10581TIP3   OH253157   5.933   3.222   3.026 -0.5379 -0.0930 -0.1024
10581TIP3    H153158   5.860   3.203   3.085 -0.2559 -0.3923  0.1562
10581TIP3    H253159   5.937   3.317   3.023 -1.9184 -0.0386 -1.3469
10582TIP3   OH253160   4.982   0.674  15.030  0.2555 -0.0908 -0.1866
10582TIP3    H153161   4.937   0.589  15.036 -0.5995  0.4549  1.9673
10582TIP3    H253162   5.004   0.683  14.937 -0.5463 -2.1966 -0.6353
10583TIP3   OH253163   5.153   4.717  12.833 -0.1849  0.1776 -0.3601
10583TIP3    H153164   5.226   4.657  12.822  0.7885  1.4568 -1.1699
10583TIP3    H253165   5.193   4.798  12.864 -1.4075  0.5593  0.3003
10584TIP3   OH253166   6.315   5.655  13.680 -0.3836  0.4744  0.4337
10584TIP3    H153167   6.251   5.621  13.743 -1.1717  0.6664 -0.2455
10584TIP3    H253168   6.268   5.655  13.596 -0.0896  2.2956  0.2352
10585TIP3   OH253169   0.241   3.645   5.596 -0.6568  0.0600  0.0736
10585TIP3    H153170   0.318   3.649   5.653 -0.3822 -1.8001 -0.1021
10585TIP3    H253171   0.173   3.607   5.652 -1.0422  0.3516 -0.1966
10586TIP3   OH253172   3.201   1.265  14.311  0.1854  0.6870  0.2367
10586TIP3    H153173   3.237   1.261  14.399 -0.9944  0.7870  0.7367
10586TIP3    H253174   3.236   1.347  14.275  2.0380 -0.1713 -0.0346
10587TIP3   OH253175   4.452   0.352  11.554 -0.1463  0.0576  0.0169
10587TIP3    H153176   4.537   0.384  11.524  0.0210  2.1276  2.3986
10587TIP3    H253177   4.463   0.258  11.562  0.7347 -0.2342 -3.1168
10588TIP3   OH253178   1.121   2.076  16.632 -0.4646 -0.1831  0.2942
10588TIP3    H153179   1.091   2.151  16.581 -0.0975  0.7761  1.4599
10588TIP3    H253180   1.216   2.075  16.619 -0.4726 -0.4944  0.2374
10589TIP3   OH253181   0.963   4.846  12.621 -0.1736  0.1185 -0.7824
10589TIP3    H153182   0.988   4.766  12.667  2.0715  1.0544 -0.2795
10589TIP3    H253183   0.925   4.902  12.690 -0.9530 -0.1567 -0.9731
10590TIP3   OH253184   5.096   0.914   2.839 -0.4648  0.4275  0.0029
10590TIP3    H153185   5.029   0.921   2.772 -0.9629 -0.2527  0.4130
10590TIP3    H253186   5.072   0.836   2.889  0.1554  0.6560  0.6823
10591TIP3   OH253187   3.322   2.312   2.196  0.9709  0.0381 -0.1710
10591TIP3    H153188   3.375   2.391   2.192 -1.1669  1.5388 -0.6803
10591TIP3    H253189   3.361   2.253   2.132  1.1831  1.6284 -1.5729
10592TIP3   OH253190   2.850   5.890   5.778 -0.1353  0.4723 -0.3656
10592TIP3    H153191   2.940   5.862   5.795  0.2243  0.0703 -2.6635
10592TIP3    H253192   2.851   5.985   5.792  0.7635  0.5358 -0.8121
10593TIP3   OH253193   2.316   2.613  16.139 -0.0196  0.0628 -0.4916
10593TIP3    H153194   2.249   2.585  16.201  0.3823 -0.2931 -0.2145
10593TIP3    H253195   2.396   2.568  16.167  0.6398  1.4432 -0.0820
10594TIP3   OH253196   0.355   0.689  11.756  0.0083 -0.3400 -0.4870
10594TIP3    H153197   0.361   0.595  11.741 -1.2974 -0.5579  0.2582
10594TIP3    H253198   0.264   0.712  11.736 -0.1900  0.4146  1.1291
10595TIP3   OH253199   0.556   3.102  12.257  0.2892 -0.0368 -0.2613
10595TIP3    H153200   0.613   3.026  12.242 -0.0536 -0.6476  1.3470
10595TIP3    H253201   0.483   3.068  12.309  0.6899  1.5794  1.4616
10596TIP3   OH253202   5.845   2.285  13.738 -0.1689  0.1228 -0.4962
10596TIP3    H153203   5.903   2.244  13.674  1.0277  1.0496 -0.0477
10596TIP3    H253204   5.833   2.218  13.806  0.2588 -0.1344 -0.6703
10597TIP3   OH253205   2.222   1.757  16.214  0.7945 -0.1199  0.0468
10597TIP3    H153206   2.312   1.789  16.208  0.5105  0.6584 -0.2265
10597TIP3    H253207   2.168   1.835  16.199  0.0501 -0.2329  1.8562
10598TIP3   OH253208   1.748   2.874  12.786  0.4383  0.2157  0.0304
10598TIP3    H153209   1.727   2.781  12.786 -0.9611  0.5040 -0.0911
10598TIP3    H253210   1.798   2.887  12.705 -0.3984 -0.2292 -0.5743
10599TIP3   OH253211   5.967   5.976  15.148  0.0755 -0.1976 -0.7921
10599TIP3    H153212   6.004   6.028  15.076  0.6163 -0.9611 -1.0748
10599TIP3    H253213   5.992   6.024  15.227 -1.6922  1.4007 -1.1290
10600TIP3   OH253214   1.501   4.124   1.999 -0.2503  0.5810 -0.0495
10600TIP3    H153215   1.577   4.177   1.974  1.1031 -0.4663  1.6046
10600TIP3    H253216   1.502   4.126   2.095  0.2103 -2.8482  0.1300
10601TIP3   OH253217   3.473   0.548   4.045 -0.1045 -0.2475 -0.3062
10601TIP3    H153218   3.402   0.497   4.084 -0.4284  0.0705 -0.4738
10601TIP3    H253219   3.434   0.633   4.026  0.3525 -0.0316 -0.2984
10602TIP3   OH253220   3.004   4.403   3.628 -1.0363  0.4473 -0.6938
10602TIP3    H153221   2.975   4.428   3.715 -0.1328  0.2524 -0.3210
10602TIP3    H253222   2.932   4.429   3.570 -1.1022  1.7973 -0.0524
10603TIP3   OH253223   0.472   3.349  14.829 -0.2752 -0.2974 -0.2067
10603TIP3    H153224   0.474   3.296  14.750 -1.5577  1.3202 -1.3836
10603TIP3    H253225   0.557   3.393  14.831 -0.4812  0.1525 -1.0639
10604TIP3   OH253226   2.136   3.139  10.178  0.1412 -0.2897 -0.0574
10604TIP3    H153227   2.137   3.195  10.255 -0.6245 -0.9422  0.4478
10604TIP3    H253228   2.227   3.109  10.169  0.7070  1.5471 -0.7547
10605TIP3   OH253229   3.744   2.901   2.642  0.1250 -0.0246 -0.0747
10605TIP3    H153230   3.788   2.963   2.584 -2.4819  2.4472  0.3623
10605TIP3    H253231   3.798   2.901   2.722  1.5629 -0.3708 -1.0098
10606TIP3   OH253232   0.501   3.044   2.494 -0.5379 -0.2809  0.4522
10606TIP3    H153233   0.524   2.960   2.453  1.7933 -0.4742  1.9995
10606TIP3    H253234   0.439   3.019   2.564 -1.0928 -0.4836 -0.0985
10607TIP3   OH253235   0.456   3.730  17.234 -0.2397 -0.5129  0.1397
10607TIP3    H153236   0.489   3.663  17.175 -3.0338 -1.4790 -0.4652
10607TIP3    H253237   0.391   3.685  17.288 -1.3485  1.4116  0.5185
10608TIP3   OH253238   6.665   5.867   4.038 -0.6530 -0.1912  0.0890
10608TIP3    H153239   6.736   5.931   4.042 -0.6425 -0.2582  1.5846
10608TIP3    H253240   6.708   5.785   4.013 -0.2953 -0.1049  0.4158
10609TIP3   OH253241   6.234   6.554   2.095  0.1904 -0.2575  0.2431
10609TIP3    H153242   6.214   6.524   2.183 -3.1593 -0.2478 -0.3500
10609TIP3    H253243   6.197   6.486   2.038 -0.5365  1.1888 -1.1057
10610TIP3   OH253244   3.329   3.445   3.977  0.9507  0.3442 -0.1198
10610TIP3    H153245   3.245   3.490   3.975  0.8936  0.2489  0.1331
10610TIP3    H253246   3.391   3.507   3.938  0.4288 -0.2938 -2.0603
10611TIP3   OH253247   1.845   0.597  13.444  0.4834  0.3181 -0.8070
10611TIP3    H153248   1.887   0.649  13.375 -0.4094  1.0323 -0.8218
10611TIP3    H253249   1.908   0.597  13.516 -0.6702  4.0511  0.4136
10612TIP3   OH253250   4.297   3.382   1.380 -0.0884  0.2384 -0.0240
10612TIP3    H153251   4.355   3.444   1.424  1.2274 -1.3994  0.6307
10612TIP3    H253252   4.210   3.403   1.414  0.4963  0.9464  1.1047
10613TIP3   OH253253   5.426   6.485  10.638 -0.0741  0.0103  0.6900
10613TIP3    H153254   5.345   6.531  10.658 -1.0973 -0.1022 -2.5976
10613TIP3    H253255   5.398   6.398  10.611  1.1991 -0.2047 -0.0119
10614TIP3   OH253256   0.369   2.854  15.852 -0.5724  0.6540 -0.0720
10614TIP3    H153257   0.305   2.883  15.787 -1.3918 -0.5360  0.1701
10614TIP3    H253258   0.346   2.763  15.869  0.2681  0.6456  1.1252
10615TIP3   OH253259   0.194   4.105  17.257  0.0362  0.1930  0.2845
10615TIP3    H153260   0.124   4.077  17.316 -0.7741  0.5952 -0.4631
10615TIP3    H253261   0.268   4.122  17.314 -0.5160 -0.1210  1.1101
10616TIP3   OH253262   0.309   2.094   3.221 -0.0349 -0.0158  0.1398
10616TIP3    H153263   0.214   2.099   3.230 -0.1129 -0.4181 -0.4201
10616TIP3    H253264   0.333   2.011   3.260  0.3072  0.8781  1.9202
10617TIP3   OH253265   6.495   1.336  15.920  0.3079  0.0529  0.3504
10617TIP3    H153266   6.494   1.240  15.926 -0.0527  0.0871  0.9076
10617TIP3    H253267   6.529   1.354  15.832  0.0251 -0.5937  0.0992
10618TIP3   OH253268   5.938   0.446  16.060 -0.3036 -0.3163 -0.1633
10618TIP3    H153269   5.877   0.467  15.990  0.6667 -0.4306 -1.0760
10618TIP3    H253270   5.944   0.527  16.112 -0.7230 -0.1005 -0.4489
10619TIP3   OH253271   5.363   6.019  15.890  0.2357 -0.2361  0.3478
10619TIP3    H153272   5.369   6.084  15.960  0.1156 -1.6505  1.7407
10619TIP3    H253273   5.394   6.064  15.812  0.8640  1.2494  1.4124
10620TIP3   OH253274   5.635   3.570  14.106 -0.2124 -0.0038  0.2440
10620TIP3    H153275   5.631   3.573  14.201 -2.2763 -0.9869  0.2341
10620TIP3    H253276   5.548   3.598  14.077  0.0364 -0.7348 -1.3021
10621TIP3   OH253277   4.958   3.296  14.322 -0.0661  0.5947 -0.1372
10621TIP3    H153278   4.891   3.238  14.358 -1.3829  2.0447 -0.1043
10621TIP3    H253279   5.027   3.297  14.388 -1.0592  0.8262  0.9479
10622TIP3   OH253280   0.649   3.627   0.721  0.0059 -0.1446  0.3811
10622TIP3    H153281   0.732   3.608   0.677  0.2560  0.7550  0.4497
10622TIP3    H253282   0.652   3.721   0.738 -1.2270 -0.0297 -0.0020
10623TIP3   OH253283   6.363   3.457  11.628  0.7254  0.4706 -0.1558
10623TIP3    H153284   6.271   3.434  11.635  0.8096 -0.0363 -0.6400
10623TIP3    H253285   6.371   3.541  11.672  0.2079  0.0670  0.7279
10624TIP3   OH253286   4.755   1.982  13.484  0.0108  0.1422  0.1328
10624TIP3    H153287   4.741   2.035  13.405 -0.0999  0.1191  0.1381
10624TIP3    H253288   4.772   2.046  13.553  2.6909  0.1271 -0.4067
10625TIP3   OH253289   1.663   6.161   2.465 -0.4374 -0.6368 -0.7507
10625TIP3    H153290   1.633   6.209   2.542 -1.6065  1.0522 -2.1739
10625TIP3    H253291   1.758   6.155   2.476 -0.5694 -0.3948  0.7845
10626TIP3   OH253292   6.329   6.134  14.536 -0.3695  0.4451 -0.6747
10626TIP3    H153293   6.319   6.187  14.615  1.3753  0.3864 -0.3700
10626TIP3    H253294   6.264   6.064  14.545 -0.9858  1.1154  0.1281
10627TIP3   OH253295   0.939   2.805  17.003  0.3008 -0.4416  0.2553
10627TIP3    H153296   0.900   2.750  16.936 -0.6698  0.7352 -0.1908
10627TIP3    H253297   0.898   2.777  17.084  0.3293 -0.8364  0.1355
10628TIP3   OH253298   0.857   1.886  14.731 -0.5032 -0.1394 -0.8295
10628TIP3    H153299   0.775   1.844  14.753 -0.7950 -0.3765 -2.2515
10628TIP3    H253300   0.832   1.960  14.675  0.0728  1.3589  0.7848
10629TIP3   OH253301   1.549   3.229   4.812  0.1622 -0.4948 -0.2879
10629TIP3    H153302   1.460   3.258   4.791  0.0158  0.9651  1.9622
10629TIP3    H253303   1.599   3.249   4.733 -0.9779  1.4079 -0.6130
10630TIP3   OH253304   2.118   1.722  12.782 -0.8930 -0.1830 -0.1120
10630TIP3    H153305   2.080   1.690  12.701 -0.9645  1.7158 -0.8784
10630TIP3    H253306   2.164   1.803  12.757 -0.2944  0.0520  1.6018
10631TIP3   OH253307   1.854   6.440  11.318 -0.1708  0.2110 -0.0216
10631TIP3    H153308   1.927   6.484  11.274  1.4796 -0.6456  1.7200
10631TIP3    H253309   1.775   6.479  11.278  1.2046  1.6788 -1.4675
10632TIP3   OH253310   1.716   0.891  13.338 -0.0075  0.1327  0.0386
10632TIP3    H153311   1.678   0.818  13.388  2.4711 -1.1852  0.1361
10632TIP3    H253312   1.752   0.950  13.404  0.1662  0.1784 -0.0961
10633TIP3   OH253313   5.703   3.149  14.651  0.0564  0.1904  0.1102
10633TIP3    H153314   5.735   3.238  14.640 -0.5852  0.4135  0.0031
10633TIP3    H253315   5.610   3.154  14.629 -0.0559 -0.4372  0.4208
10634TIP3   OH253316   2.889   0.915  11.923 -0.4220 -0.7242 -0.2935
10634TIP3    H153317   2.829   0.860  11.874 -0.0193 -1.4730  0.0434
10634TIP3    H253318   2.880   1.002  11.883 -1.7551 -0.8103 -0.2111
10635TIP3   OH253319   4.111   0.735  15.540 -0.0790 -0.0259 -0.0662
10635TIP3    H153320   4.186   0.767  15.491 -1.2019 -0.7279 -2.3642
10635TIP3    H253321   4.036   0.752  15.484 -1.6123  0.1381  1.9131
10636TIP3   OH253322   0.151   3.993  12.947  0.2766 -0.2025 -0.6434
10636TIP3    H153323   0.163   3.939  13.025 -1.0900  0.2839 -0.0590
10636TIP3    H253324   0.232   4.043  12.939  0.1778  0.2398  0.8718
10637TIP3   OH253325   1.755   6.595   5.431 -0.3973  0.1374 -0.6725
10637TIP3    H153326   1.720   6.507   5.417 -1.9300  0.6237 -0.1172
10637TIP3    H253327   1.800   6.615   5.349  0.6363 -1.4347 -0.5305
10638TIP3   OH253328   6.524   5.358   2.223 -0.2258  0.4395 -0.2547
10638TIP3    H153329   6.578   5.338   2.146 -0.4058  0.0416 -0.2773
10638TIP3    H253330   6.525   5.454   2.228 -0.2217  0.4709 -0.7634
10639TIP3   OH253331   5.586   2.908   0.220 -0.4476  0.1558 -0.5942
10639TIP3    H153332   5.598   2.847   0.147 -0.5719 -1.6473  0.8365
10639TIP3    H253333   5.492   2.902   0.240 -0.2705  0.0144  0.2210
10640TIP3   OH253334   1.485   4.694  12.683  0.2789  0.6195 -0.2187
10640TIP3    H153335   1.433   4.741  12.618  0.0308 -1.2321 -1.4219
10640TIP3    H253336   1.483   4.603  12.654  0.2179 -0.2808  2.3615
10641TIP3   OH253337   0.894   3.175  12.286  0.3691  0.2614  0.2377
10641TIP3    H153338   0.826   3.203  12.225  0.3378  0.2994  0.2889
10641TIP3    H253339   0.937   3.101  12.243  0.0227 -0.0248  0.3847
10642TIP3   OH253340   5.143   3.659   5.400 -0.0626 -0.0369 -0.8307
10642TIP3    H153341   5.139   3.633   5.492 -0.3341 -1.3622 -1.1969
10642TIP3    H253342   5.069   3.719   5.389 -0.1382 -0.0145 -0.2377
10643TIP3   OH253343   3.919   0.495   6.234  0.2693 -0.8283  0.1950
10643TIP3    H153344   3.840   0.459   6.273 -0.5835 -0.8229 -1.4328
10643TIP3    H253345   3.983   0.496   6.305 -0.8790 -1.7956  1.2843
10644TIP3   OH253346   0.974   2.830   3.913  0.1373  0.2854  0.1697
10644TIP3    H153347   0.919   2.909   3.922  0.0532  0.3916 -1.1622
10644TIP3    H253348   0.966   2.806   3.821 -0.2507 -1.5960  0.6646
10645TIP3   OH253349   6.201   2.689  11.566 -0.0743  0.2163  0.1078
10645TIP3    H153350   6.151   2.713  11.644 -1.6538  1.8851 -1.3287
10645TIP3    H253351   6.252   2.767  11.545  1.1794 -0.5930  0.0502
10646TIP3   OH253352   0.827   3.149  12.574 -0.0527  0.3726  0.3635
10646TIP3    H153353   0.801   3.057  12.570 -0.8040  0.6173 -1.2276
10646TIP3    H253354   0.883   3.161  12.497 -0.0223  1.2596  0.5166
10647TIP3   OH253355   5.702   0.601   1.564 -0.4521 -0.0762  0.2328
10647TIP3    H153356   5.666   0.622   1.478  0.3447  0.4214  0.0141
10647TIP3    H253357   5.777   0.544   1.545  1.0146  1.6885  0.4252
10648TIP3   OH253358   5.688   0.558   2.817  0.1179  0.6816  0.8007
10648TIP3    H153359   5.695   0.464   2.799  0.3224  0.7213  0.6683
10648TIP3    H253360   5.617   0.588   2.761  2.0600  1.1999 -1.5469
10649TIP3   OH253361   1.746   3.866   1.760  0.1534  0.0854 -0.4899
10649TIP3    H153362   1.653   3.853   1.742 -0.1641  0.8946  0.4941
10649TIP3    H253363   1.785   3.881   1.675 -0.5946 -0.3794 -0.9279
10650TIP3   OH253364   4.836   5.683  12.071 -0.3240  0.0187  0.1737
10650TIP3    H153365   4.815   5.608  12.127 -0.4041 -0.2282 -0.1790
10650TIP3    H253366   4.931   5.694  12.081  0.1260 -1.6522 -1.5781
10651TIP3   OH253367   5.558   5.483  15.434  0.1643 -0.3892 -0.4112
10651TIP3    H153368   5.496   5.437  15.377 -0.9574  1.6799 -0.9632
10651TIP3    H253369   5.549   5.575  15.410  2.0619  0.1892  0.8759
10652TIP3   OH253370   0.666   1.875   6.488  0.2308 -0.8013 -0.0874
10652TIP3    H153371   0.571   1.873   6.491  0.0839  2.3892 -0.1056
10652TIP3    H253372   0.692   1.914   6.572  1.2260  2.0258 -1.5909
10653TIP3   OH253373   2.086   4.146   3.585 -0.4816  0.1839  0.1353
10653TIP3    H153374   2.130   4.220   3.624 -0.0259  1.3353 -2.3466
10653TIP3    H253375   1.992   4.167   3.593 -0.3609  0.9617 -0.3842
10654TIP3   OH253376   2.737   1.876   5.236 -0.2178 -0.4922  0.2240
10654TIP3    H153377   2.656   1.895   5.283 -0.9541  1.2240 -1.5928
10654TIP3    H253378   2.776   1.961   5.219  1.3155 -1.2243 -0.0770
10655TIP3   OH253379   2.200   3.358   3.724 -0.8972  0.4304  0.2003
10655TIP3    H153380   2.176   3.349   3.632 -2.8153 -1.8736  0.8016
10655TIP3    H253381   2.207   3.268   3.756 -1.9535  1.1367  2.6841
10656TIP3   OH253382   3.616   6.365   2.426  0.1191  0.6262  0.4697
10656TIP3    H153383   3.624   6.440   2.485  0.7158  1.2473 -0.3837
10656TIP3    H253384   3.672   6.387   2.351 -0.2835 -0.3374 -0.1311
10657TIP3   OH253385   1.262   6.346   4.184  0.2335  0.6890 -0.3769
10657TIP3    H153386   1.261   6.425   4.130  1.5522  0.8592 -0.1955
10657TIP3    H253387   1.184   6.298   4.158 -1.4351  2.7295  0.5269
10658TIP3   OH253388   2.189   0.165  14.707 -0.1551 -0.5249  0.3068
10658TIP3    H153389   2.153   0.126  14.787 -2.2636  0.9002  0.1570
10658TIP3    H253390   2.115   0.165  14.646  0.7818  0.4045 -0.8721
10659TIP3   OH253391   3.769   5.684   1.572 -0.0090 -0.6247 -0.4537
10659TIP3    H153392   3.848   5.674   1.518  0.7761 -0.7327  0.6833
10659TIP3    H253393   3.715   5.608   1.549  0.1992 -0.5430 -1.2566
10660TIP3   OH253394   2.331   4.236  12.684  0.0695 -0.7223  0.3349
10660TIP3    H153395   2.392   4.172  12.721  0.0138 -0.9993 -0.0509
10660TIP3    H253396   2.256   4.234  12.743  0.1476 -0.8692  0.4307
10661TIP3   OH253397   1.415   4.378  12.213  0.0214 -0.6272 -0.5490
10661TIP3    H153398   1.366   4.395  12.294  0.1197 -0.7981 -0.4530
10661TIP3    H253399   1.507   4.385  12.239  0.1283 -2.7352 -0.1579
10662TIP3   OH253400   5.433   5.113  11.371 -0.0902 -1.0077  0.7404
10662TIP3    H153401   5.459   5.021  11.368  0.9484 -0.7186 -0.9832
10662TIP3    H253402   5.340   5.112  11.392 -0.0117 -2.4214  1.1179
10663TIP3   OH253403   3.398   0.273  15.483  0.3479 -0.0828 -0.6746
10663TIP3    H153404   3.373   0.362  15.508  0.4201 -0.6189  1.4622
10663TIP3    H253405   3.491   0.280  15.461  1.7064 -0.2778  3.8926
10664TIP3   OH253406   4.587   4.085   1.902 -0.2074 -0.0772 -0.4117
10664TIP3    H153407   4.620   4.160   1.852 -0.8758  1.2573  1.0540
10664TIP3    H253408   4.616   4.008   1.852  2.0628  1.0924 -1.0471
10665TIP3   OH253409   5.738   1.128   2.908 -0.3154  1.3091  0.2090
10665TIP3    H153410   5.761   1.121   3.001 -0.3026  1.6137  0.2291
10665TIP3    H253411   5.758   1.042   2.872  2.1590  1.9191 -0.0642
10666TIP3   OH253412   5.081   2.077  13.489 -0.2337 -0.1937  0.1396
10666TIP3    H153413   5.081   2.173  13.499 -0.7580 -0.1518 -0.2390
10666TIP3    H253414   5.050   2.062  13.400 -1.6278 -0.7557  0.6913
10667TIP3   OH253415   3.334   5.465  15.142  0.3050 -0.7646  0.7207
10667TIP3    H153416   3.368   5.553  15.126 -0.0982 -0.7806 -0.3250
10667TIP3    H253417   3.295   5.469  15.229 -0.3252  0.2964  0.4076
10668TIP3   OH253418   6.664   4.090   6.361  0.0819 -0.1488 -0.2200
10668TIP3    H153419   6.753   4.055   6.370 -0.3783 -1.1861  0.5640
10668TIP3    H253420   6.665   4.171   6.411  1.0736  0.8464 -1.7574
10669TIP3   OH253421   1.513   5.772  15.640  0.3342 -0.2251  0.2871
10669TIP3    H153422   1.465   5.763  15.557  2.4234  2.1173 -1.3191
10669TIP3    H253423   1.451   5.813  15.700 -0.7784 -0.6305 -0.5624
10670TIP3   OH253424   6.239   5.199   3.511  0.2005  0.2797  0.3027
10670TIP3    H153425   6.290   5.139   3.565 -1.8278 -0.3713  1.6337
10670TIP3    H253426   6.167   5.228   3.568 -0.5131  1.7088 -1.2212
10671TIP3   OH253427   3.500   1.198   2.320 -0.3757 -0.3331 -0.3723
10671TIP3    H153428   3.488   1.268   2.384 -0.3543  0.9665 -1.7193
10671TIP3    H253429   3.411   1.173   2.295 -0.4210 -1.7539  1.0520
10672TIP3   OH253430   3.925   0.954   1.553 -0.4143  0.1006 -0.2833
10672TIP3    H153431   4.002   0.943   1.609  0.4310 -1.9444 -1.7033
10672TIP3    H253432   3.858   0.990   1.611  0.6854 -0.9838  1.7819
10673TIP3   OH253433   2.568   2.394  13.823  0.1934 -0.6532 -0.3011
10673TIP3    H153434   2.508   2.427  13.891  1.8055  0.3506  0.6966
10673TIP3    H253435   2.551   2.300  13.820 -0.1571 -0.6719  1.2731
10674TIP3   OH253436   4.738   4.438   5.711 -0.1930  0.3350  0.2960
10674TIP3    H153437   4.786   4.355   5.707 -0.3195  0.1523  1.9333
10674TIP3    H253438   4.788   4.497   5.655  1.4995 -0.0911  1.2637
10675TIP3   OH253439   6.716   3.393   3.365 -0.9431 -0.2820  0.8646
10675TIP3    H153440   6.743   3.420   3.453 -3.3671  1.1282  1.2739
10675TIP3    H253441   6.666   3.312   3.379 -0.8784 -0.3485  0.7130
10676TIP3   OH253442   0.795   1.440  13.930 -0.1502 -0.0465 -0.6038
10676TIP3    H153443   0.775   1.500  14.002 -1.3503  1.2674 -1.9678
10676TIP3    H253444   0.717   1.385  13.923  0.5628 -1.1503  0.0279
10677TIP3   OH253445   0.254   5.446   0.623  0.2571 -0.0098 -0.2210
10677TIP3    H153446   0.266   5.353   0.608  2.2543 -0.2102  1.9361
10677TIP3    H253447   0.215   5.451   0.711 -2.2914  1.1872 -1.3124
10678TIP3   OH253448   3.618   1.396   4.803  0.5452 -0.3976  0.2898
10678TIP3    H153449   3.611   1.302   4.787 -1.3910 -0.2347 -0.0288
10678TIP3    H253450   3.685   1.426   4.741  0.3475 -1.3785 -0.4241
10679TIP3   OH253451   3.047   0.280   4.380  0.1567  0.0178  0.2494
10679TIP3    H153452   2.985   0.353   4.382  0.1192  0.0178 -0.5719
10679TIP3    H253453   2.996   0.207   4.345  0.5518 -0.0388 -0.2252
10680TIP3   OH253454   1.882   4.379  11.488 -0.1137  0.0528 -0.1417
10680TIP3    H153455   1.883   4.475  11.494  1.1957  0.0509 -0.0277
10680TIP3    H253456   1.850   4.361  11.400 -3.2596  0.4952  0.7929
10681TIP3   OH253457   1.733   2.697  12.365 -0.2791 -0.0499 -0.1478
10681TIP3    H153458   1.739   2.659  12.277  0.3258  0.6811 -0.4304
10681TIP3    H253459   1.824   2.713  12.390 -0.4169 -0.8124  0.8621
10682TIP3   OH253460   2.388   6.016  17.235 -0.4673  0.2853  0.3554
10682TIP3    H153461   2.481   6.027  17.213 -0.2673 -1.1273  0.3780
10682TIP3    H253462   2.342   6.035  17.153 -0.2002  1.3343  0.4324
10683TIP3   OH253463   2.636   4.478   3.553  0.1267 -0.2270 -0.7994
10683TIP3    H153464   2.672   4.515   3.634 -0.0050 -1.8794  0.0659
10683TIP3    H253465   2.702   4.497   3.487 -0.7731  3.1716 -0.8894
10684TIP3   OH253466   6.017   1.031   0.558  0.6099 -0.7472 -0.1050
10684TIP3    H153467   6.042   0.944   0.525  0.5600 -0.1762 -1.7051
10684TIP3    H253468   6.044   1.091   0.490  0.1358  0.4638  0.7475
10685TIP3   OH253469   2.838   6.076   3.868  0.4259  0.0970  0.5238
10685TIP3    H153470   2.762   6.068   3.925 -0.3761 -1.0302 -0.6291
10685TIP3    H253471   2.911   6.098   3.927 -0.5350 -0.0997  1.8285
10686TIP3   OH253472   6.309   0.411   5.160 -0.3210  0.1681  0.1544
10686TIP3    H153473   6.318   0.340   5.097 -0.4716  0.0033  0.3196
10686TIP3    H253474   6.381   0.398   5.222 -0.4625  0.0462  0.2947
10687TIP3   OH253475   5.344   6.565   3.539 -0.0497  0.2775  0.3080
10687TIP3    H153476   5.415   6.596   3.595  0.0049  0.6470  0.0329
10687TIP3    H253477   5.291   6.508   3.596  0.5813 -0.1684  0.4567
10688TIP3   OH253478   3.970   3.448  12.695  0.3109 -0.0565 -0.4310
10688TIP3    H153479   4.006   3.431  12.608 -0.1197  0.9163 -0.8129
10688TIP3    H253480   4.042   3.489  12.743  0.6320 -0.8376 -0.2420
10689TIP3   OH253481   1.722   1.908  12.357 -0.2943  0.0239  0.1774
10689TIP3    H153482   1.674   1.896  12.275  0.0544 -0.1647  0.0037
10689TIP3    H253483   1.656   1.892  12.425 -0.6317  0.3755 -0.0629
10690TIP3   OH253484   3.744   1.979   5.752 -0.1112  0.3975  0.3861
10690TIP3    H153485   3.672   2.041   5.767 -0.3496 -0.1730  1.8485
10690TIP3    H253486   3.764   1.945   5.840  2.8746  1.5309  0.2893
10691TIP3   OH253487   3.633   0.605   2.972 -0.1783 -0.0756  0.8826
10691TIP3    H153488   3.558   0.633   2.919 -0.3833 -0.2778  1.0613
10691TIP3    H253489   3.636   0.510   2.961 -0.1300 -0.1022  1.1114
10692TIP3   OH253490   5.966   4.968  15.776 -0.0524  0.3481 -0.2193
10692TIP3    H153491   5.923   4.929  15.852 -0.0584 -0.3930 -0.5890
10692TIP3    H253492   5.917   5.048  15.758 -2.0447 -1.0177 -1.3247
10693TIP3   OH253493   3.561   2.681  12.077 -0.2158  0.1997  0.2599
10693TIP3    H153494   3.503   2.634  12.017 -0.0346 -0.0027  0.2463
10693TIP3    H253495   3.605   2.746  12.022 -0.5167  0.4355  0.2928
10694TIP3   OH253496   0.783   2.897   6.283  0.2273 -0.1024  0.3152
10694TIP3    H153497   0.712   2.925   6.340  1.0594 -0.0764  1.3590
10694TIP3    H253498   0.862   2.899   6.338  1.1014  0.1680 -0.8869
10695TIP3   OH253499   5.604   0.213   2.259 -1.0495 -0.1337  0.1155
10695TIP3    H153500   5.586   0.212   2.353  0.0663  2.4349  0.4365
10695TIP3    H253501   5.672   0.147   2.247  1.2406  1.7433  1.7778
10696TIP3   OH253502   0.552   3.069  16.278  0.1841 -0.6795 -0.2742
10696TIP3    H153503   0.476   3.110  16.320  1.3161 -1.4052  2.7510
10696TIP3    H253504   0.582   3.134  16.214 -1.2985  0.8463  0.5062
10697TIP3   OH253505   3.331   5.016   0.246 -0.8772 -0.3880  0.0094
10697TIP3    H153506   3.378   4.935   0.267 -1.3880 -0.5862  0.4053
10697TIP3    H253507   3.306   5.051   0.331 -1.8933 -0.5468 -0.2196
10698TIP3   OH253508   0.683   1.522  15.647  0.0264  0.4168 -0.2584
10698TIP3    H153509   0.730   1.439  15.640 -1.6837 -0.6063 -0.0262
10698TIP3    H253510   0.622   1.509  15.719  1.2249  2.6761  1.3047
10699TIP3   OH253511   1.233   5.953  15.597 -0.6513 -0.1592  0.0333
10699TIP3    H153512   1.156   5.906  15.563  0.5766 -1.8783 -0.5545
10699TIP3    H253513   1.249   5.913  15.682 -0.2989  0.0710  0.0747
10700TIP3   OH253514   4.854   0.549   5.261  0.0711 -0.1645  0.4884
10700TIP3    H153515   4.857   0.527   5.168 -1.0301 -0.2638  0.4665
10700TIP3    H253516   4.881   0.468   5.305  0.8801 -0.0313  0.2665
10701TIP3   OH253517   4.854   1.711  15.442 -0.3618  0.2940  0.4790
10701TIP3    H153518   4.758   1.707  15.439 -0.3486  0.5472 -0.5673
10701TIP3    H253519   4.881   1.622  15.464 -0.8432  0.2863  1.0544
10702TIP3   OH253520   0.023   0.102   6.776  0.0832 -0.0337 -1.4038
10702TIP3    H153521  -0.046   0.086   6.711  0.3472 -0.0590 -1.6803
10702TIP3    H253522  -0.009   0.059   6.855 -0.4253  0.3461 -1.4038
10703TIP3   OH253523   2.868   6.525   4.290 -0.1375  0.3938 -0.3040
10703TIP3    H153524   2.874   6.496   4.199  1.4874 -0.5631  0.0709
10703TIP3    H253525   2.956   6.510   4.326 -0.9587 -0.0220  1.6586
10704TIP3   OH253526   2.488   2.860  10.440  0.2184  0.1290  0.1684
10704TIP3    H153527   2.482   2.923  10.369 -0.4618  0.5765  0.6147
10704TIP3    H253528   2.443   2.782  10.406  2.7581 -0.9150 -1.1633
10705TIP3   OH253529   1.598   2.646  13.719 -0.0208 -0.5516  0.0167
10705TIP3    H153530   1.590   2.705  13.644  2.6787  0.6376  0.5375
10705TIP3    H253531   1.656   2.576  13.689 -0.9496 -1.4733  0.2804
10706TIP3   OH253532   2.369   5.145  15.054 -0.4606  0.2187  0.6106
10706TIP3    H153533   2.381   5.060  15.010 -0.7446  0.3204  0.3360
10706TIP3    H253534   2.277   5.167  15.040 -0.2230  0.9111  0.0545
10707TIP3   OH253535   3.591   1.660  14.981 -0.2099 -0.1134 -0.0961
10707TIP3    H153536   3.634   1.738  14.946 -4.5874  1.4676 -2.6543
10707TIP3    H253537   3.587   1.599  14.907  0.9614 -1.8921  1.2095
10708TIP3   OH253538   6.333   5.404  12.778 -0.2917 -0.3309 -0.5084
10708TIP3    H153539   6.365   5.483  12.822 -0.1847 -0.6309 -0.0292
10708TIP3    H253540   6.396   5.336  12.804 -1.4404 -0.9967  0.6718
10709TIP3   OH253541   4.279   5.461  11.992 -0.0427 -0.2336  0.3770
10709TIP3    H153542   4.237   5.547  11.986 -0.6537 -0.6447 -3.2568
10709TIP3    H253543   4.215   5.401  11.953  0.9868 -2.1387  1.4745
10710TIP3   OH253544   1.089   0.874   4.559  0.1553  0.0374  0.1273
10710TIP3    H153545   1.086   0.791   4.606  0.9852  0.1667  0.4287
10710TIP3    H253546   1.182   0.891   4.545 -0.0351  0.5647 -0.5652
10711TIP3   OH253547   0.412   0.351   6.130 -0.0582  0.1164 -0.6364
10711TIP3    H153548   0.364   0.299   6.066 -0.0084  0.9008 -1.3315
10711TIP3    H253549   0.493   0.302   6.145 -0.4027 -0.4488 -0.6005
10712TIP3   OH253550   1.882   1.948  17.235 -0.1926  0.2943  0.6372
10712TIP3    H153551   1.856   1.864  17.274 -0.5427  0.5593  0.9837
10712TIP3    H253552   1.873   1.935  17.141 -0.4716  0.0139  0.7017
10713TIP3   OH253553   3.544   2.155   2.808 -0.3770 -0.4839  0.4283
10713TIP3    H153554   3.559   2.069   2.847 -1.2021 -0.6759  0.3438
10713TIP3    H253555   3.457   2.149   2.769 -1.0059  0.8159  1.5667
10714TIP3   OH253556   1.485   4.718   3.043  0.5121 -0.0906  0.5411
10714TIP3    H153557   1.548   4.665   3.093  0.2091 -0.3747  0.6206
10714TIP3    H253558   1.507   4.808   3.066  1.4824 -0.1407 -0.1298
10715TIP3   OH253559   5.833   5.217  16.966  0.0554 -0.6985  0.0126
10715TIP3    H153560   5.886   5.200  17.044  1.2168 -0.6659 -0.7567
10715TIP3    H253561   5.895   5.250  16.901 -1.2679  1.5396 -0.2161
10716TIP3   OH253562   2.673   1.030  10.960 -0.0824 -0.3561 -0.0560
10716TIP3    H153563   2.654   0.989  11.044  1.3026 -0.0605  0.4249
10716TIP3    H253564   2.681   0.957  10.899 -0.7112 -0.5919  0.1270
10717TIP3   OH253565   4.535   4.342   5.224  0.1932 -0.3619  0.4032
10717TIP3    H153566   4.545   4.395   5.145  0.1830 -1.7169 -0.5433
10717TIP3    H253567   4.464   4.281   5.204 -0.9102  0.3029  2.0752
10718TIP3   OH253568   2.253   2.292   3.942 -0.2616  0.3330 -0.0153
10718TIP3    H153569   2.242   2.381   3.976  0.1337  1.0382 -1.6083
10718TIP3    H253570   2.309   2.249   4.006  0.6741  1.6801  0.1198
10719TIP3   OH253571   1.869   0.425   2.386 -0.4019 -0.4532  0.3123
10719TIP3    H153572   1.850   0.350   2.442 -1.1978 -0.9745 -0.6060
10719TIP3    H253573   1.962   0.418   2.366 -0.6751 -1.8250 -0.5977
10720TIP3   OH253574   5.415   1.101  14.913  0.0666  0.5097  0.4978
10720TIP3    H153575   5.470   1.179  14.909 -0.4107  0.9062  1.4568
10720TIP3    H253576   5.336   1.125  14.863  0.4370  0.1924 -0.2620
10721TIP3   OH253577   1.071   2.283  16.478  0.1655  0.1668  0.8487
10721TIP3    H153578   1.126   2.359  16.497  1.9852 -1.2392  1.4331
10721TIP3    H253579   0.985   2.308  16.511  0.2081  2.6846 -0.6801
10722TIP3   OH253580   5.942   0.237  15.505 -0.1275 -0.2464 -0.2581
10722TIP3    H153581   5.898   0.233  15.421 -0.8970  0.2232  0.1103
10722TIP3    H253582   5.873   0.221  15.570  0.7511 -2.2907  0.2427
10723TIP3   OH253583   6.618   0.785  16.783  0.2962  0.1028  0.1872
10723TIP3    H153584   6.691   0.763  16.841 -0.9369  1.6836  2.4907
10723TIP3    H253585   6.541   0.781  16.840 -1.0227  1.4260 -1.4361
10724TIP3   OH253586   3.291   4.507   3.634 -0.1780  0.7991 -0.1234
10724TIP3    H153587   3.337   4.429   3.664 -0.6836  0.2366 -0.7620
10724TIP3    H253588   3.199   4.479   3.626 -0.9362  2.2595  2.4596
10725TIP3   OH253589   0.734   4.410  15.274 -0.1556  0.2434  0.0604
10725TIP3    H153590   0.641   4.395  15.258 -0.0398  1.2336 -1.9656
10725TIP3    H253591   0.774   4.404  15.187  1.3697  1.7184  0.6033
10726TIP3   OH253592   5.777   1.441   5.298 -0.1221 -0.4313 -0.1912
10726TIP3    H153593   5.817   1.385   5.363  2.3979  3.1226  1.6778
10726TIP3    H253594   5.840   1.445   5.227 -0.1691  0.1661 -0.2058
10727TIP3   OH253595   0.582   0.607  15.716 -0.1196 -0.0067 -0.1570
10727TIP3    H153596   0.614   0.660  15.789 -0.1465 -1.0241  0.6148
10727TIP3    H253597   0.633   0.526  15.722  0.4314  0.2026 -1.7536
10728TIP3   OH253598   1.719   3.348   1.324  0.2444  0.8236 -0.3688
10728TIP3    H153599   1.711   3.340   1.419  0.7449  2.0724 -0.1983
10728TIP3    H253600   1.780   3.421   1.311 -0.0908  0.9037 -1.6544
10729TIP3   OH253601   4.162   4.249  14.073 -0.4856  0.4527  0.4022
10729TIP3    H153602   4.083   4.305  14.073 -0.1560  1.1397 -2.7281
10729TIP3    H253603   4.163   4.210  13.985  2.8829  0.8417  0.1293
10730TIP3   OH253604   0.883   0.854  12.835 -0.3659  0.8687 -0.1343
10730TIP3    H153605   0.881   0.771  12.787  0.6476 -0.3921  1.8692
10730TIP3    H253606   0.969   0.890  12.816  0.0419  0.3614  0.6691
10731TIP3   OH253607   5.672   1.140  12.471 -0.4160  0.1669 -0.1823
10731TIP3    H153608   5.732   1.154  12.399 -0.0319 -0.5947 -0.0185
10731TIP3    H253609   5.594   1.191  12.448  0.5895  1.8637  0.0135
10732TIP3   OH253610   1.088   1.434  14.881 -0.1178  0.0644 -0.4476
10732TIP3    H153611   1.048   1.519  14.901  0.2735  0.1222  0.1011
10732TIP3    H253612   1.162   1.456  14.824  0.6060  0.1972  0.5296
10733TIP3   OH253613   2.215   6.230   5.654 -0.0666  0.5911 -0.7842
10733TIP3    H153614   2.140   6.278   5.690  0.0601  0.2195  0.0056
10733TIP3    H253615   2.178   6.145   5.627  0.0924  0.3460 -0.2447
10734TIP3   OH253616   4.573   4.261  16.278  0.2728  0.0882  0.4346
10734TIP3    H153617   4.481   4.276  16.298  0.0440 -1.2275  0.4901
10734TIP3    H253618   4.615   4.251  16.363  0.0120 -1.5997  0.4155
10735TIP3   OH253619   5.943   0.352  13.376  0.5412  0.6402 -0.2471
10735TIP3    H153620   5.985   0.416  13.434  1.2857  1.4430 -1.6175
10735TIP3    H253621   5.855   0.341  13.412  0.8616  1.3924  0.8091
10736TIP3   OH253622   0.370   2.007  16.797 -0.4343  1.1643  0.5554
10736TIP3    H153623   0.302   1.945  16.822  0.7202 -0.1015  0.6823
10736TIP3    H253624   0.347   2.033  16.708 -0.5325 -0.0636  0.1965
10737TIP3   OH253625   4.110   6.606   0.650  0.3948  0.0717 -0.1161
10737TIP3    H153626   4.032   6.551   0.644  0.4675  0.1026 -1.8334
10737TIP3    H253627   4.143   6.590   0.739 -0.2663 -1.7231 -0.1371
10738TIP3   OH253628   0.996   0.384   6.445 -0.2795 -0.3840  0.5855
10738TIP3    H153629   1.078   0.376   6.494 -1.5028 -1.3218  2.6100
10738TIP3    H253630   0.977   0.295   6.416  0.6467  0.2161 -2.1255
10739TIP3   OH253631   0.838   1.518   5.148  0.0073  0.7096  0.0003
10739TIP3    H153632   0.924   1.528   5.189  0.1845  0.1961 -0.2347
10739TIP3    H253633   0.804   1.436   5.184 -0.1185  0.5944 -0.3725
10740TIP3   OH253634   3.205   2.639   4.938  0.6206  0.1884  0.3626
10740TIP3    H153635   3.230   2.707   5.000  2.8917  0.1800 -0.4373
10740TIP3    H253636   3.260   2.655   4.861 -0.2597 -1.3280 -0.6445
10741TIP3   OH253637   0.727   3.657   5.569  0.3849  0.0983  0.4962
10741TIP3    H153638   0.724   3.714   5.646  1.8042  0.7563  0.1061
10741TIP3    H253639   0.675   3.703   5.503  1.0059  0.6545  0.3817
10742TIP3   OH253640   3.887   6.544   3.876 -0.2482  0.3178  0.1658
10742TIP3    H153641   3.934   6.595   3.810 -0.8423 -0.3907 -0.8336
10742TIP3    H253642   3.932   6.564   3.958  1.6422 -0.1211 -0.6990
10743TIP3   OH253643   2.373   3.980  14.740  0.2533  0.1467  0.1650
10743TIP3    H153644   2.453   3.979  14.791  0.0882 -0.7863  0.4390
10743TIP3    H253645   2.376   3.899  14.688 -1.2002 -0.7015  1.3222
10744TIP3   OH253646   3.100   6.354  15.585 -0.6646  0.3439 -0.0057
10744TIP3    H153647   3.020   6.394  15.617 -0.3639  1.1411 -0.2270
10744TIP3    H253648   3.094   6.262  15.613 -1.2841  0.5776  0.6625
10745TIP3   OH253649   6.476   0.485   3.491  0.1203 -0.1811 -0.5690
10745TIP3    H153650   6.449   0.394   3.495  0.2545 -0.2019 -0.1081
10745TIP3    H253651   6.429   0.527   3.563  0.2520  0.0638 -0.6239
10746TIP3   OH253652   5.092   2.328  17.338 -0.1243  0.1137  0.1807
10746TIP3    H153653   5.064   2.244  17.374 -3.5119  1.1193  0.2959
10746TIP3    H253654   5.107   2.384  17.415 -1.7424  0.6495  0.1465
10747TIP3   OH253655   3.228   1.560  16.735 -0.1474  0.6011  0.0028
10747TIP3    H153656   3.164   1.535  16.668 -1.2627  1.9064  0.5214
10747TIP3    H253657   3.277   1.632  16.696  0.5510  0.0609 -0.1335
10748TIP3   OH253658   5.901   5.230  15.747  0.5877 -0.3550 -0.7651
10748TIP3    H153659   5.852   5.305  15.781  0.1391 -0.9284 -0.1307
10748TIP3    H253660   5.989   5.241  15.784  0.6098  0.0193 -0.9220
10749TIP3   OH253661   6.252   4.136  14.564  0.1746  0.5170  0.0953
10749TIP3    H153662   6.259   4.041  14.565 -1.1858  0.4023  0.7381
10749TIP3    H253663   6.342   4.167  14.576  0.7987 -0.6570 -1.3179
10750TIP3   OH253664   0.953   3.691  15.779 -0.0411  0.7415  0.0790
10750TIP3    H153665   1.025   3.743  15.744 -1.0672  1.2087 -1.4059
10750TIP3    H253666   0.924   3.740  15.856  1.5480  0.2485  1.0545
10751TIP3   OH253667   4.428   2.133  13.003 -0.2175  0.1029  0.1436
10751TIP3    H153668   4.438   2.115  12.909 -1.1120  2.4243 -0.4527
10751TIP3    H253669   4.501   2.191  13.024  0.2405 -0.7607  1.0261
10752TIP3   OH253670   4.640   5.463  17.004 -0.4040 -0.1926  0.3628
10752TIP3    H153671   4.575   5.533  17.002 -0.7784 -0.5055  1.2856
10752TIP3    H253672   4.612   5.406  17.076  0.6966 -0.5179  0.5462
10753TIP3   OH253673   4.747   1.951  16.209 -0.0710  0.0381 -0.2650
10753TIP3    H153674   4.749   1.964  16.115  0.5941 -2.0118 -0.5884
10753TIP3    H253675   4.839   1.955  16.236 -0.3029  1.1781  0.4071
10754TIP3   OH253676   1.165   5.667   4.154 -0.1285 -0.0787 -0.2416
10754TIP3    H153677   1.152   5.746   4.101 -1.8123  0.3212  0.6826
10754TIP3    H253678   1.150   5.697   4.244  0.5050 -1.1903  0.2505
10755TIP3   OH253679   5.116   4.918   1.377  0.2018 -0.5984  0.2810
10755TIP3    H153680   5.097   4.874   1.294 -0.7905 -1.7058  1.0575
10755TIP3    H253681   5.118   4.848   1.441  1.2788  0.2080  1.1680
10756TIP3   OH253682   0.324   3.733  12.890 -0.7188  0.2692 -0.1994
10756TIP3    H153683   0.310   3.653  12.940 -0.7911  0.5163  0.1859
10756TIP3    H253684   0.264   3.797  12.929  1.0029  1.1759  1.0957
10757TIP3   OH253685   3.111   2.744  13.911  0.2576 -0.8058  0.3204
10757TIP3    H153686   3.147   2.803  13.844  0.5060 -1.6431 -0.3081
10757TIP3    H253687   3.019   2.767  13.916  0.9503  1.9693  2.5745
10758TIP3   OH253688   0.080   3.045  12.023  0.7386 -0.0748 -0.2872
10758TIP3    H153689   0.002   3.096  12.042 -0.5893 -1.6872 -1.1135
10758TIP3    H253690   0.153   3.104  12.042 -0.6035  1.0036  1.9858
10759TIP3   OH253691   1.080   2.165  14.429  0.4143  0.0513  0.0185
10759TIP3    H153692   1.165   2.161  14.385 -0.0592 -0.0350 -0.9148
10759TIP3    H253693   1.020   2.199  14.363 -0.5146 -1.0050  0.2740
10760TIP3   OH253694   0.577   5.378  12.792 -0.6138  0.5853  0.2510
10760TIP3    H153695   0.535   5.356  12.875  0.2940  0.4002  0.6720
10760TIP3    H253696   0.642   5.444  12.814 -0.5342  0.7198 -0.3566
10761TIP3   OH253697   0.365   5.256   5.501  0.3575 -0.1123 -0.5256
10761TIP3    H153698   0.368   5.252   5.406  1.1135  1.2519 -0.5724
10761TIP3    H253699   0.454   5.238   5.530  0.4363  0.8257 -0.1445
10762TIP3   OH253700   6.637   1.999   6.436  0.1569  0.1255 -0.2879
10762TIP3    H153701   6.632   2.055   6.513 -2.2929 -0.0984 -0.1896
10762TIP3    H253702   6.679   1.919   6.467  0.6261  0.6334  0.4098
10763TIP3   OH253703   5.091   1.982   1.048  0.3393  0.1482  0.0238
10763TIP3    H153704   5.020   2.008   0.990 -0.0583 -1.3831 -0.2182
10763TIP3    H253705   5.069   2.023   1.132  0.0468  1.0136 -0.4600
10764TIP3   OH253706   0.983   4.393   0.519 -0.2675  0.4999 -0.2219
10764TIP3    H153707   1.059   4.449   0.527  1.7115 -0.6636 -5.9267
10764TIP3    H253708   0.911   4.453   0.500  0.7475  1.4395 -1.2808
10765TIP3   OH253709   5.640   5.216   3.047  0.2189  0.1354  0.3136
10765TIP3    H153710   5.568   5.275   3.025 -0.1751 -0.5412 -0.2693
10765TIP3    H253711   5.717   5.273   3.050 -0.2453  0.7719  0.3454
10766TIP3   OH253712   3.991   6.114   3.193 -0.5975 -0.0549  0.5841
10766TIP3    H153713   4.046   6.147   3.122  0.0674 -0.2636  0.9974
10766TIP3    H253714   3.913   6.170   3.191 -0.3178  0.3197  0.0725
10767TIP3   OH253715   1.737   0.582   2.986 -0.5416  0.0296 -0.2378
10767TIP3    H153716   1.719   0.497   3.027 -0.3507 -0.0869 -0.3919
10767TIP3    H253717   1.824   0.605   3.015 -0.5944  0.1736 -0.1961
10768TIP3   OH253718   2.686   0.948  14.204 -0.4628 -0.4421 -0.0963
10768TIP3    H153719   2.660   0.968  14.114  1.5792  1.0181 -0.4127
10768TIP3    H253720   2.760   0.888  14.194  0.9215  1.1238  0.5281
10769TIP3   OH253721   3.699   2.384   3.714 -0.2365  0.1092 -0.4445
10769TIP3    H153722   3.632   2.360   3.778  0.4695 -0.3550  0.1342
10769TIP3    H253723   3.669   2.468   3.679 -0.6939  0.3202  0.4080
10770TIP3   OH253724   2.819   2.112  12.016  0.3832  0.0269  0.0056
10770TIP3    H153725   2.735   2.079  12.048  0.8407 -0.1564  1.0627
10770TIP3    H253726   2.802   2.205  11.998 -0.6018 -0.4632 -1.9019
10771TIP3   OH253727   1.538   1.149   3.742 -0.3631 -0.4261 -0.3408
10771TIP3    H153728   1.481   1.225   3.731  0.0994  0.5550  2.8620
10771TIP3    H253729   1.626   1.185   3.737 -0.1147 -0.9962 -0.1056
10772TIP3   OH253730   3.576   3.144  12.842  0.6042  0.5184 -0.4077
10772TIP3    H153731   3.547   3.053  12.836  0.9209  0.4822 -2.0475
10772TIP3    H253732   3.670   3.141  12.829  0.5833  1.0865 -0.7518
10773TIP3   OH253733   2.843   5.182  11.091 -0.2757  0.5763 -0.2726
10773TIP3    H153734   2.850   5.181  10.996 -1.3696  1.7319 -0.4075
10773TIP3    H253735   2.765   5.129  11.110 -1.1297  1.7980 -0.1982
10774TIP3   OH253736   2.434   4.203   2.560 -0.5931  0.1105  0.9028
10774TIP3    H153737   2.434   4.298   2.572 -1.3458  0.1004  1.0305
10774TIP3    H253738   2.485   4.169   2.634  1.2806  0.5040 -0.1266
10775TIP3   OH253739   4.635   0.877  14.128  0.3087  0.5313 -0.0835
10775TIP3    H153740   4.562   0.879  14.190 -1.1042 -1.0220 -1.5882
10775TIP3    H253741   4.704   0.828  14.174 -1.1928 -1.7983 -0.1320
10776TIP3   OH253742   4.040   2.944  16.279  0.2684 -0.5725  0.4863
10776TIP3    H153743   4.114   2.998  16.307  0.6012 -1.6210  1.7202
10776TIP3    H253744   4.007   2.905  16.359 -0.7332 -1.2401 -0.2272
10777TIP3   OH253745   5.378   6.014   5.543  0.0389 -0.5051  0.0445
10777TIP3    H153746   5.291   5.990   5.512 -0.2840 -0.1882  0.6818
10777TIP3    H253747   5.378   5.989   5.635 -0.4291  2.1804  0.8525
10778TIP3   OH253748   2.860   0.393   0.102 -0.2119 -0.1777  0.3316
10778TIP3    H153749   2.881   0.475   0.058  0.1563 -1.2791 -1.6772
10778TIP3    H253750   2.942   0.345   0.105 -1.0457 -1.9738 -1.9795
10779TIP3   OH253751   2.514   3.769   2.045 -0.0398 -0.4221 -0.0770
10779TIP3    H153752   2.519   3.674   2.052  0.9611 -0.5779 -2.2117
10779TIP3    H253753   2.420   3.788   2.044 -0.2496 -1.2546  1.4374
10780TIP3   OH253754   4.683   4.195  15.918  0.0840 -0.8936  0.1885
10780TIP3    H153755   4.745   4.215  15.848  1.1454 -0.7014  1.1409
10780TIP3    H253756   4.598   4.187  15.874  0.6161 -0.1810 -1.0264
10781TIP3   OH253757   1.599   5.332  16.292  0.0834 -0.1315  0.0082
10781TIP3    H153758   1.693   5.350  16.294 -0.2921  2.4180 -0.7718
10781TIP3    H253759   1.590   5.253  16.240  2.0057 -3.1267  3.7640
10782TIP3   OH253760   0.722   4.538  10.485 -0.2671  0.1735  0.3120
10782TIP3    H153761   0.761   4.564  10.568  0.0148  0.5890  0.0535
10782TIP3    H253762   0.751   4.604  10.422  0.4623 -0.7372 -0.3609
10783TIP3   OH253763   3.715   2.448   1.324  0.4442  0.1601  0.0939
10783TIP3    H153764   3.769   2.425   1.400 -1.0014 -0.9198  0.8226
10783TIP3    H253765   3.680   2.534   1.346  0.3809  0.0462  0.4442
10784TIP3   OH253766   0.214   4.956  14.123  0.7799  0.0669  0.0095
10784TIP3    H153767   0.140   4.980  14.067  0.3793 -0.9406  0.0734
10784TIP3    H253768   0.291   4.982  14.074  0.3964  0.4215 -0.4140
10785TIP3   OH253769   1.159   5.829   0.104 -0.1625  0.1412  0.1029
10785TIP3    H153770   1.069   5.855   0.121  0.2727  0.4904  2.1117
10785TIP3    H253771   1.188   5.886   0.033 -1.4259  0.1832 -0.4062
10786TIP3   OH253772   0.048   4.254  13.017  0.0558 -0.1882  0.4139
10786TIP3    H153773   0.065   4.173  12.970  0.4744  0.5012 -0.6530
10786TIP3    H253774   0.108   4.251  13.092  0.3826 -0.6638  0.1417
10787TIP3   OH253775   2.009   4.624   3.193  0.3465 -0.0161 -0.0817
10787TIP3    H153776   2.038   4.552   3.248  0.6532 -0.6255 -1.0253
10787TIP3    H253777   2.035   4.600   3.105 -1.4872  0.2145 -0.7393
10788TIP3   OH253778   4.682   2.330   5.477  0.3096 -0.1205  0.0941
10788TIP3    H153779   4.720   2.417   5.465 -1.0835  0.2938 -1.8165
10788TIP3    H253780   4.599   2.346   5.522  0.4618 -0.5893  0.5630
10789TIP3   OH253781   3.884   3.720   0.729 -0.2652  0.4404  0.4103
10789TIP3    H153782   3.953   3.673   0.682 -0.9460 -0.5581  0.4044
10789TIP3    H253783   3.920   3.809   0.739  0.6918  0.1555 -0.2828
10790TIP3   OH253784   5.242   0.577   5.982 -0.0933 -0.5561 -0.3416
10790TIP3    H153785   5.277   0.505   5.930 -0.5266 -0.7402 -0.3801
10790TIP3    H253786   5.150   0.555   5.996 -0.0534 -0.3727  0.2662
10791TIP3   OH253787   5.203   5.686  14.349 -0.1193  0.0989  0.1154
10791TIP3    H153788   5.218   5.769  14.394 -0.1087 -1.2132  2.7534
10791TIP3    H253789   5.287   5.640  14.356 -0.6509 -0.8600  0.4168
10792TIP3   OH253790   1.896   3.631  14.873  0.2185  0.1457 -0.3743
10792TIP3    H153791   1.954   3.583  14.814  0.1705 -1.3135  0.7033
10792TIP3    H253792   1.825   3.570  14.891 -1.1178  1.5155 -0.8184
10793TIP3   OH253793   5.472   2.819  15.841  0.1529  0.4279  0.0763
10793TIP3    H153794   5.481   2.912  15.817  0.1893  0.0172 -1.5879
10793TIP3    H253795   5.487   2.818  15.936 -0.2425  2.1707  0.1944
10794TIP3   OH253796   2.860   0.801   2.068 -0.3380 -0.3379 -0.3260
10794TIP3    H153797   2.932   0.856   2.101  0.0343 -2.1485  2.1790
10794TIP3    H253798   2.815   0.857   2.005  2.5369  1.2928 -1.1378
10795TIP3   OH253799   5.852   3.873   4.831  0.2096  0.3556  0.0108
10795TIP3    H153800   5.872   3.811   4.902  1.2871 -0.5061 -1.0000
10795TIP3    H253801   5.767   3.844   4.797 -0.1129  0.5164  0.6573
10796TIP3   OH253802   1.498   1.421   3.964  0.3549  0.4542 -0.4004
10796TIP3    H153803   1.485   1.420   3.869 -2.1332 -0.4554 -0.1469
10796TIP3    H253804   1.491   1.513   3.989 -0.9425  0.5272 -0.9393
10797TIP3   OH253805   5.526   6.594  17.016 -0.0145  0.4186  0.6225
10797TIP3    H153806   5.488   6.675  17.049 -0.5001  0.7375 -0.6329
10797TIP3    H253807   5.450   6.541  16.991  0.2490 -0.9401  2.5118
10798TIP3   OH253808   6.082   6.566   4.539  0.3692 -0.1350  0.0211
10798TIP3    H153809   6.154   6.515   4.501 -0.8703 -1.9212 -0.0239
10798TIP3    H253810   6.070   6.528   4.626 -0.2205  0.4722  0.2069
10799TIP3   OH253811   4.258   6.030  17.356  0.3971  0.2634 -0.7656
10799TIP3    H153812   4.203   6.087  17.303 -0.1167  1.2587  0.7820
10799TIP3    H253813   4.276   5.955  17.299 -0.8837  0.8450 -2.0050
10800TIP3   OH253814   4.082   6.071  15.426  0.3023 -0.0616  0.0601
10800TIP3    H153815   4.001   6.114  15.453  0.9118  1.3430 -0.2353
10800TIP3    H253816   4.143   6.084  15.499  0.2502 -1.1846  0.3182
10801TIP3   OH253817   2.224   5.552  17.222  0.6749 -0.1254  0.7643
10801TIP3    H153818   2.191   5.537  17.311 -0.2482 -0.6321  0.3569
10801TIP3    H253819   2.146   5.548  17.167  1.1785  0.6507 -0.0215
10802TIP3   OH253820   5.227   6.750   5.707  0.0096  0.2857  0.1612
10802TIP3    H153821   5.316   6.752   5.744  0.9338  1.1989 -1.9562
10802TIP3    H253822   5.179   6.816   5.758  1.0574  1.0605  0.1924
10803TIP3   OH253823   3.714   6.191  11.889 -0.7246  0.2702 -0.3737
10803TIP3    H153824   3.728   6.129  11.817 -1.2778 -3.5433  2.5273
10803TIP3    H253825   3.777   6.165  11.956 -1.5935  2.3610  1.3559
10804TIP3   OH253826   2.340   0.478   4.516  0.1744  0.1578 -0.3763
10804TIP3    H153827   2.247   0.467   4.536 -0.6706  2.3402 -2.5917
10804TIP3    H253828   2.341   0.527   4.434  3.3082  0.7680 -0.0885
10805TIP3   OH253829   6.450   4.687   4.874  0.2706 -0.1573  0.2444
10805TIP3    H153830   6.413   4.599   4.881  3.4010 -1.4666  2.8736
10805TIP3    H253831   6.377   4.741   4.846 -2.3739 -3.2184  0.6214
10806TIP3   OH253832   1.289   2.769   1.222  0.2275  0.2275 -0.4308
10806TIP3    H153833   1.381   2.756   1.200  0.0557 -0.9827 -0.5080
10806TIP3    H253834   1.256   2.831   1.156  0.7121 -0.2142 -1.0941
10807TIP3   OH253835   5.503   6.420   2.788  0.0374 -0.1052 -0.6229
10807TIP3    H153836   5.520   6.341   2.839 -0.2689 -1.1719 -2.1054
10807TIP3    H253837   5.415   6.448   2.814 -0.0751 -0.5769 -0.4950
10808TIP3   OH253838   6.611   5.556  12.682  0.1963 -0.3920  0.1456
10808TIP3    H153839   6.542   5.615  12.649 -0.0557 -0.8585 -0.1845
10808TIP3    H253840   6.658   5.608  12.747 -1.1033 -0.3799  1.1324
10809TIP3   OH253841   6.206   6.427  14.983 -0.0303 -0.8343  0.1017
10809TIP3    H153842   6.184   6.520  14.984 -3.5276 -1.4944 -1.5518
10809TIP3    H253843   6.210   6.402  15.076 -1.0180  0.5692  0.5515
10810TIP3   OH253844   2.780   1.052  12.338  0.4799 -0.1003 -0.0773
10810TIP3    H153845   2.687   1.058  12.357  0.1168  1.3350 -2.0612
10810TIP3    H253846   2.791   0.969  12.293  0.0669 -0.0224 -0.3203
10811TIP3   OH253847   5.863   4.384  12.254 -0.0432  0.2731 -0.0381
10811TIP3    H153848   5.918   4.339  12.318 -1.2342 -2.4377 -0.8004
10811TIP3    H253849   5.774   4.373  12.286 -0.4675  1.2270 -0.8175
10812TIP3   OH253850   2.235   1.955   4.784 -1.0221  0.5158 -0.5897
10812TIP3    H153851   2.142   1.930   4.792 -1.3943  1.4088 -1.8774
10812TIP3    H253852   2.268   1.901   4.713 -0.4865  0.0707 -0.0118
10813TIP3   OH253853   3.513   2.552   5.852 -0.0990  0.6758  0.2547
10813TIP3    H153854   3.567   2.523   5.926 -0.0162 -0.6460 -0.2916
10813TIP3    H253855   3.459   2.623   5.887  0.8142  0.9005  1.2485
10814TIP3   OH253856   2.772   5.975   0.736 -0.2874  0.1056  0.1857
10814TIP3    H153857   2.761   5.959   0.830  0.4979  0.2445  0.3064
10814TIP3    H253858   2.861   6.009   0.728 -0.6017  0.7682 -0.5266
10815TIP3   OH253859   5.970   6.749  16.501 -0.0771 -0.3060 -0.1439
10815TIP3    H153860   5.998   6.712  16.584 -0.8247  1.6694  1.0541
10815TIP3    H253861   5.982   6.843  16.511 -1.3875  0.0893 -1.8001
10816TIP3   OH253862   3.918   6.538   3.002 -0.6321 -0.0723  0.1552
10816TIP3    H153863   3.824   6.545   3.021 -0.0537  3.6317  2.8342
10816TIP3    H253864   3.956   6.498   3.080  0.2764  1.5524  0.5987
10817TIP3   OH253865   6.094   1.998  17.236  0.4767  0.0488 -0.2235
10817TIP3    H153866   6.079   1.998  17.141 -1.4615  0.8320  0.0270
10817TIP3    H253867   6.082   1.907  17.262 -0.2310  0.0245 -0.5961
10818TIP3   OH253868   3.949   2.172   3.032  0.4088  0.6425 -0.0257
10818TIP3    H153869   3.881   2.107   3.015  0.6233  0.2570  0.5402
10818TIP3    H253870   3.928   2.205   3.119  1.5559 -0.2783  0.6300
10819TIP3   OH253871   3.178   1.823  14.066  0.1550  0.5776  0.5585
10819TIP3    H153872   3.189   1.895  14.128  0.5389  1.3026 -0.3409
10819TIP3    H253873   3.119   1.857  13.999  1.6854  0.6867 -0.7990
10820TIP3   OH253874   5.560   3.446   3.867  0.2402  0.3967 -0.2216
10820TIP3    H153875   5.556   3.389   3.791 -0.1905  0.4487 -0.2393
10820TIP3    H253876   5.592   3.389   3.938 -2.0893 -0.4286  0.2591
10821TIP3   OH253877   4.115   1.578  14.491 -0.0127  0.7291  0.4552
10821TIP3    H153878   4.094   1.485  14.506 -0.1614  0.6916  0.0168
10821TIP3    H253879   4.158   1.579  14.406  2.1352  0.7457  1.4641
10822TIP3   OH253880   1.921   0.466   3.374  0.0245  0.1609 -0.3922
10822TIP3    H153881   1.841   0.424   3.342  0.4126  0.0226 -1.2235
10822TIP3    H253882   1.980   0.394   3.394  0.2282  0.2729 -0.5776
10823TIP3   OH253883   1.671   6.245  12.786 -0.0881  0.1386  1.0370
10823TIP3    H153884   1.763   6.243  12.812 -0.0689  1.5846  1.1431
10823TIP3    H253885   1.627   6.191  12.852  0.8169 -1.6127  0.2795
10824TIP3   OH253886   5.643   1.325   1.228 -0.1916 -0.2546 -0.0177
10824TIP3    H153887   5.730   1.293   1.251 -0.3855  0.2935  1.5950
10824TIP3    H253888   5.612   1.264   1.161  0.3489 -2.1191  1.3446
10825TIP3   OH253889   5.593   1.499  14.001 -0.3792 -0.0477 -0.2653
10825TIP3    H153890   5.522   1.439  13.980 -2.1509  2.5320 -2.2977
10825TIP3    H253891   5.571   1.533  14.088 -0.4559 -0.7905  0.0129
10826TIP3   OH253892   2.388   3.981   3.364  0.6485 -0.4526 -0.4218
10826TIP3    H153893   2.395   3.923   3.288 -0.6643 -1.3610  0.1119
10826TIP3    H253894   2.475   3.980   3.403  0.8491 -1.4860 -0.8592
10827TIP3   OH253895   1.855   6.568  16.760 -0.2252  0.7895  0.2360
10827TIP3    H153896   1.866   6.550  16.667  0.5108 -1.1504  0.6456
10827TIP3    H253897   1.885   6.658  16.771  2.1928  0.2198 -1.0263
10828TIP3   OH253898   1.104   0.634   4.320 -0.0861  0.6611 -0.0014
10828TIP3    H153899   1.141   0.711   4.275 -0.0576  1.1809  0.8806
10828TIP3    H253900   1.058   0.586   4.252  0.5758  1.0385 -0.7342
10829TIP3   OH253901   2.112   6.603   3.082  0.1364  0.1866 -0.6118
10829TIP3    H153902   2.121   6.512   3.055  0.7472 -0.1342  0.6297
10829TIP3    H253903   2.045   6.639   3.023 -0.2568 -1.1140 -0.9848
10830TIP3   OH253904   1.804   4.920  11.517 -0.1738 -0.8416 -0.3228
10830TIP3    H153905   1.719   4.925  11.561  0.5135  0.3761  0.9504
10830TIP3    H253906   1.788   4.959  11.431 -1.0378 -1.1898 -0.3319
10831TIP3   OH253907   3.951   5.620  12.690 -0.5822 -0.2546 -0.3065
10831TIP3    H153908   4.030   5.666  12.661 -1.4730  1.4658 -0.0989
10831TIP3    H253909   3.882   5.685  12.685 -1.4206 -0.7983  2.5161
10832TIP3   OH253910   0.678   0.202   2.861 -0.6428 -0.9430 -0.6977
10832TIP3    H153911   0.662   0.129   2.920  1.0308 -2.3007 -1.8112
10832TIP3    H253912   0.622   0.185   2.785 -2.6956  0.7278  0.3553
10833TIP3   OH253913   5.526   3.024  11.331  0.5171  0.4185 -0.3807
10833TIP3    H153914   5.609   2.992  11.294 -0.9290 -1.8911 -1.8505
10833TIP3    H253915   5.474   3.049  11.254 -0.4590  1.0481  0.4670
10834TIP3   OH253916   6.429   3.620   5.471 -0.1014  0.3283 -0.2109
10834TIP3    H153917   6.357   3.557   5.474 -1.3857  1.4010 -3.7729
10834TIP3    H253918   6.506   3.567   5.453 -0.3902 -0.5583  0.9715
10835TIP3   OH253919   2.434   4.577  11.496  0.3539  0.0763 -0.3569
10835TIP3    H153920   2.348   4.617  11.485 -0.2635 -1.0641  0.0688
10835TIP3    H253921   2.417   4.498  11.548  1.6491 -0.2119 -0.3279
10836TIP3   OH253922   0.840   1.377   0.527 -0.1979 -0.7209  0.1665
10836TIP3    H153923   0.857   1.431   0.450 -2.1124 -2.0738 -1.3079
10836TIP3    H253924   0.773   1.425   0.575 -0.1865 -0.6577  0.1199
10837TIP3   OH253925   6.097   0.238   1.320 -0.1879  0.4037 -0.4152
10837TIP3    H153926   6.187   0.257   1.347  0.2259  0.8716 -2.0031
10837TIP3    H253927   6.098   0.249   1.225 -1.7129 -0.4834 -0.5654
10838TIP3   OH253928   1.116   5.865   0.882  0.3773 -0.5609  0.0455
10838TIP3    H153929   1.165   5.801   0.934  1.3774  0.2882  0.1881
10838TIP3    H253930   1.045   5.815   0.842  1.1284 -1.7553  0.1642
10839TIP3   OH253931   3.568   5.324   1.735 -0.1718  0.3438 -0.1559
10839TIP3    H153932   3.658   5.337   1.767 -0.6944 -1.0712  2.1328
10839TIP3    H253933   3.548   5.233   1.756 -2.3734  0.8275  0.0355
10840TIP3   OH253934   1.300   5.887   1.961 -0.0061 -0.0877 -0.0209
10840TIP3    H153935   1.230   5.835   2.000 -1.3877 -0.4847 -2.7923
10840TIP3    H253936   1.373   5.880   2.023 -1.3177 -2.4085  1.3880
10841TIP3   OH253937   5.048   3.210  12.417 -0.2908  0.0567  0.6472
10841TIP3    H153938   5.074   3.147  12.484  2.2798  0.0029 -0.2665
10841TIP3    H253939   5.021   3.156  12.342 -0.7657  0.0710  0.8111
10842TIP3   OH253940   3.668   5.830  11.490  0.5064 -0.0301  0.6284
10842TIP3    H153941   3.687   5.891  11.420  1.9404 -0.3031  0.7414
10842TIP3    H253942   3.733   5.761  11.480 -0.4299 -1.0207  1.1236
10843TIP3   OH253943   1.317   4.343   1.676  0.0002  0.0154 -0.8889
10843TIP3    H153944   1.392   4.303   1.631  1.4369  0.1398  1.2755
10843TIP3    H253945   1.249   4.276   1.673  1.3350 -1.4362 -0.0172
10844TIP3   OH253946   6.631   0.706  14.282  0.2135  0.4923 -0.1374
10844TIP3    H153947   6.655   0.615  14.300 -1.6012  0.4400  2.6800
10844TIP3    H253948   6.714   0.751  14.269  1.1677 -1.4685 -1.2360
10845TIP3   OH253949   0.489   4.961  14.978  0.0572 -0.6969  0.0343
10845TIP3    H153950   0.450   4.981  15.063  2.6867 -1.3744  1.5403
10845TIP3    H253951   0.437   5.010  14.915 -1.3418  0.7167  2.1574
10846TIP3   OH253952   4.537   6.586  15.614  0.4129 -0.4000 -0.6713
10846TIP3    H153953   4.478   6.558  15.685 -0.7918 -0.2764 -1.5924
10846TIP3    H253954   4.605   6.519  15.613  0.4823 -0.3874  0.6223
10847TIP3   OH253955   4.824   1.979   6.133 -0.2874 -0.1422 -0.3035
10847TIP3    H153956   4.867   2.048   6.082  0.1390 -1.9281 -2.5162
10847TIP3    H253957   4.732   2.005   6.134 -0.3846 -0.2579 -2.4277
10848TIP3   OH253958   3.066   3.282  13.151  0.3821 -0.3357 -0.2202
10848TIP3    H153959   3.110   3.213  13.101 -1.1473 -0.1842 -1.8561
10848TIP3    H253960   2.978   3.286  13.115 -0.7353  0.0087  2.3127
10849TIP3   OH253961   1.311   4.204  12.021 -0.0372  0.0009 -0.0451
10849TIP3    H153962   1.362   4.240  12.094 -2.4749  0.5537  1.5050
10849TIP3    H253963   1.326   4.265  11.949  0.6221  0.7544  0.7058
10850TIP3   OH253964   5.843   0.796  14.258  0.1854  0.2784  0.7791
10850TIP3    H153965   5.750   0.815  14.261 -0.0702 -0.7932  0.3200
10850TIP3    H253966   5.875   0.844  14.181 -0.4133 -0.9538 -0.2771
10851TIP3   OH253967   6.704   3.751   3.583 -0.0100  0.3058 -0.2068
10851TIP3    H153968   6.626   3.696   3.585 -0.1345  0.4010 -1.6719
10851TIP3    H253969   6.777   3.689   3.575  0.0568  0.2354  0.8232
10852TIP3   OH253970   2.337   2.027   0.151  0.5801 -0.0650 -0.5364
10852TIP3    H153971   2.391   2.092   0.196  0.2874  0.2363 -0.6166
10852TIP3    H253972   2.291   1.981   0.221  2.0802 -1.3751 -0.3476
10853TIP3   OH253973   2.101   6.346   5.012 -0.3791 -0.2510 -0.0887
10853TIP3    H153974   2.190   6.316   5.029 -0.3311  0.5751  1.2569
10853TIP3    H253975   2.058   6.345   5.098 -1.5193 -0.1628 -0.6349
10854TIP3   OH253976   0.775   3.313  13.029 -0.5851 -0.3757  1.1044
10854TIP3    H153977   0.777   3.336  12.936  2.7244 -0.8298  0.9473
10854TIP3    H253978   0.726   3.231  13.033  0.2317 -0.9700 -0.4227
10855TIP3   OH253979   1.158   0.729  11.694 -0.1222 -0.6793 -0.0928
10855TIP3    H153980   1.085   0.705  11.751 -0.9947  0.7179 -0.5621
10855TIP3    H253981   1.118   0.736  11.607  0.3766  0.9096 -0.2194
10856TIP3   OH253982   3.039   6.053  13.656 -0.0534 -0.0259  0.4993
10856TIP3    H153983   3.026   6.090  13.569  0.0697 -0.9511  0.0830
10856TIP3    H253984   3.122   6.006  13.650 -0.8141 -1.4415  0.6396
10857TIP3   OH253985   4.843   0.424  14.374 -0.2498  0.5780 -0.0197
10857TIP3    H153986   4.786   0.496  14.348 -1.4288 -0.4155 -0.2966
10857TIP3    H253987   4.842   0.365  14.299 -2.0908 -1.3672  1.3971
10858TIP3   OH253988   3.656   4.406  12.857  0.1958 -0.4853  0.0027
10858TIP3    H153989   3.644   4.312  12.862  0.9203 -0.5726  0.4298
10858TIP3    H253990   3.724   4.419  12.791 -0.3054 -0.2198 -0.4653
10859TIP3   OH253991   1.406   3.191   0.259  0.3521 -0.3267  0.3224
10859TIP3    H153992   1.501   3.190   0.270  0.7212  2.5034 -1.3187
10859TIP3    H253993   1.372   3.130   0.324  3.2470 -0.8718  1.4379
10860TIP3   OH253994   0.480   1.547   2.643 -0.0660  0.3018 -0.6320
10860TIP3    H153995   0.418   1.618   2.630  0.8536  1.4856  1.0304
10860TIP3    H253996   0.538   1.578   2.713  1.9922 -1.0086 -1.6679
10861TIP3   OH253997   3.929   6.038   0.864  0.1149 -0.2510  0.0067
10861TIP3    H153998   3.839   6.065   0.843 -0.5729 -2.0204  0.4914
10861TIP3    H253999   3.944   6.073   0.952 -0.9165 -1.7035  0.7972
10862TIP3   OH254000   3.274   0.646  13.876  0.2926 -0.5243  0.8048
10862TIP3    H154001   3.356   0.613  13.913 -0.0738 -1.2248  1.0092
10862TIP3    H254002   3.222   0.673  13.952  0.1246 -0.5829  0.7133
10863TIP3   OH254003   6.757   1.879   3.403 -0.5441 -0.2528 -0.2920
10863TIP3    H154004   6.690   1.844   3.462 -2.2488  0.6132 -1.6147
10863TIP3    H254005   6.840   1.862   3.448 -1.7366  0.5866  2.4735
10864TIP3   OH254006   6.717   4.218  12.450  0.1477  0.5588 -0.3165
10864TIP3    H154007   6.728   4.312  12.463 -0.8452  0.5390  0.9262
10864TIP3    H254008   6.806   4.183  12.451  0.4950  1.4181 -0.1850
10865TIP3   OH254009   1.911   6.259   3.039 -0.4974  0.1199 -0.4038
10865TIP3    H154010   1.922   6.164   3.045 -0.3408  0.1924  0.8651
10865TIP3    H254011   1.990   6.289   2.994 -0.8876 -0.4024 -1.4771
10866TIP3   OH254012   0.557   5.187   3.165 -0.6374 -0.2500  0.2428
10866TIP3    H154013   0.594   5.099   3.172 -3.5691 -1.4533  3.2308
10866TIP3    H254014   0.483   5.178   3.105  0.1786  0.7575 -1.0018
10867TIP3   OH254015   5.971   6.243  13.608 -0.0745 -0.1541  0.3233
10867TIP3    H154016   6.057   6.248  13.648  0.4852  1.3613 -0.9526
10867TIP3    H254017   5.911   6.281  13.673  0.4010 -0.1424  0.7546
10868TIP3   OH254018   0.007   3.698   2.205 -0.2423 -0.2373 -0.3133
10868TIP3    H154019   0.084   3.654   2.242 -0.9235 -0.4122  0.9438
10868TIP3    H254020  -0.019   3.761   2.272 -0.8092  0.2730 -1.0041
10869TIP3   OH254021   5.467   5.335   2.641 -0.5508  0.1348 -0.0904
10869TIP3    H154022   5.465   5.349   2.547  3.1168  1.7813 -0.0896
10869TIP3    H254023   5.501   5.246   2.651  1.2104  0.7292 -0.4283
10870TIP3   OH254024   3.098   4.668  13.815 -0.3154  0.1750 -0.3919
10870TIP3    H154025   3.011   4.707  13.815 -0.4338  0.0863 -3.3231
10870TIP3    H254026   3.142   4.706  13.739  2.0263 -0.2548  0.6471
10871TIP3   OH254027   5.272   4.563   0.283 -0.4548 -0.1439 -0.5749
10871TIP3    H154028   5.326   4.550   0.205 -0.4308  0.0877 -0.5976
10871TIP3    H254029   5.244   4.655   0.278  0.7697  0.3129  0.4600
10872TIP3   OH254030   2.446   3.213   6.062  0.4849  0.3113  0.2790
10872TIP3    H154031   2.475   3.122   6.072 -1.0521 -0.5040 -1.9993
10872TIP3    H254032   2.377   3.209   5.996  0.2817  3.1408  0.2252
10873TIP3   OH254033   1.215   0.092  12.021  0.4594  0.2729 -0.1461
10873TIP3    H154034   1.193   0.043  11.942 -0.8041  0.2881  0.1726
10873TIP3    H254035   1.311   0.099  12.020  0.5489 -0.9215 -0.9500
10874TIP3   OH254036   3.129   0.760   0.812  0.5836 -0.1037  0.4466
10874TIP3    H154037   3.199   0.762   0.877  1.0174  2.0143 -0.0037
10874TIP3    H254038   3.066   0.696   0.846  1.4242 -0.0287  2.2663
10875TIP3   OH254039   5.320   3.750   2.702  0.1265 -0.3408  0.3304
10875TIP3    H154040   5.326   3.824   2.762  1.4799  0.1041 -0.3244
10875TIP3    H254041   5.250   3.696   2.738  0.5885  0.1513  2.0269
10876TIP3   OH254042   0.350   5.886  11.948  0.1090  0.0406  0.6044
10876TIP3    H154043   0.268   5.934  11.958  0.1233  0.1495  0.1999
10876TIP3    H254044   0.325   5.794  11.960 -0.3125 -0.0516 -0.8762
10877TIP3   OH254045   2.005   0.758   5.152  0.0415 -0.2028  0.2718
10877TIP3    H154046   2.009   0.664   5.170 -1.6073 -0.2946  0.2520
10877TIP3    H254047   1.912   0.777   5.142  0.3669  1.4008  0.0468
10878TIP3   OH254048   4.857   5.212  14.060 -0.1957 -0.6344  0.0321
10878TIP3    H154049   4.909   5.237  14.137  0.3066  0.1485 -0.5389
10878TIP3    H254050   4.892   5.267  13.989 -0.6950 -1.2901 -0.7374
10879TIP3   OH254051   4.428   4.090   4.125  0.1533  0.3170 -0.0641
10879TIP3    H154052   4.490   4.163   4.131 -1.9456  2.5880 -2.9773
10879TIP3    H254053   4.484   4.012   4.118  2.6233  2.0199 -0.5410
10880TIP3   OH254054   0.108   4.969  12.589 -0.2444 -0.6975  0.1653
10880TIP3    H154055   0.161   5.048  12.584 -1.3910  0.1414  0.8796
10880TIP3    H254056   0.135   4.917  12.513  0.0316  0.7029 -0.7221
10881TIP3   OH254057   5.744   4.886  15.906 -0.3649 -0.5473  0.3747
10881TIP3    H154058   5.718   4.921  15.992  0.7273  0.5827  0.2854
10881TIP3    H254059   5.666   4.894  15.852 -0.0587  2.3345  0.2153
10882TIP3   OH254060   6.290   4.729  12.610  0.1314 -0.3820 -0.1560
10882TIP3    H154061   6.287   4.640  12.575  1.0749 -0.3677 -0.3028
10882TIP3    H254062   6.207   4.768  12.583  0.2449 -0.8204 -1.1794
10883TIP3   OH254063   2.182   0.016  16.365  0.0236 -0.0014 -0.5135
10883TIP3    H154064   2.258  -0.024  16.407 -0.0095 -0.0526 -0.5037
10883TIP3    H254065   2.173  -0.030  16.282 -0.3732 -0.4267 -0.2412
10884TIP3   OH254066   3.543   1.712   1.160 -0.0905  0.0170  0.1413
10884TIP3    H154067   3.639   1.714   1.149 -0.0614 -0.0590  0.3814
10884TIP3    H254068   3.527   1.641   1.222 -0.3309 -0.1894 -0.1604
10885TIP3   OH254069   3.903   1.444  12.434 -0.2908  0.1377 -0.3268
10885TIP3    H154070   3.811   1.455  12.460 -0.0078 -1.5664  1.7265
10885TIP3    H254071   3.907   1.355  12.400  1.1879 -1.2694  3.1090
10886TIP3   OH254072   1.951   2.995   0.926 -0.1615  0.6883  0.1905
10886TIP3    H154073   1.925   3.072   0.877  1.3635  0.2770 -1.3425
10886TIP3    H254074   1.990   3.030   1.007 -1.0597  1.4333  0.3191
10887TIP3   OH254075   4.875   4.275   4.905 -0.8508 -0.3776 -0.6035
10887TIP3    H154076   4.960   4.312   4.928 -0.4249 -0.7843 -1.4967
10887TIP3    H254077   4.852   4.221   4.980 -0.1167 -0.6200 -0.5463
10888TIP3   OH254078   0.582   3.709  15.126 -0.4938  0.2896 -0.3770
10888TIP3    H154079   0.502   3.762  15.123 -1.6773 -1.4163 -1.1329
10888TIP3    H254080   0.607   3.699  15.034 -0.6558 -0.9088 -0.3131
10889TIP3   OH254081   1.407   5.694   5.844  0.6192  0.3995 -0.5036
10889TIP3    H154082   1.420   5.784   5.814  0.1884  0.9142  0.7764
10889TIP3    H254083   1.343   5.702   5.914  4.0374 -0.1864  3.0417
10890TIP3   OH254084   4.820   3.501   2.984  0.3770  0.3294 -0.1070
10890TIP3    H154085   4.759   3.492   3.057  1.5597  0.8222  0.9793
10890TIP3    H254086   4.798   3.586   2.945  0.4946  0.5990  0.4041
10891TIP3   OH254087   5.769   2.496   2.803  0.2796  0.0415  0.7131
10891TIP3    H154088   5.849   2.449   2.779  0.2335 -1.4845  3.1930
10891TIP3    H254089   5.794   2.550   2.878 -0.9586 -0.3985  1.4757
10892TIP3   OH254090   3.743   5.198  13.014  0.5780 -0.1189  0.2086
10892TIP3    H154091   3.699   5.248  12.945  2.1751  1.2565  0.1258
10892TIP3    H254092   3.672   5.157  13.063 -0.6221 -1.0533 -2.1607
10893TIP3   OH254093   1.899   5.683  11.820  0.2076  0.3577 -0.1519
10893TIP3    H154094   1.818   5.694  11.771  0.0987  0.1022 -0.0301
10893TIP3    H254095   1.871   5.664  11.909  0.4021  0.3790 -0.0850
10894TIP3   OH254096   6.458   3.339  14.741  0.2041  0.1038  0.3479
10894TIP3    H154097   6.536   3.392  14.754  1.0507 -0.8096 -0.8456
10894TIP3    H254098   6.412   3.381  14.667  0.6988 -0.5946 -0.3722
10895TIP3   OH254099   0.260   0.550   1.322 -0.0190 -0.3346 -0.4366
10895TIP3    H154100   0.165   0.560   1.329 -0.0194 -1.2318  3.7994
10895TIP3    H254101   0.293   0.639   1.311 -1.2496 -0.1050 -3.2721
10896TIP3   OH254102   0.216   4.102  12.442 -0.2276  0.7223 -0.1040
10896TIP3    H154103   0.266   4.179  12.468 -0.3188  0.5938  0.4566
10896TIP3    H254104   0.230   4.096  12.347 -0.2671  1.4538 -0.1601
10897TIP3   OH254105   6.082   5.285   6.156 -0.2177  0.3333 -0.5372
10897TIP3    H154106   6.129   5.204   6.136  2.4439  1.7189 -0.4393
10897TIP3    H254107   6.105   5.344   6.084  0.1496  1.8034  0.7252
10898TIP3   OH254108   1.687   3.598   1.572 -0.1015  0.1629  0.1604
10898TIP3    H154109   1.621   3.667   1.562  2.4035  2.6068 -0.9762
10898TIP3    H254110   1.638   3.522   1.602 -3.3222  1.9360 -0.1437
10899TIP3   OH254111   1.037   2.361   5.847  0.6065  1.1329  0.2887
10899TIP3    H154112   0.972   2.401   5.904 -0.9592 -1.8042  0.7495
10899TIP3    H254113   1.013   2.392   5.759 -1.2180  0.4499  0.4943
10900TIP3   OH254114   1.795   3.174   1.138  0.0171  0.4278  0.4815
10900TIP3    H154115   1.747   3.216   1.209  0.6728  0.5925  0.8339
10900TIP3    H254116   1.864   3.124   1.181  0.0952  0.1017 -0.0109
10901TIP3   OH254117   3.239   6.491   0.435 -0.2122  0.2109  0.3449
10901TIP3    H154118   3.333   6.484   0.452 -0.2928 -1.2094  0.3526
10901TIP3    H254119   3.209   6.560   0.493  0.8411  0.7476  0.2819
10902TIP3   OH254120   3.681   5.389   2.623 -0.2255  0.3003  0.0101
10902TIP3    H154121   3.728   5.306   2.614 -0.6874 -0.1386  1.4384
10902TIP3    H254122   3.710   5.424   2.707 -3.3847 -0.6505  1.6675
10903TIP3   OH254123   4.169   0.563   3.698  0.6000 -0.0809  0.1269
10903TIP3    H154124   4.248   0.513   3.678  0.7333  0.3113 -0.3662
10903TIP3    H254125   4.194   0.620   3.770  1.1324  0.8715 -0.7799
10904TIP3   OH254126   4.316   2.930   5.179  0.0375  0.4492 -0.2145
10904TIP3    H154127   4.338   2.942   5.087  3.3782  0.5773  0.4924
10904TIP3    H254128   4.333   3.016   5.219  0.8355 -0.2081  0.8893
10905TIP3   OH254129   6.557   3.833  16.028 -0.5080 -0.3797  0.2891
10905TIP3    H154130   6.520   3.748  16.005  1.4192 -1.2270  0.1052
10905TIP3    H254131   6.530   3.891  15.957 -0.7004 -1.1942 -0.3170
10906TIP3   OH254132   4.895   0.937  15.123 -0.3840  0.5291  0.5255
10906TIP3    H154133   4.905   0.842  15.121 -0.1258  0.5746 -1.3201
10906TIP3    H254134   4.943   0.968  15.047 -0.8460  2.1171  0.8496
10907TIP3   OH254135   2.316   1.316   3.169  0.1276  0.2114  0.0334
10907TIP3    H154136   2.397   1.267   3.181  0.1675 -0.1588 -1.5952
10907TIP3    H254137   2.341   1.408   3.183  0.9399  0.1465 -0.9089
10908TIP3   OH254138   6.263   4.760  13.120  0.2947  0.2687  0.5042
10908TIP3    H154139   6.286   4.693  13.185 -0.9855 -1.2269 -0.5080
10908TIP3    H254140   6.347   4.795  13.090  1.0983 -2.1125 -0.1779
10909TIP3   OH254141   2.418   3.117  10.330  1.2036  0.5109  0.5103
10909TIP3    H154142   2.380   3.100  10.416  0.4366  1.3873  0.3554
10909TIP3    H254143   2.480   3.188  10.345  0.2113  1.4878  0.1602
10910TIP3   OH254144   4.977   4.906  11.271 -0.0059  0.0876  0.9382
10910TIP3    H154145   5.030   4.896  11.350  1.1445  3.3709  0.7446
10910TIP3    H254146   4.915   4.976  11.293  1.1024  1.9140 -1.3122
10911TIP3   OH254147   4.893   1.177   5.247 -0.4511 -0.9022  0.2355
10911TIP3    H154148   4.904   1.089   5.283  1.1540 -0.3215  1.3069
10911TIP3    H254149   4.887   1.234   5.324 -0.4073  0.0271 -0.4257
10912TIP3   OH254150   5.064   5.069   1.601 -0.7042  0.4336  0.6231
10912TIP3    H154151   5.010   5.142   1.574  0.8637  0.9703 -1.2788
10912TIP3    H254152   5.083   5.021   1.520  2.7010  1.0345  0.9185
10913TIP3   OH254153   3.095   2.475  15.838 -0.2002  0.5319  0.0239
10913TIP3    H154154   3.053   2.476  15.924  1.1549  0.5904  0.7083
10913TIP3    H254155   3.176   2.426  15.852 -0.0032  0.4810 -1.2421
10914TIP3   OH254156   6.270   4.143  13.378 -0.4892  0.0701  0.4020
10914TIP3    H154157   6.313   4.229  13.379 -0.2937 -0.0274  0.5794
10914TIP3    H254158   6.265   4.120  13.285  0.7675 -0.3686  0.4213
10915TIP3   OH254159   0.642   1.889   2.096 -0.9751 -0.4334 -0.3338
10915TIP3    H154160   0.643   1.866   2.189  0.3334 -0.3317 -0.3114
10915TIP3    H254161   0.622   1.983   2.095  0.4549 -0.0940 -0.0477
10916TIP3   OH254162   6.181   3.614   4.961 -0.3843  0.2182  0.3803
10916TIP3    H154163   6.209   3.523   4.967 -1.8887 -0.2364  1.1242
10916TIP3    H254164   6.194   3.649   5.050  1.5202  1.1907 -0.2186
10917TIP3   OH254165   0.499   2.700   4.394 -0.0889  0.7269 -0.1688
10917TIP3    H154166   0.581   2.714   4.442  0.2198  1.3323 -0.8597
10917TIP3    H254167   0.446   2.777   4.415 -1.1142 -0.3893  1.5163
10918TIP3   OH254168   4.256   5.248  14.671  0.0734  0.3053  0.0969
10918TIP3    H154169   4.336   5.227  14.718  1.0567  2.1380 -0.6702
10918TIP3    H254170   4.276   5.230  14.579 -0.5036  0.4827 -0.0707
10919TIP3   OH254171   5.151   4.761  12.366  0.1450  0.1802  0.2147
10919TIP3    H154172   5.155   4.666  12.362  0.8524  0.2280 -2.8494
10919TIP3    H254173   5.063   4.782  12.335  0.1847  0.5400  0.3385
10920TIP3   OH254174   6.554   0.832  12.654 -0.9838  0.4219  0.2253
10920TIP3    H154175   6.546   0.745  12.692 -0.2486  0.4167  0.3875
10920TIP3    H254176   6.631   0.869  12.696 -3.0082  2.3870  2.5560
10921TIP3   OH254177   2.840   2.445   1.266 -0.2832  0.4597  0.0659
10921TIP3    H154178   2.778   2.486   1.327  0.7474  2.6819 -0.2643
10921TIP3    H254179   2.793   2.370   1.229 -0.8904 -1.1206  3.6646
10922TIP3   OH254180   5.185   4.621  16.079 -0.1563  0.3673 -0.2830
10922TIP3    H154181   5.230   4.601  16.161 -3.5596 -0.7264  1.5225
10922TIP3    H254182   5.171   4.716  16.082  0.5601  0.4734 -0.0886
10923TIP3   OH254183   6.455   1.571  13.506 -0.2371  0.2494 -0.7335
10923TIP3    H154184   6.468   1.522  13.587  1.1899 -0.1761 -1.2025
10923TIP3    H254185   6.386   1.523  13.460 -0.0559 -0.3203 -0.4114
10924TIP3   OH254186   4.418   3.470   4.362  1.0470  0.3831 -0.7878
10924TIP3    H154187   4.495   3.459   4.419  0.7751 -1.7997 -0.7508
10924TIP3    H254188   4.391   3.561   4.376  0.5346 -0.1989  3.2283
10925TIP3   OH254189   5.299   0.332  16.044  0.3632  0.0051  0.4128
10925TIP3    H154190   5.334   0.362  16.128 -0.3872  0.8661  0.4432
10925TIP3    H254191   5.286   0.237  16.056  3.1907 -0.4881  0.1727
10926TIP3   OH254192   4.984   6.238   6.359 -0.1221  0.2115 -0.2348
10926TIP3    H154193   5.029   6.180   6.299 -0.2641  0.6273 -0.7537
10926TIP3    H254194   4.901   6.259   6.315  0.0886  1.0981 -0.2347
10927TIP3   OH254195   6.492   4.191  15.412  0.1799 -0.6021 -0.0818
10927TIP3    H154196   6.464   4.185  15.504  0.1668 -2.4049 -0.1615
10927TIP3    H254197   6.586   4.173  15.415  0.1946 -0.5862 -0.4194
10928TIP3   OH254198   0.050   6.181   5.251  0.1202 -0.3475 -0.4507
10928TIP3    H154199  -0.017   6.152   5.313 -0.0516 -1.3349 -1.0845
10928TIP3    H254200   0.131   6.181   5.302 -0.2397  0.2041  0.1403
10929TIP3   OH254201   1.124   3.898  16.055  0.7592 -0.0610 -0.2950
10929TIP3    H154202   1.030   3.879  16.051  0.4228  1.5552 -0.7241
10929TIP3    H254203   1.165   3.825  16.010 -0.0564 -2.1335  2.0600
10930TIP3   OH254204   1.354   0.104  13.710  0.0057 -0.5790  0.2338
10930TIP3    H154205   1.438   0.072  13.743  0.1076  0.3620  0.9173
10930TIP3    H254206   1.377   0.172  13.647 -0.2343 -1.1307 -0.4723
10931TIP3   OH254207   1.671   5.053   3.654 -0.1523 -0.1778 -0.1887
10931TIP3    H154208   1.704   5.142   3.663 -0.3288  0.0621 -1.6528
10931TIP3    H254209   1.578   5.064   3.630 -1.1102 -0.8237  2.8196
10932TIP3   OH254210   4.762   3.860   0.567 -0.4744  0.4341  0.1891
10932TIP3    H154211   4.810   3.777   0.564  2.0992  1.8469 -1.2975
10932TIP3    H254212   4.820   3.919   0.615 -2.2169  1.4460  1.1416
10933TIP3   OH254213   0.258   3.575  11.130  0.1148  0.1225  0.1069
10933TIP3    H154214   0.341   3.578  11.177  0.9858  0.1046 -1.3541
10933TIP3    H254215   0.199   3.527  11.188  1.1923 -0.0661  1.0819
10934TIP3   OH254216   1.178   4.593  15.338 -0.0982  0.2263  0.2482
10934TIP3    H154217   1.234   4.658  15.296  1.1653 -1.1566 -0.3301
10934TIP3    H254218   1.121   4.562  15.268 -0.8100  0.8099  0.5602
10935TIP3   OH254219   3.323   5.753  16.676 -0.1922  0.4512 -0.3049
10935TIP3    H154220   3.289   5.820  16.737  0.2749  2.4073 -2.0711
10935TIP3    H254221   3.246   5.702  16.651 -0.6620  0.6397  0.6768
10936TIP3   OH254222   6.056   5.017   0.987 -0.0532 -0.3742  0.2876
10936TIP3    H154223   6.102   5.015   0.903 -0.0769  0.1323  0.2578
10936TIP3    H254224   5.975   4.970   0.971  0.0917 -0.5699  0.1195
10937TIP3   OH254225   0.073   3.703  10.568  0.3444  0.4913 -0.4678
10937TIP3    H154226   0.097   3.791  10.538 -0.4437  0.5916 -0.8031
10937TIP3    H254227  -0.022   3.700  10.564  0.2771  0.0681  0.8054
10938TIP3   OH254228   5.834   6.466  14.302  0.2886 -0.0538  0.1725
10938TIP3    H154229   5.751   6.507  14.326  0.7768  1.7022 -0.9517
10938TIP3    H254230   5.832   6.464  14.207  1.8496  0.7427  0.0980
10939TIP3   OH254231   4.647   3.147  17.317  0.0448  0.0563  0.0893
10939TIP3    H154232   4.721   3.204  17.297 -0.3258  0.1081 -1.2555
10939TIP3    H254233   4.588   3.202  17.369  0.4225  0.3862  0.1703
10940TIP3   OH254234   0.233   4.814  12.398  0.0794  0.6937  0.4338
10940TIP3    H154235   0.246   4.760  12.321  2.4531  0.8616  0.6286
10940TIP3    H254236   0.320   4.819  12.439 -1.0047  0.9096  2.9160
10941TIP3   OH254237   2.530   1.524  10.866 -0.4113  0.0858  0.0364
10941TIP3    H154238   2.594   1.552  10.932 -1.1404  0.0169  0.7781
10941TIP3    H254239   2.567   1.443  10.830  0.3178  0.4783 -0.1242
10942TIP3   OH254240   6.466   0.186  14.278  0.2158  0.8135  0.0850
10942TIP3    H154241   6.421   0.209  14.359  2.1630  0.2814  1.3973
10942TIP3    H254242   6.483   0.092  14.286  1.3279  0.9510 -0.4453
10943TIP3   OH254243   5.374   0.957   0.734  0.4470  0.4478  0.2919
10943TIP3    H154244   5.330   0.980   0.652  0.8000  0.6495  0.1520
10943TIP3    H254245   5.304   0.954   0.800  0.1254  0.0286 -0.0649
10944TIP3   OH254246   5.162   4.014   5.897 -0.6019  0.0691 -0.7443
10944TIP3    H154247   5.224   4.076   5.935 -0.7952  1.0836 -2.0303
10944TIP3    H254248   5.177   3.932   5.945  1.3028  0.4572 -0.6216
10945TIP3   OH254249   1.472   1.140   6.196 -0.2065  0.4872  0.3264
10945TIP3    H154250   1.411   1.101   6.258  0.6546 -1.6650 -0.0939
10945TIP3    H254251   1.425   1.142   6.113  0.1823 -1.0282  0.0369
10946TIP3   OH254252   5.689   4.381  10.470 -0.0753 -0.0292 -0.2842
10946TIP3    H154253   5.604   4.414  10.441  0.9420  1.1632 -2.0886
10946TIP3    H254254   5.684   4.287  10.457 -0.2747  0.2704 -2.9228
10947TIP3   OH254255   3.729   4.607  11.656 -0.1327  0.0122 -0.7024
10947TIP3    H154256   3.729   4.700  11.677  0.6760 -0.3161  0.9062
10947TIP3    H254257   3.718   4.563  11.740 -3.3440 -1.3643 -1.7204
10948TIP3   OH254258   3.523   2.303  11.882  0.1494  0.8255 -0.2371
10948TIP3    H154259   3.524   2.211  11.856  1.3233  0.5989  0.5194
10948TIP3    H254260   3.529   2.351  11.799 -1.6496  0.2791 -0.7282
10949TIP3   OH254261   4.553   5.920  12.619  0.0150  0.5127  0.1911
10949TIP3    H154262   4.478   5.935  12.561 -0.1530 -0.4863  0.1181
10949TIP3    H254263   4.627   5.906  12.560 -0.0801 -0.1251  0.2112
10950TIP3   OH254264   2.291   2.923   1.438  0.4799  0.2608  0.2422
10950TIP3    H154265   2.363   2.966   1.391  0.2690  1.2753  0.8231
10950TIP3    H254266   2.327   2.906   1.525 -0.5291  2.4385  1.1413
10951TIP3   OH254267   1.663   6.744  14.117 -0.3228 -1.1046  0.1356
10951TIP3    H154268   1.663   6.839  14.103  0.4190 -0.9797  0.9205
10951TIP3    H254269   1.659   6.707  14.029  1.0736 -0.3415 -0.2882
10952TIP3   OH254270   1.148   4.838   5.860  0.0002  0.0732 -0.8645
10952TIP3    H154271   1.074   4.861   5.917 -0.0285  1.2614 -1.3580
10952TIP3    H254272   1.139   4.897   5.785  2.5904  1.7196 -0.0116
10953TIP3   OH254273   3.187   0.502  13.421 -0.0323 -0.6451  0.6163
10953TIP3    H154274   3.237   0.580  13.398 -1.3809 -0.0932 -0.5194
10953TIP3    H254275   3.200   0.493  13.516 -0.6371  1.5385  0.9563
10954TIP3   OH254276   3.902   4.254   2.396 -0.7099  0.1087  0.1692
10954TIP3    H154277   3.819   4.210   2.382 -1.6980  1.4335  1.5367
10954TIP3    H254278   3.937   4.216   2.477 -0.0456 -0.3304 -0.3117
10955TIP3   OH254279   0.445   5.806   0.106 -0.5016  0.6502  0.4856
10955TIP3    H154280   0.417   5.855   0.029 -1.9938 -1.0464 -0.1233
10955TIP3    H254281   0.539   5.823   0.112 -0.6695  2.2542 -0.6168
10956TIP3   OH254282   6.420   4.482  11.755  0.0630  0.6066  0.2703
10956TIP3    H154283   6.488   4.454  11.817  1.1587 -0.1599 -1.1915
10956TIP3    H254284   6.445   4.571  11.731 -1.1657  1.4560  1.9221
10957TIP3   OH254285   2.388   2.148  15.651 -0.4804  0.7743 -0.1063
10957TIP3    H154286   2.429   2.073  15.608 -1.8701  0.9470 -1.8503
10957TIP3    H254287   2.419   2.143  15.742  1.6825 -0.2573 -0.8271
10958TIP3   OH254288   2.453   3.791  17.380  0.7589 -0.0250  0.2148
10958TIP3    H154289   2.396   3.739  17.436 -0.4247 -1.2047 -1.9588
10958TIP3    H254290   2.419   3.880  17.386 -0.8061 -0.5572 -0.3548
10959TIP3   OH254291   2.524   6.572   3.674  0.2558 -0.3911  0.1552
10959TIP3    H154292   2.450   6.615   3.716  0.5624 -0.5691  0.8882
10959TIP3    H254293   2.514   6.479   3.694  0.4354 -0.4750 -0.1276
10960TIP3   OH254294   2.851   0.547  13.286 -0.4389 -0.0408 -0.0606
10960TIP3    H154295   2.865   0.595  13.367  2.9077 -0.3917 -0.3096
10960TIP3    H254296   2.820   0.612  13.223 -0.2549  0.8386  0.7540
10961TIP3   OH254297   1.606   3.408  13.011  0.2150  1.2010  0.6293
10961TIP3    H154298   1.646   3.392  12.926  1.0429  0.8634  1.0687
10961TIP3    H254299   1.568   3.496  13.005  1.8508  1.9181  0.5054
10962TIP3   OH254300   2.883   1.660   0.263  0.3253 -0.1768  0.0499
10962TIP3    H154301   2.788   1.662   0.269  0.3965  0.2227  1.9145
10962TIP3    H254302   2.906   1.744   0.224 -0.0916 -0.3076 -0.4813
10963TIP3   OH254303   5.498   3.133   0.789 -0.0575  0.1017  0.0251
10963TIP3    H154304   5.488   3.151   0.882 -1.5257  2.1836 -0.4738
10963TIP3    H254305   5.436   3.191   0.746  2.4531  1.2198 -2.4437
10964TIP3   OH254306   3.389   0.566  17.112 -0.0382  0.4256  0.0471
10964TIP3    H154307   3.328   0.595  17.180  0.7868  1.1171  0.5227
10964TIP3    H254308   3.473   0.558  17.157 -0.0591 -2.1066 -0.2335
10965TIP3   OH254309   6.301   6.174   6.291  0.2870 -0.2219  0.0241
10965TIP3    H154310   6.314   6.087   6.253  0.2963  0.4061 -1.4602
10965TIP3    H254311   6.268   6.157   6.379  0.4227 -1.7228 -0.1895
10966TIP3   OH254312   1.034   5.262  14.897 -0.1227  0.2883 -0.0845
10966TIP3    H154313   0.971   5.334  14.898  0.6258  1.0968 -2.5119
10966TIP3    H254314   0.981   5.183  14.895 -0.9778  0.8006  1.5436
10967TIP3   OH254315   5.849   0.781   0.899  0.0458  0.1269 -0.3418
10967TIP3    H154316   5.870   0.829   0.978  0.2240 -0.9631  0.3014
10967TIP3    H254317   5.777   0.829   0.859 -0.8447  0.0408  1.1004
10968TIP3   OH254318   1.822   1.775  11.201  0.2998  0.4111  0.5353
10968TIP3    H154319   1.879   1.843  11.237  1.0340 -0.0957  0.3697
10968TIP3    H254320   1.833   1.783  11.106  2.0398 -1.2413  0.5295
10969TIP3   OH254321   6.155   5.051   6.299 -0.2724 -0.4283  0.2526
10969TIP3    H154322   6.251   5.048   6.291 -0.3416  0.0124 -0.8768
10969TIP3    H254323   6.125   4.972   6.254 -0.4567 -0.3755  0.2834
10970TIP3   OH254324   6.578   3.998   5.703  0.0499  0.3565  0.0437
10970TIP3    H154325   6.529   4.057   5.760 -1.1397  1.8950 -2.3773
10970TIP3    H254326   6.516   3.929   5.680  0.1432  0.3755 -0.2774
10971TIP3   OH254327   5.745   4.120   6.079  0.6891  0.0247 -0.5672
10971TIP3    H154328   5.754   4.210   6.048  1.3245 -0.0759 -0.6922
10971TIP3    H254329   5.671   4.123   6.139  1.4020  0.8743  0.3083
10972TIP3   OH254330   2.193   0.086  14.081  0.1208 -0.2134  0.2543
10972TIP3    H154331   2.249   0.055  14.009  0.3153  0.4099  0.1289
10972TIP3    H254332   2.243   0.065  14.160  1.2987  1.7267  0.0992
10973TIP3   OH254333   5.955   1.349  14.033 -0.1585 -0.7512  0.2986
10973TIP3    H154334   6.004   1.279  14.075 -0.5318 -1.0876  0.1848
10973TIP3    H254335   5.893   1.304  13.976  1.4870 -0.3173 -1.9820
10974TIP3   OH254336   3.271   5.011  14.623 -0.5209  0.5453  0.5960
10974TIP3    H154337   3.337   4.981  14.685  0.5825  1.3979 -0.1226
10974TIP3    H254338   3.280   4.953  14.547  0.6097  1.6943 -0.1956
10975TIP3   OH254339   5.817   1.045   0.077 -0.0140  0.6634 -0.7777
10975TIP3    H154340   5.877   1.001   0.017 -0.6363  0.8414 -1.5412
10975TIP3    H254341   5.776   0.974   0.126  0.6188  0.5274 -0.4267
10976TIP3   OH254342   5.632   0.654  16.514  0.3345 -0.2706  0.0342
10976TIP3    H154343   5.721   0.626  16.533  0.1933 -2.0864 -1.7168
10976TIP3    H254344   5.578   0.576  16.526 -0.8202  0.4282 -0.3555
10977TIP3   OH254345   6.486   1.484  13.770  0.1534  0.5358  0.6548
10977TIP3    H154346   6.580   1.504  13.768  0.4999 -1.0191  0.2332
10977TIP3    H254347   6.445   1.568  13.791  1.6972  0.9957  2.1000
10978TIP3   OH254348   5.748   1.344  12.720 -0.2023  0.4709  0.1894
10978TIP3    H154349   5.681   1.334  12.652 -0.1845  1.5140  0.0078
10978TIP3    H254350   5.831   1.330  12.674 -0.1353  2.0513 -0.2145
10979TIP3   OH254351   1.400   0.430  13.220 -0.2885 -0.2416  0.1618
10979TIP3    H154352   1.490   0.417  13.189  0.1513  0.5307  1.0894
10979TIP3    H254353   1.348   0.375  13.162  0.6010  0.4674 -1.3894
10980TIP3   OH254354   2.540   0.713  14.852 -0.1806  0.1853 -0.5797
10980TIP3    H154355   2.482   0.659  14.905 -0.0031 -1.5016 -2.0011
10980TIP3    H254356   2.482   0.758  14.790 -0.2227  0.7423 -0.1401
10981TIP3   OH254357   4.533   5.283  15.825 -0.1154 -0.0186 -0.0425
10981TIP3    H154358   4.568   5.334  15.898 -0.9346  0.0752  0.2925
10981TIP3    H254359   4.566   5.194  15.840  1.9474  0.5044 -1.0358
10982TIP3   OH254360   2.760   4.343   0.699  0.1923 -0.3972 -0.2766
10982TIP3    H154361   2.701   4.329   0.625 -0.2126  2.2485 -0.5352
10982TIP3    H254362   2.797   4.430   0.685  0.1557  0.1927  2.5959
10983TIP3   OH254363   2.876   6.482   0.912 -0.5944 -0.1008  0.0870
10983TIP3    H154364   2.873   6.542   0.987 -0.7684 -0.1316  0.1060
10983TIP3    H254365   2.785   6.470   0.887 -0.4713  0.7374 -0.8066
10984TIP3   OH254366   1.335   1.898  16.824 -0.4048 -0.2738  0.0066
10984TIP3    H154367   1.369   1.980  16.860  2.6992 -2.1124  1.6729
10984TIP3    H254368   1.240   1.907  16.830 -0.1766  2.9274  0.6363
10985TIP3   OH254369   0.787   1.723  16.417  0.2223  0.3088  0.3010
10985TIP3    H154370   0.873   1.757  16.440  0.8989 -1.8072  1.1641
10985TIP3    H254371   0.785   1.634  16.454 -2.8589  0.7640  1.5886
10986TIP3   OH254372   2.793   1.390  13.028 -0.0433  0.1072  0.3053
10986TIP3    H154373   2.886   1.399  13.006 -0.0403  0.6937  0.5323
10986TIP3    H254374   2.765   1.311  12.982 -0.2105  1.6147 -2.3449
10987TIP3   OH254375   4.649   4.929   4.694  0.5651  0.5389 -0.1275
10987TIP3    H154376   4.603   4.987   4.754  0.4961 -0.5000  0.8661
10987TIP3    H254377   4.587   4.913   4.623  0.4361  1.3284 -0.2021
10988TIP3   OH254378   2.028   4.128   2.061 -0.3812  0.3281  0.5003
10988TIP3    H154379   1.980   4.131   1.978 -0.4599  1.0268  0.5628
10988TIP3    H254380   1.981   4.064   2.114 -0.5689  0.1756  0.1517
10989TIP3   OH254381   4.220   0.435   2.218  0.1318 -0.7232  0.1146
10989TIP3    H154382   4.263   0.358   2.253  0.4479 -1.1870 -1.2122
10989TIP3    H254383   4.146   0.400   2.168 -0.0898 -0.1300  0.0164
10990TIP3   OH254384   5.480   6.517  16.361 -0.0028  0.7358  0.4784
10990TIP3    H154385   5.519   6.512  16.448 -0.2512 -2.2324  0.5253
10990TIP3    H254386   5.398   6.467  16.369 -0.7619  1.6305 -1.1308
10991TIP3   OH254387   0.786   3.577   4.811  0.1850 -0.1008 -0.2507
10991TIP3    H154388   0.807   3.574   4.718 -1.5051  0.5683 -0.6790
10991TIP3    H254389   0.870   3.595   4.854  0.5967  1.9686 -1.8101
10992TIP3   OH254390   6.233   0.021   5.380 -0.2517  0.1824  0.0447
10992TIP3    H154391   6.260  -0.004   5.292 -0.8530  0.8347 -0.3393
10992TIP3    H254392   6.310   0.064   5.418 -0.3357  0.9211 -0.5875
10993TIP3   OH254393   5.426   0.910   6.327  0.3860 -0.1794 -0.5008
10993TIP3    H154394   5.368   0.885   6.399 -0.8716  1.5922 -0.8515
10993TIP3    H254395   5.485   0.975   6.366  1.1481 -0.8245 -0.5475
10994TIP3   OH254396   0.694   6.646  15.330 -0.9815  0.0442 -0.3926
10994TIP3    H154397   0.662   6.681  15.413  0.0777  1.4335 -0.5259
10994TIP3    H254398   0.633   6.576  15.308 -2.8202  1.3695  0.2449
10995TIP3   OH254399   1.736   0.792  12.980 -0.1578 -0.3977 -0.0329
10995TIP3    H154400   1.643   0.787  13.001 -0.4093  0.7581 -0.7670
10995TIP3    H254401   1.778   0.730  13.041 -1.3660 -0.7797  0.4465
10996TIP3   OH254402   0.525   0.756  13.770 -0.1051  0.1883  0.1902
10996TIP3    H154403   0.617   0.779  13.756 -0.1933 -0.0508 -0.8681
10996TIP3    H254404   0.516   0.751  13.865  1.9258 -3.5351  0.3759
10997TIP3   OH254405   0.422   4.524   2.851  0.4177  0.4741  0.4858
10997TIP3    H154406   0.346   4.576   2.824 -0.6521 -0.6942  1.1573
10997TIP3    H254407   0.449   4.478   2.772 -1.7625 -1.7709  0.9235
10998TIP3   OH254408   1.458   0.659  16.469  0.2582  0.6459  0.6848
10998TIP3    H154409   1.552   0.651  16.485  0.3971  0.3216 -0.2211
10998TIP3    H254410   1.452   0.710  16.388 -0.2877 -0.6755 -0.1355
10999TIP3   OH254411   3.934   0.494  14.184  0.3583  0.2065  0.5361
10999TIP3    H154412   3.930   0.415  14.131 -1.2988  0.7797 -0.2301
10999TIP3    H254413   3.935   0.462  14.275  1.6389 -0.7144  0.2291
11000TIP3   OH254414   1.016   6.265   1.689  0.4709 -0.2771 -0.0578
11000TIP3    H154415   0.979   6.352   1.671  1.6153  0.4069  0.7566
11000TIP3    H254416   0.991   6.212   1.614  4.5832  2.2449 -3.6454
11001TIP3   OH254417   2.896   4.820   6.007 -0.0537  0.3586 -0.3801
11001TIP3    H154418   2.907   4.900   5.956 -0.1253  0.0984 -0.8021
11001TIP3    H254419   2.841   4.846   6.081 -0.6634  0.5337 -0.8942
11002TIP3   OH254420   0.075   0.158   3.158 -0.2463 -0.3804 -0.2964
11002TIP3    H154421   0.130   0.232   3.132 -2.6581  1.2891 -1.0816
11002TIP3    H254422   0.136   0.089   3.182  2.1410  1.1673 -1.5413
11003TIP3   OH254423   2.784   2.684   4.070 -0.4352  0.3835  0.2429
11003TIP3    H154424   2.696   2.691   4.108 -0.8130  2.0638 -0.8395
11003TIP3    H254425   2.843   2.678   4.145 -1.4905 -1.7382  0.9885
11004TIP3   OH254426   2.971   2.382  12.877  0.0213  0.2843  0.1861
11004TIP3    H154427   2.880   2.369  12.849  0.0795  2.3808 -1.1690
11004TIP3    H254428   3.017   2.407  12.798  1.3783  1.1388  1.2061
11005TIP3   OH254429   4.991   1.947   2.039  0.2988  0.1063  0.1390
11005TIP3    H154430   4.946   1.878   2.089  0.1554 -1.0400 -1.4769
11005TIP3    H254431   5.082   1.918   2.035 -0.1381 -1.2581 -2.3998
11006TIP3   OH254432   6.213   6.236  13.715  0.4596  0.5212  0.0237
11006TIP3    H154433   6.282   6.280  13.765  1.2299 -0.3322 -0.2586
11006TIP3    H254434   6.259   6.168  13.666 -0.4769  0.4558 -0.7949
11007TIP3   OH254435   4.374   1.699  15.006  0.4414  0.1344 -0.3884
11007TIP3    H154436   4.314   1.650  15.062 -1.0502  2.1563 -0.0927
11007TIP3    H254437   4.365   1.659  14.919 -0.3681 -0.4123 -0.0587
11008TIP3   OH254438   1.150   3.985  16.923  0.4948  0.1320 -0.0217
11008TIP3    H154439   1.202   3.967  16.845 -0.6282  0.2869 -0.8334
11008TIP3    H254440   1.210   3.971  16.996  1.1547 -1.5284 -0.8369
11009TIP3   OH254441   0.609   4.726  15.466 -0.3811 -0.2986  0.0856
11009TIP3    H154442   0.551   4.801  15.480  0.5058  0.5354 -0.5486
11009TIP3    H254443   0.654   4.746  15.384  1.4975 -0.4500  1.0342
11010TIP3   OH254444   1.506   5.140  13.463  0.3446 -0.4623 -0.3461
11010TIP3    H154445   1.544   5.083  13.530  1.6828 -0.4173 -1.0232
11010TIP3    H254446   1.441   5.192  13.509  1.0181 -0.6547  0.8621
11011TIP3   OH254447   2.739   2.618  14.063  0.4521 -0.0065  0.5244
11011TIP3    H154448   2.794   2.542  14.086 -0.2691 -1.2032 -1.4772
11011TIP3    H254449   2.795   2.672  14.008 -0.2836 -1.2590 -1.5709
11012TIP3   OH254450   4.457   3.952  12.548 -0.2173 -0.3570 -0.4910
11012TIP3    H154451   4.426   4.015  12.483 -1.6883  0.4277  0.9099
11012TIP3    H254452   4.448   3.867  12.505  2.0527  0.2934 -2.5150
11013TIP3   OH254453   6.455   1.077   1.010  0.4355 -0.3188 -0.6849
11013TIP3    H154454   6.397   1.029   0.951  2.5551 -2.2347 -1.3320
11013TIP3    H254455   6.544   1.057   0.978  1.5307  1.4159  1.0571
11014TIP3   OH254456   0.673   6.212  15.907 -0.5733  0.0360  0.1343
11014TIP3    H154457   0.743   6.184  15.967 -0.1555 -0.2528 -0.4796
11014TIP3    H254458   0.656   6.135  15.853 -0.8215  0.3550 -0.2385
11015TIP3   OH254459   1.652   4.681  11.321  0.1089 -0.5166 -0.0401
11015TIP3    H154460   1.583   4.693  11.257 -0.1486  0.4263  0.3922
11015TIP3    H254461   1.733   4.685  11.271 -0.1242 -1.5427 -0.5358
11016TIP3   OH254462   4.150   6.571  16.738  0.0240 -0.0854  0.5855
11016TIP3    H154463   4.082   6.553  16.673  1.6148 -0.0594 -1.1959
11016TIP3    H254464   4.204   6.492  16.739  1.2741  0.7318  0.2250
11017TIP3   OH254465   5.736   1.716  11.443 -0.3641 -0.0702 -0.4824
11017TIP3    H154466   5.796   1.754  11.379  0.4333  0.3609  0.4805
11017TIP3    H254467   5.748   1.622  11.434 -0.8710 -0.0392 -1.5219
11018TIP3   OH254468   5.652   2.693   3.801  0.1457  0.3132 -0.5315
11018TIP3    H154469   5.624   2.626   3.864 -0.9426  0.3392 -0.9635
11018TIP3    H254470   5.581   2.756   3.801  0.0506  0.2272 -1.9159
11019TIP3   OH254471   0.911   1.103   4.712  0.0353 -0.5332  0.1208
11019TIP3    H154472   0.948   1.186   4.682  0.7279 -0.3604  1.3743
11019TIP3    H254473   0.980   1.063   4.765 -1.0563 -0.8805  1.3412
11020TIP3   OH254474   2.359   5.296   2.717 -0.4920 -0.4300 -0.0672
11020TIP3    H154475   2.406   5.298   2.800 -1.0421  0.4800  0.2300
11020TIP3    H254476   2.278   5.250   2.737 -0.5288 -0.4019 -0.1515
11021TIP3   OH254477   1.295   1.427   6.150  0.0439  0.2377  0.1881
11021TIP3    H154478   1.275   1.504   6.097 -0.9753 -0.6900 -0.8009
11021TIP3    H254479   1.382   1.400   6.121  0.0201  0.4701 -0.1034
11022TIP3   OH254480   5.346   4.119   1.142  0.3158  0.0005  0.0916
11022TIP3    H154481   5.368   4.208   1.170  0.4653 -0.1401  0.4255
11022TIP3    H254482   5.402   4.063   1.195  0.8247 -0.2653 -0.6985
11023TIP3   OH254483   3.505   5.798   5.517 -0.5539  0.0581 -0.1735
11023TIP3    H154484   3.594   5.832   5.504 -1.9548  4.0909 -0.4936
11023TIP3    H254485   3.494   5.799   5.612 -0.3392 -0.3296 -0.1398
11024TIP3   OH254486   4.598   1.546   5.567 -0.5004  0.2588  0.5472
11024TIP3    H154487   4.659   1.606   5.524 -0.9886  1.4695  1.5045
11024TIP3    H254488   4.655   1.483   5.611  0.0498  0.8470  0.6935
11025TIP3   OH254489   5.824   2.623  17.192 -0.5487  0.4443 -0.0070
11025TIP3    H154490   5.867   2.700  17.155  0.4806 -0.1244 -0.0234
11025TIP3    H254491   5.833   2.555  17.125  1.2799 -0.5781  1.1804
11026TIP3   OH254492   3.284   5.923   0.626 -0.1538  0.0965  0.0126
11026TIP3    H154493   3.205   5.871   0.612 -1.8612  2.4533  0.2364
11026TIP3    H254494   3.292   5.929   0.722  0.9760 -1.0390  0.0097
11027TIP3   OH254495   1.817   0.340  15.223  0.1155  0.1651 -0.0143
11027TIP3    H154496   1.803   0.407  15.156  1.0939  0.7643  0.3615
11027TIP3    H254497   1.739   0.284  15.218  0.4982 -0.2839 -2.1828
11028TIP3   OH254498   4.410   2.751  12.072 -0.9708 -0.2984 -0.1569
11028TIP3    H154499   4.405   2.666  12.116 -0.4424 -0.6689 -0.8082
11028TIP3    H254500   4.377   2.813  12.138 -0.9381 -0.9419  0.4822
11029TIP3   OH254501   6.712   6.469   3.194  0.1313  0.5918 -0.8483
11029TIP3    H154502   6.703   6.506   3.106 -0.0694  1.2269 -0.5660
11029TIP3    H254503   6.670   6.533   3.251 -2.4568 -1.1987 -0.5877
11030TIP3   OH254504   5.036   4.996   6.523  0.4242  0.2025  0.5206
11030TIP3    H154505   5.120   4.997   6.478  0.8686 -0.9014  1.2867
11030TIP3    H254506   5.049   4.938   6.598 -0.1671  2.2851  2.3382
11031TIP3   OH254507   0.511   6.743   0.873 -0.0687 -0.1988 -0.6739
11031TIP3    H154508   0.512   6.652   0.841 -0.8068 -0.0890 -1.0244
11031TIP3    H254509   0.454   6.740   0.950 -0.1571 -0.0212 -0.7325
11032TIP3   OH254510   0.289   5.179  12.629  0.9144  0.2313 -0.0080
11032TIP3    H154511   0.289   5.164  12.723  0.5008 -0.2201 -0.0740
11032TIP3    H254512   0.379   5.204  12.608  0.8410  1.0363  0.6121
11033TIP3   OH254513   6.396   2.905   3.727 -0.1616  0.5981  0.6224
11033TIP3    H154514   6.410   2.975   3.663  0.4665 -0.4467 -0.4276
11033TIP3    H254515   6.427   2.941   3.810 -1.0780  2.0177  0.3900
11034TIP3   OH254516   6.425   3.739  11.695 -0.2898 -0.2418  0.2637
11034TIP3    H154517   6.398   3.692  11.773 -0.2220 -1.4620 -0.4209
11034TIP3    H254518   6.425   3.831  11.721  0.2502 -0.6629  1.8352
11035TIP3   OH254519   5.404   1.048  12.861  0.1453  0.3963  0.3628
11035TIP3    H154520   5.483   1.082  12.902  0.5567 -0.7584  0.5678
11035TIP3    H254521   5.403   1.087  12.774 -0.1405  1.9899  1.0320
11036TIP3   OH254522   1.092   2.670   2.576 -0.2019 -0.0273  0.6330
11036TIP3    H154523   1.069   2.740   2.638  0.3790 -2.1730  3.4521
11036TIP3    H254524   1.185   2.654   2.591 -0.1931 -1.0216 -0.3725
11037TIP3   OH254525   1.525   6.018  13.129 -0.0357 -0.4247 -0.2147
11037TIP3    H154526   1.589   5.955  13.096  0.7107  0.7586 -1.1252
11037TIP3    H254527   1.476   5.970  13.196  0.9452 -1.7481 -0.4028
11038TIP3   OH254528   6.046   1.137   2.185  0.3981 -0.0401 -0.4969
11038TIP3    H154529   5.988   1.211   2.201 -0.3741 -0.1234 -2.6112
11038TIP3    H254530   5.987   1.064   2.165  1.1806 -0.8424  0.0522
11039TIP3   OH254531   4.860   1.677   4.827  0.2806  0.0638  0.2318
11039TIP3    H154532   4.899   1.645   4.745  1.1585  3.4456 -0.8135
11039TIP3    H254533   4.776   1.715   4.801  0.5929  1.2297  0.8755
11040TIP3   OH254534   2.700   6.715   1.513  0.3679 -0.7020  0.3360
11040TIP3    H154535   2.650   6.737   1.591 -0.8331 -0.3295 -0.5058
11040TIP3    H254536   2.746   6.634   1.536 -2.9979 -2.8427  0.1998
11041TIP3   OH254537   0.009   4.226   6.090 -0.2193 -0.8289 -0.5808
11041TIP3    H154538  -0.073   4.180   6.074 -0.9461 -0.7835  2.4880
11041TIP3    H254539  -0.017   4.315   6.115  1.0817  0.8803 -4.3604
11042TIP3   OH254540   2.412   6.740  16.643  0.5307 -0.1048  0.5495
11042TIP3    H154541   2.390   6.661  16.593 -0.3091 -0.2203  1.0860
11042TIP3    H254542   2.454   6.708  16.722 -0.2743 -0.0580  1.0102
11043TIP3   OH254543   4.455   3.483   5.752 -0.3378 -0.2682  0.1765
11043TIP3    H154544   4.472   3.578   5.755  1.5835 -0.5491 -0.4695
11043TIP3    H254545   4.359   3.476   5.752 -0.5235  1.6779  0.0505
11044TIP3   OH254546   5.022   3.598  16.920 -0.5391 -0.1973  0.2742
11044TIP3    H154547   5.086   3.533  16.890  0.0952  0.1513  0.8446
11044TIP3    H254548   5.014   3.584  17.014 -1.5287 -0.4191  0.1707
11045TIP3   OH254549   2.824   0.529   5.168  0.1122  0.6428  0.0776
11045TIP3    H154550   2.898   0.510   5.225  0.8863  0.7995 -0.8583
11045TIP3    H254551   2.860   0.527   5.080 -0.9090  1.1531 -0.3676
11046TIP3   OH254552   0.179   2.873  16.317  0.2026  0.3473  0.6067
11046TIP3    H154553   0.121   2.919  16.257  0.5900  1.0140  0.7339
11046TIP3    H254554   0.166   2.916  16.401  1.2811  0.8896  0.5187
11047TIP3   OH254555   4.955   3.381   5.098 -0.4630  0.0203  0.5635
11047TIP3    H154556   4.890   3.449   5.084  1.0611  1.0634 -2.0595
11047TIP3    H254557   4.928   3.308   5.042  0.2171  0.1858  0.0014
11048TIP3   OH254558   3.256   4.279   4.757 -0.5412  0.5913 -0.1240
11048TIP3    H154559   3.327   4.317   4.706 -1.1071  0.6569 -0.8764
11048TIP3    H254560   3.277   4.300   4.848  0.1719  0.9793 -0.3772
11049TIP3   OH254561   2.820   5.490   1.927  0.4341  0.3481 -0.5188
11049TIP3    H154562   2.906   5.483   1.886  0.0287 -0.5222 -1.2530
11049TIP3    H254563   2.818   5.579   1.964  0.6356  1.4157 -2.8825
11050TIP3   OH254564   1.895   1.620  15.502 -0.1572 -0.6954 -0.2478
11050TIP3    H154565   1.990   1.631  15.506 -0.3899  1.7647 -0.4783
11050TIP3    H254566   1.871   1.591  15.590  0.5676  0.9761  0.5316
11051TIP3   OH254567   3.692   2.064  13.734 -0.6939 -0.0888 -0.1373
11051TIP3    H154568   3.657   1.977  13.749 -1.0051  0.0518 -0.0245
11051TIP3    H254569   3.765   2.051  13.674  0.5837 -0.6710  1.4697
11052TIP3   OH254570   0.213   3.329   0.508  0.2696 -0.5038 -0.5844
11052TIP3    H154571   0.281   3.291   0.564  1.1069  0.7909 -0.6830
11052TIP3    H254572   0.257   3.345   0.424  0.1103  1.1139 -0.3935
11053TIP3   OH254573   1.110   1.931   3.089  0.3896 -0.3643  0.5783
11053TIP3    H154574   1.186   1.921   3.031  0.2446 -0.5809  0.4256
11053TIP3    H254575   1.034   1.915   3.033  0.2660 -1.1214  0.9438
11054TIP3   OH254576   3.718   3.619   2.900 -0.3503  0.2570  0.5167
11054TIP3    H154577   3.754   3.569   2.827  0.2016  0.8674  0.3590
11054TIP3    H254578   3.631   3.583   2.914  0.2465 -1.1322  0.7827
11055TIP3   OH254579   0.810   3.213   0.477 -0.0198 -0.5678  0.0369
11055TIP3    H154580   0.883   3.274   0.468 -2.3886  2.4533 -0.5481
11055TIP3    H254581   0.804   3.197   0.572  0.5941  0.2451  0.2252
11056TIP3   OH254582   0.046   2.920   4.871  0.7093  0.6956 -0.5727
11056TIP3    H154583   0.032   2.933   4.965 -2.9521  0.0816 -0.8967
11056TIP3    H254584   0.127   2.870   4.865  1.2359  1.0743  2.2047
11057TIP3   OH254585   4.258   1.961   2.100 -0.4734  0.2204 -0.0571
11057TIP3    H154586   4.224   2.048   2.123 -0.7884  0.1154 -0.1210
11057TIP3    H254587   4.323   1.978   2.032  0.6980  0.5658  1.1038
11058TIP3   OH254588   3.209   5.270   6.540 -0.0086 -0.3725  0.3879
11058TIP3    H154589   3.293   5.304   6.571 -1.0391  2.5410  0.3202
11058TIP3    H254590   3.181   5.209   6.608  1.5295 -0.3773  1.0539
11059TIP3   OH254591   5.503   2.800   5.909 -0.5920  0.0104 -0.3609
11059TIP3    H154592   5.442   2.736   5.871 -0.9824  0.3540 -0.3172
11059TIP3    H254593   5.525   2.763   5.995 -0.4385 -0.3025 -0.5313
11060TIP3   OH254594   4.722   3.373  16.815  0.0156  0.3128  0.0770
11060TIP3    H154595   4.674   3.305  16.862 -0.2237  0.1619 -0.3883
11060TIP3    H254596   4.771   3.418  16.884  0.4200 -0.5228  0.3501
11061TIP3   OH254597   3.303   6.354  15.976  0.5364 -0.3009 -0.1541
11061TIP3    H154598   3.339   6.420  16.036 -0.3450  0.3069 -0.2725
11061TIP3    H254599   3.234   6.311  16.026  1.0504 -1.0839 -0.1085
11062TIP3   OH254600   2.591   4.801  17.223 -0.0646  0.1823  0.5494
11062TIP3    H154601   2.574   4.879  17.277  0.5069  0.2607  0.6266
11062TIP3    H254602   2.551   4.730  17.272  2.1049 -0.0649  2.1340
11063TIP3   OH254603   0.011   5.177  17.074  0.0825 -0.0292 -0.1213
11063TIP3    H154604  -0.036   5.220  17.146 -0.9477 -1.5577  0.1752
11063TIP3    H254605   0.047   5.098  17.114 -0.2825 -0.7611 -1.2112
11064TIP3   OH254606   1.877   3.115   5.166  0.1978 -0.3840  0.2328
11064TIP3    H154607   1.793   3.082   5.196 -0.5109  0.2353 -0.9534
11064TIP3    H254608   1.906   3.175   5.234 -1.4265  1.1036 -0.3126
11065TIP3   OH254609   1.803   2.140  12.255 -0.1229 -0.1250  0.5020
11065TIP3    H154610   1.734   2.131  12.188 -0.9058  0.1473  1.2471
11065TIP3    H254611   1.780   2.074  12.321 -0.1437  0.5204  1.1513
11066TIP3   OH254612   2.038   3.908   0.714  0.4369  0.0408 -0.2883
11066TIP3    H154613   1.995   3.992   0.701  1.3995  0.2544 -2.5595
11066TIP3    H254614   1.974   3.843   0.683 -0.3490 -0.1301  1.5662
11067TIP3   OH254615   5.046   1.435  17.116  0.7622 -0.5040  0.6264
11067TIP3    H154616   5.058   1.411  17.024  1.2321  2.7449 -0.2816
11067TIP3    H254617   5.133   1.464  17.144  0.6812 -1.6437  2.2444
11068TIP3   OH254618   1.777   5.258   1.388 -0.1109  0.2850  0.1004
11068TIP3    H154619   1.824   5.211   1.458  0.7780  0.5390 -0.3139
11068TIP3    H254620   1.843   5.273   1.321 -0.9486  0.0835 -0.7875
11069TIP3   OH254621   4.027   3.812  12.245  0.4181 -0.0893 -0.1336
11069TIP3    H154622   4.070   3.897  12.234 -0.5810  0.2459 -1.9446
11069TIP3    H254623   3.959   3.812  12.178 -0.8589 -1.5493  1.0939
11070TIP3   OH254624   5.122   1.849   3.507 -0.2393  0.1739  0.6508
11070TIP3    H154625   5.142   1.762   3.542  0.0702 -0.5375 -1.1778
11070TIP3    H254626   5.203   1.900   3.520  0.3564 -0.5065 -0.2255
11071TIP3   OH254627   2.202   0.945  13.588 -0.0293 -0.1294 -0.0251
11071TIP3    H154628   2.242   0.943  13.675  0.0480 -2.6653 -0.0428
11071TIP3    H254629   2.108   0.930  13.605 -0.5833  2.6536 -0.2094
11072TIP3   OH254630   2.446   2.746   1.786 -0.2065 -0.4646  0.2970
11072TIP3    H154631   2.442   2.695   1.705 -1.6762  0.6329 -0.3831
11072TIP3    H254632   2.537   2.739   1.814 -0.2915 -3.2445  0.1596
11073TIP3   OH254633   1.011   5.028  12.324 -0.8543  0.1445 -0.1471
11073TIP3    H154634   0.996   4.936  12.347 -1.0371  0.2490  0.1540
11073TIP3    H254635   0.957   5.043  12.247  1.3855 -0.8136 -2.0325
11074TIP3   OH254636   0.573   0.599   2.671 -0.0440 -0.3940 -0.6000
11074TIP3    H154637   0.485   0.625   2.699 -0.0866 -0.4456 -0.6847
11074TIP3    H254638   0.628   0.673   2.695 -0.2030 -0.1279 -1.0368
11075TIP3   OH254639   0.328   0.853  12.529 -0.5297  0.2606 -0.1303
11075TIP3    H154640   0.398   0.789  12.522  1.3124  2.1831 -0.0481
11075TIP3    H254641   0.249   0.804  12.503  0.6795 -2.1268  0.3758
11076TIP3   OH254642   3.017   6.220  12.313 -0.3710  0.3626 -0.7875
11076TIP3    H154643   3.111   6.222  12.332 -0.9149 -0.7406  2.6981
11076TIP3    H254644   2.982   6.151  12.369 -3.4577  1.6033 -0.9625
11077TIP3   OH254645   5.575   1.721  13.513  0.1525 -0.2247 -0.1458
11077TIP3    H154646   5.528   1.747  13.592  0.2960  1.9610 -0.7129
11077TIP3    H254647   5.627   1.798  13.490  1.0076 -1.2206 -1.7208
11078TIP3   OH254648   6.125   2.118   5.462  0.1282 -0.2439  0.9437
11078TIP3    H154649   6.173   2.089   5.539 -0.0677  1.1563  1.6253
11078TIP3    H254650   6.034   2.092   5.480  0.2552 -0.9441  0.6372
11079TIP3   OH254651   2.295   3.317   1.442  0.0620  0.1339 -0.1494
11079TIP3    H154652   2.361   3.299   1.509 -0.3395 -3.7466 -0.5864
11079TIP3    H254653   2.342   3.307   1.359 -0.6454 -0.9172 -0.4458
11080TIP3   OH254654   0.774   0.857   1.310 -0.3914 -0.2168  0.0307
11080TIP3    H154655   0.706   0.807   1.264 -1.6062 -0.3694  1.8737
11080TIP3    H254656   0.796   0.802   1.386  1.1315  0.2667 -0.0384
11081TIP3   OH254657   5.099   5.177  16.539 -0.5412  0.2958  0.1042
11081TIP3    H154658   5.145   5.205  16.618 -1.4765  1.8350  0.1538
11081TIP3    H254659   5.015   5.142  16.572 -1.3943  1.9410 -0.2259
11082TIP3   OH254660   5.859   3.700  11.429 -0.1472 -0.5163  0.4723
11082TIP3    H154661   5.950   3.672  11.432  0.3086  0.9316  0.8312
11082TIP3    H254662   5.826   3.665  11.347  0.9598 -0.4013 -0.0432
11083TIP3   OH254663   6.573   1.727  16.113  0.0252  0.2367 -0.3485
11083TIP3    H154664   6.668   1.716  16.112  0.1082  0.9186 -0.9164
11083TIP3    H254665   6.559   1.814  16.076 -0.7011  1.2784  2.2126
11084TIP3   OH254666   3.150   3.160  13.864  0.3574  0.6893 -0.6133
11084TIP3    H154667   3.111   3.081  13.901  1.7531  0.1857 -0.1692
11084TIP3    H254668   3.094   3.231  13.895 -0.3436 -0.0288 -0.2093
11085TIP3   OH254669   6.462   0.849  13.170 -0.1007 -0.0745  0.5293
11085TIP3    H154670   6.552   0.862  13.143  0.3459 -1.0047  1.5061
11085TIP3    H254671   6.432   0.774  13.119  0.1402 -0.6526  1.2271
11086TIP3   OH254672   1.755   0.584  14.295 -0.5245 -0.1876  0.0795
11086TIP3    H154673   1.802   0.665  14.276 -1.1177  0.0885 -0.2361
11086TIP3    H254674   1.663   0.605  14.281 -0.7378 -0.7609  0.5473
11087TIP3   OH254675   2.481   4.926   2.820 -0.5172 -0.2631 -0.2093
11087TIP3    H154676   2.470   4.948   2.913 -1.2369 -2.7186  0.3692
11087TIP3    H254677   2.575   4.914   2.809 -0.1904  2.1189 -0.3681
11088TIP3   OH254678   3.128   5.779   4.307  0.0507  0.4555 -0.8717
11088TIP3    H154679   3.082   5.860   4.286 -0.4698  0.2524 -0.5178
11088TIP3    H254680   3.216   5.808   4.332 -1.2255  1.4065  3.3928
11089TIP3   OH254681   4.266   2.741  13.393  0.0217  0.9273  0.3960
11089TIP3    H154682   4.210   2.677  13.437 -0.3135 -0.2023 -1.5856
11089TIP3    H254683   4.221   2.759  13.310  2.7068 -0.2675 -1.4259
11090TIP3   OH254684   1.241   3.523  11.948  0.0920 -0.2311 -0.1775
11090TIP3    H154685   1.301   3.582  11.902  1.3381 -1.1119  0.2856
11090TIP3    H254686   1.297   3.458  11.988 -0.9580  0.3229  2.3898
11091TIP3   OH254687   6.588   6.508  11.154 -0.7223 -0.0175  0.6991
11091TIP3    H154688   6.607   6.419  11.125 -0.1378  0.5456 -0.7139
11091TIP3    H254689   6.652   6.524  11.223  0.5608  0.0104 -0.4538
11092TIP3   OH254690   2.843   5.509  13.205  0.0891 -0.0104 -0.0459
11092TIP3    H154691   2.789   5.433  13.182 -0.7735  0.6140 -0.1304
11092TIP3    H254692   2.836   5.515  13.300  1.0693 -0.6912  0.0822
11093TIP3   OH254693   2.069   1.622   0.386  0.2036  0.4970 -0.1439
11093TIP3    H154694   2.160   1.603   0.409  0.6913  2.1942 -0.4970
11093TIP3    H254695   2.018   1.554   0.430  1.5692  0.1231  0.9205
11094TIP3   OH254696   1.078   6.494  14.429  0.1166 -0.5382  0.0715
11094TIP3    H154697   1.107   6.407  14.402  0.5496 -0.3228 -0.1798
11094TIP3    H254698   1.118   6.507  14.515  1.3484  0.0179 -0.5525
11095TIP3   OH254699   0.231   3.572  14.651  0.5638 -0.5220  0.4015
11095TIP3    H154700   0.184   3.513  14.591  1.4256 -1.8672  1.0142
11095TIP3    H254701   0.176   3.575  14.729 -0.9472  1.8191 -0.6043
11096TIP3   OH254702   3.840   6.128  12.557 -0.1555  0.0172 -0.3971
11096TIP3    H154703   3.779   6.190  12.597 -0.4666  1.2990 -2.6230
11096TIP3    H254704   3.898   6.102  12.628 -1.3471  1.2179  1.1029
11097TIP3   OH254705   4.527   6.010  11.016 -0.2378  0.6358  0.2356
11097TIP3    H154706   4.462   6.070  10.978 -1.3504  0.0124  1.1068
11097TIP3    H254707   4.509   6.011  11.110 -0.4461 -1.2294  0.2535
11098TIP3   OH254708   2.573   5.989  16.230 -0.1498 -0.0442  0.1889
11098TIP3    H154709   2.540   5.917  16.176 -1.6093 -0.0215  1.0114
11098TIP3    H254710   2.512   6.061  16.216  0.9316  0.8500 -0.1206
11099TIP3   OH254711   4.203   4.515   6.602 -0.0250 -0.1480  0.2673
11099TIP3    H154712   4.201   4.594   6.656 -1.1560  0.2055 -0.2490
11099TIP3    H254713   4.115   4.478   6.612  0.2901 -0.9875 -0.0186
11100TIP3   OH254714   5.658   3.441   1.605  0.3259 -0.2085  0.0953
11100TIP3    H154715   5.657   3.346   1.612  1.7848 -0.2867 -0.4256
11100TIP3    H254716   5.641   3.473   1.693  0.1695 -0.9516  0.3366
11101TIP3   OH254717   1.305   0.172  13.994  0.5715 -0.1943  0.5140
11101TIP3    H154718   1.241   0.243  13.995 -1.6132 -2.0228  0.7304
11101TIP3    H254719   1.373   0.201  13.933 -0.0243  2.1866  0.8820
11102TIP3   OH254720   2.352   2.281   0.350 -0.3565 -0.3027  0.4383
11102TIP3    H154721   2.335   2.216   0.418  0.1796  0.0051  0.8625
11102TIP3    H254722   2.279   2.342   0.357  0.8431  1.0115  2.2577
11103TIP3   OH254723   1.251   2.504  10.999 -0.2704 -0.0689 -0.3445
11103TIP3    H154724   1.237   2.553  10.918 -1.5264  0.9341  0.4461
11103TIP3    H254725   1.302   2.427  10.971 -1.0410  0.0168 -2.1579
11104TIP3   OH254726   4.941   0.167   4.239 -0.3979  0.1920  0.4049
11104TIP3    H154727   4.855   0.194   4.206  0.2459  1.7950 -0.0340
11104TIP3    H254728   4.921   0.096   4.301 -1.7983 -1.6201 -1.9185
11105TIP3   OH254729   6.051   1.234   3.018 -0.3509 -0.1744 -0.1994
11105TIP3    H154730   5.983   1.192   3.071 -1.0710  2.1441  0.8463
11105TIP3    H254731   6.059   1.322   3.054  0.8578  0.7326 -2.4463
11106TIP3   OH254732   1.405   0.928   4.303  0.2815  0.4403  0.1355
11106TIP3    H154733   1.336   0.895   4.244  1.4401  0.9099 -1.5681
11106TIP3    H254734   1.476   0.864   4.295  1.3182  1.6392 -0.7481
11107TIP3   OH254735   4.010   4.161  17.169  0.3426 -0.5488  0.7000
11107TIP3    H154736   3.962   4.082  17.193 -0.9906  0.0263  0.0679
11107TIP3    H254737   4.086   4.163  17.227 -0.4267 -1.4819  1.7627
11108TIP3   OH254738   4.756   3.144   6.288 -0.3279 -0.7463  0.1074
11108TIP3    H154739   4.841   3.099   6.287  0.4731  0.6358 -1.9055
11108TIP3    H254740   4.741   3.164   6.380  0.2682 -3.2106  0.8251
11109TIP3   OH254741   1.844   1.003  12.876  0.3034 -0.2460  0.0658
11109TIP3    H154742   1.822   0.918  12.914  0.6511 -0.3896 -0.0476
11109TIP3    H254743   1.760   1.048  12.868  0.3165  0.3274  2.2952
11110TIP3   OH254744   1.070   4.137   5.317  0.1940  0.2543  0.2011
11110TIP3    H154745   1.155   4.148   5.359  0.0822  0.3354  0.4093
11110TIP3    H254746   1.014   4.203   5.358 -0.4347 -0.9368  1.3052
11111TIP3   OH254747   5.366   1.005   4.985 -0.1866  0.2049  0.2660
11111TIP3    H154748   5.406   1.020   4.900  0.3505 -0.4587  0.3926
11111TIP3    H254749   5.272   1.006   4.968 -0.0896 -1.9055 -0.7115
11112TIP3   OH254750   3.766   4.981   3.377 -0.0213  0.0111 -0.3473
11112TIP3    H154751   3.837   5.019   3.429 -0.0822  1.3719 -1.2229
11112TIP3    H254752   3.709   5.054   3.357 -0.6161 -0.7078 -1.3437
11113TIP3   OH254753   2.329   3.964   4.562  0.2180  0.2979 -0.0217
11113TIP3    H154754   2.317   4.058   4.547 -0.6934  0.1815 -0.0809
11113TIP3    H254755   2.245   3.935   4.597  0.5559 -0.4649  0.1640
11114TIP3   OH254756   4.673   0.628  14.338  0.0655  0.5622  0.4400
11114TIP3    H154757   4.631   0.558  14.288  1.8587 -0.3324  0.0858
11114TIP3    H254758   4.600   0.679  14.374 -1.3119 -1.1807  0.3022
11115TIP3   OH254759   0.510   6.287   2.204  0.0976  0.2694 -0.0371
11115TIP3    H154760   0.602   6.300   2.184 -0.3317  1.7321 -1.2826
11115TIP3    H254761   0.495   6.341   2.283  0.0881  0.9267 -0.4773
11116TIP3   OH254762   2.217   4.059   2.454  0.3447 -0.6548 -0.3158
11116TIP3    H154763   2.298   4.095   2.489  1.2120 -0.9358 -1.9022
11116TIP3    H254764   2.208   4.101   2.368 -1.0517 -0.8427 -0.2847
11117TIP3   OH254765   5.662   5.965  13.032 -0.2176 -0.4249 -0.2880
11117TIP3    H154766   5.686   5.976  12.940  2.2007  0.2179  0.3360
11117TIP3    H254767   5.603   5.890  13.034  0.8548 -1.3761 -2.2048
11118TIP3   OH254768   0.822   2.734   1.247 -0.0344  0.0792 -0.2877
11118TIP3    H154769   0.833   2.768   1.158 -0.5113  0.3018 -0.2656
11118TIP3    H254770   0.907   2.751   1.290  1.0168 -2.1214 -1.3603
11119TIP3   OH254771   2.924   5.116   3.260 -0.2406 -0.3053  0.5395
11119TIP3    H154772   2.963   5.184   3.205  0.7819 -1.3349 -0.0809
11119TIP3    H254773   2.953   5.137   3.349  0.0341  0.0848  0.3601
11120TIP3   OH254774   4.015   5.115   3.196  0.2429 -0.0754 -0.0227
11120TIP3    H154775   4.039   5.022   3.190 -1.8438 -0.6809  0.0879
11120TIP3    H254776   4.033   5.138   3.287 -0.1330 -0.6673  0.2097
11121TIP3   OH254777   1.746   0.782   3.872 -0.1805 -0.2441 -0.0516
11121TIP3    H154778   1.770   0.856   3.928  0.2949 -1.0617  0.8404
11121TIP3    H254779   1.679   0.818   3.813  0.6272  1.1051 -0.1818
11122TIP3   OH254780   1.175   3.238  10.737 -0.8262  0.5157  0.1548
11122TIP3    H154781   1.167   3.318  10.789 -1.5430  0.3128  0.3751
11122TIP3    H254782   1.234   3.261  10.666 -1.2125  1.3081  0.0863
11123TIP3   OH254783   2.041   3.915   4.498  0.1453  0.0878  0.7349
11123TIP3    H154784   2.080   3.988   4.449  0.8603 -0.4891  0.4216
11123TIP3    H254785   1.957   3.949   4.529  0.2036  0.8479  0.0903
11124TIP3   OH254786   5.744   2.457  15.735 -0.3500 -0.3087 -0.1821
11124TIP3    H154787   5.808   2.509  15.783 -1.9028 -1.0198  2.8967
11124TIP3    H254788   5.671   2.517  15.718  0.3230  0.0279 -2.0703
11125TIP3   OH254789   2.470   3.861   4.879 -0.5271 -0.3540  0.1222
11125TIP3    H154790   2.377   3.844   4.894 -0.8120  1.1740  0.2783
11125TIP3    H254791   2.473   3.949   4.841  0.7921 -0.8070 -0.9220
11126TIP3   OH254792   6.248   4.903  16.012  0.1287  0.0677 -0.5024
11126TIP3    H154793   6.233   4.885  15.920 -3.0738 -3.2562  0.4236
11126TIP3    H254794   6.162   4.930  16.046  1.2529  1.4111  1.5142
11127TIP3   OH254795   3.849   5.633  14.675  0.2855 -0.5442 -0.4423
11127TIP3    H154796   3.831   5.542  14.696 -0.3773 -0.2670  0.2324
11127TIP3    H254797   3.924   5.630  14.615  0.7673 -1.4857  0.1850
11128TIP3   OH254798   3.435   5.467   1.153 -0.0034 -0.1129 -0.2456
11128TIP3    H154799   3.475   5.409   1.218 -1.5378  0.5133  1.3186
11128TIP3    H254800   3.465   5.432   1.069  1.3979 -1.4299  0.7418
11129TIP3   OH254801   1.931   1.779  14.806 -0.0162  0.4107  1.0130
11129TIP3    H154802   1.927   1.791  14.711 -0.6552  0.8926  1.0911
11129TIP3    H254803   2.016   1.813  14.832 -0.3018  1.3511  0.7481
11130TIP3   OH254804   0.833   5.456  14.775  0.5978  0.4499  0.3882
11130TIP3    H154805   0.775   5.513  14.726 -0.0908 -0.3052  0.3018
11130TIP3    H254806   0.826   5.371  14.732  1.2911  0.1912  0.7570
11131TIP3   OH254807   1.881   0.402   3.677 -0.1438  0.4445 -0.4331
11131TIP3    H154808   1.863   0.399   3.771 -0.0954  1.0042 -0.4051
11131TIP3    H254809   1.977   0.398   3.671 -0.1263  0.8517 -0.4389
11132TIP3   OH254810   2.755   4.550   2.299 -0.1715 -0.2264  0.3272
11132TIP3    H154811   2.851   4.546   2.300 -0.1961 -1.2015 -0.1634
11132TIP3    H254812   2.733   4.566   2.207 -0.4839 -0.1006  0.4219
11133TIP3   OH254813   1.246   5.878   3.996  0.3754 -0.0662  0.2415
11133TIP3    H154814   1.167   5.931   3.981  0.7535  0.2781 -0.6645
11133TIP3    H254815   1.277   5.904   4.083  0.5475  1.2396 -0.1773
11134TIP3   OH254816   3.211   6.610   2.304  0.0178 -0.2407 -0.2335
11134TIP3    H154817   3.235   6.608   2.397  0.5283  1.2551 -0.3086
11134TIP3    H254818   3.260   6.537   2.265  1.0162  0.0573  0.4086
11135TIP3   OH254819   0.509   0.233   3.403  0.9556  0.0448 -0.2472
11135TIP3    H154820   0.536   0.147   3.436 -1.0729 -0.1868  1.0495
11135TIP3    H254821   0.477   0.279   3.481 -1.2306  0.6412 -1.3980
11136TIP3   OH254822   6.077   4.195   5.857  0.4901 -0.5667 -0.0950
11136TIP3    H154823   6.084   4.230   5.946 -1.2987  0.0335 -0.1625
11136TIP3    H254824   5.996   4.145   5.856  0.0542  0.0815 -1.5748
11137TIP3   OH254825   1.352   1.350  11.669 -0.0541 -0.3096  0.5085
11137TIP3    H154826   1.292   1.338  11.595  2.3960 -0.2301 -1.6493
11137TIP3    H254827   1.343   1.270  11.721 -1.1845 -0.7832 -0.3853
11138TIP3   OH254828   1.233   0.802   0.728 -0.3711 -0.2622 -0.0403
11138TIP3    H154829   1.212   0.872   0.790  1.4807 -0.9115  1.4637
11138TIP3    H254830   1.308   0.836   0.679 -2.4523  0.6545 -2.7812
11139TIP3   OH254831   1.627   2.711   2.295  0.1353 -0.1781 -0.3291
11139TIP3    H154832   1.570   2.784   2.272  0.4808 -0.0171 -0.6772
11139TIP3    H254833   1.643   2.665   2.213  0.4247 -0.2861 -0.2148
11140TIP3   OH254834   3.691   3.873   5.041  0.8670  0.2621 -0.0854
11140TIP3    H154835   3.622   3.919   4.993  1.1530 -0.6636 -1.4566
11140TIP3    H254836   3.707   3.794   4.989  1.9872 -0.2347  0.9631
11141TIP3   OH254837   6.374   5.936   2.120 -0.3073  0.0602 -0.3654
11141TIP3    H154838   6.410   5.972   2.039  2.3677  1.0308  1.1213
11141TIP3    H254839   6.436   5.868   2.146  0.8112  1.9766  2.4658
11142TIP3   OH254840   0.487   4.420  13.834  0.2824 -0.2955 -0.3295
11142TIP3    H154841   0.496   4.342  13.889 -1.0378 -1.2974 -1.4579
11142TIP3    H254842   0.577   4.446  13.814  0.8473  0.4029  2.6141
11143TIP3   OH254843   3.233   2.359  16.635  0.2613  0.0228 -0.8671
11143TIP3    H154844   3.324   2.375  16.661 -0.0703  0.5595  0.0109
11143TIP3    H254845   3.228   2.264  16.624  0.9713  0.0023 -1.1039
11144TIP3   OH254846   0.751   3.465   1.876 -0.5751  0.2575 -0.2181
11144TIP3    H154847   0.675   3.422   1.835 -0.5724 -0.0766  0.1295
11144TIP3    H254848   0.712   3.532   1.932 -0.6487 -0.4621  0.5990
11145TIP3   OH254849   1.900   6.520  15.584 -0.1100  0.1037  0.4668
11145TIP3    H154850   1.857   6.555  15.506 -0.9054  1.3068  1.3931
11145TIP3    H254851   1.855   6.563  15.657  2.2294  0.9709  1.5212
11146TIP3   OH254852   0.392   5.963  17.269 -0.6080 -0.2368 -0.1401
11146TIP3    H154853   0.450   6.011  17.211  0.2756  0.1835  1.0440
11146TIP3    H254854   0.305   5.973  17.230 -0.0370 -0.0259 -1.3929
11147TIP3   OH254855   4.840   5.634   4.125  0.3069  0.3774 -0.0012
11147TIP3    H154856   4.897   5.683   4.065 -1.5354  2.6300 -0.0646
11147TIP3    H254857   4.772   5.597   4.068  0.7125 -0.8526  0.2792
11148TIP3   OH254858   0.240   5.046   5.905 -0.1724 -0.0106 -0.2041
11148TIP3    H154859   0.190   4.976   5.946 -1.9650  1.5295  0.3989
11148TIP3    H254860   0.237   5.027   5.812 -2.5385  0.3486 -0.2618
11149TIP3   OH254861   5.155   3.056  13.929 -0.1546  0.4026 -0.2243
11149TIP3    H154862   5.127   2.965  13.930  1.0035  0.0257 -0.5988
11149TIP3    H254863   5.250   3.052  13.929 -0.0649  1.6312  1.0070
11150TIP3   OH254864   2.540   0.063   4.318 -0.5088 -0.1728  0.7068
11150TIP3    H154865   2.599   0.067   4.243  0.1001  1.2042  1.2322
11150TIP3    H254866   2.459   0.102   4.287 -0.0241  1.0724  0.9418
11151TIP3   OH254867   5.828   1.823   2.337  0.0858 -1.1217  0.4702
11151TIP3    H154868   5.791   1.910   2.324  1.7543 -0.6763 -1.8395
11151TIP3    H254869   5.813   1.804   2.430 -2.1407  0.7215  0.5735
11152TIP3   OH254870   4.780   1.444  11.829  0.0871  0.5693  0.2862
11152TIP3    H154871   4.743   1.357  11.845  0.8527  0.5338  1.9918
11152TIP3    H254872   4.733   1.502  11.888 -0.5719  1.3880 -0.9949
11153TIP3   OH254873   4.079   5.312   6.787  0.2716 -0.0508  0.0750
11153TIP3    H154874   4.117   5.228   6.813 -0.3801 -0.3737  0.0139
11153TIP3    H254875   4.154   5.371   6.781  0.5246 -0.1083  2.0433
11154TIP3   OH254876   3.239   3.858   1.279  0.3181 -0.1104  0.3390
11154TIP3    H154877   3.317   3.805   1.261  0.3177 -0.1392  0.4230
11154TIP3    H254878   3.190   3.857   1.196 -0.9720 -2.3946  1.0432
11155TIP3   OH254879   5.526   3.913   6.004  0.1686  0.1553 -0.3587
11155TIP3    H154880   5.539   4.003   5.975  0.9421  0.4706  0.8851
11155TIP3    H254881   5.480   3.922   6.088  2.2740 -0.4459  0.9442
11156TIP3   OH254882   6.581   5.602  16.328 -0.1916  0.1915 -0.0496
11156TIP3    H154883   6.647   5.535  16.343 -0.0570 -0.1129 -1.7934
11156TIP3    H254884   6.631   5.683  16.316 -0.3115  0.4840  1.2808
11157TIP3   OH254885   2.359   4.235  14.593 -0.4017 -0.0009 -0.1908
11157TIP3    H154886   2.337   4.155  14.641 -1.6051 -0.0268 -0.7383
11157TIP3    H254887   2.402   4.205  14.514 -1.5390 -0.1896 -0.7675
11158TIP3   OH254888   4.009   1.600  14.995 -0.1417 -0.3699  0.1532
11158TIP3    H154889   4.050   1.633  14.915  1.4921 -1.3267  0.5359
11158TIP3    H254890   3.943   1.538  14.964 -0.7003  0.5114 -0.4641
11159TIP3   OH254891   5.420   0.079  14.161  0.2484 -0.6994  0.7732
11159TIP3    H154892   5.350   0.144  14.165 -0.5000 -1.5345  1.5667
11159TIP3    H254893   5.382   0.000  14.198  0.8949 -1.8571 -0.9008
11160TIP3   OH254894   3.919   3.656   4.044  0.5835 -0.0962 -0.0189
11160TIP3    H154895   3.832   3.628   4.074  0.6251  0.6555  0.8876
11160TIP3    H254896   3.980   3.619   4.108  1.0688 -1.6234 -1.3259
11161TIP3   OH254897   6.070   5.892  13.395 -0.1123 -0.1211 -0.4075
11161TIP3    H154898   6.160   5.885  13.428 -0.2454  1.8059  0.5194
11161TIP3    H254899   6.026   5.949  13.458 -1.6476 -0.0024 -1.5353
11162TIP3   OH254900   2.377   3.414  13.178 -0.6188  0.3853  0.5357
11162TIP3    H154901   2.385   3.353  13.251 -0.7005 -0.7308 -0.3538
11162TIP3    H254902   2.312   3.374  13.120  0.9111  0.1955 -1.1366
11163TIP3   OH254903   3.056   0.988  14.442  0.2623  0.4750 -0.7179
11163TIP3    H154904   3.099   0.960  14.522  0.9469  0.8495 -0.9487
11163TIP3    H254905   3.119   1.046  14.399 -0.1849  0.4634 -1.4148
11164TIP3   OH254906   3.931   0.503   2.634 -0.3443  0.2372  0.2519
11164TIP3    H154907   3.961   0.573   2.576  0.0951  0.1656  0.3903
11164TIP3    H254908   3.880   0.548   2.701  0.8215  0.5583  0.9436
11165TIP3   OH254909   1.558   3.477   3.316 -0.7645 -0.4337 -0.4247
11165TIP3    H154910   1.483   3.426   3.344  0.0271 -1.8350 -0.7809
11165TIP3    H254911   1.521   3.552   3.269 -1.9212 -1.1067 -0.6012
11166TIP3   OH254912   1.193   4.210  13.837 -0.6226 -0.5090 -0.2942
11166TIP3    H154913   1.262   4.276  13.845 -1.7966  0.5169  2.4172
11166TIP3    H254914   1.233   4.129  13.870 -1.0720  0.4640  2.9888
11167TIP3   OH254915   4.678   1.098   5.555  0.2862 -0.2028 -0.2250
11167TIP3    H154916   4.653   1.113   5.646 -1.8158 -0.1722 -0.7600
11167TIP3    H254917   4.757   1.044   5.560  1.5189  1.6562  1.6068
11168TIP3   OH254918   6.152   2.718   4.596 -0.2195  0.2562 -0.2006
11168TIP3    H154919   6.103   2.720   4.678 -1.7090 -0.7087 -1.0211
11168TIP3    H254920   6.136   2.803   4.556  1.0800  1.0044  0.7831
11169TIP3   OH254921   6.148   1.549  14.050  0.2038 -0.0039 -0.7233
11169TIP3    H154922   6.228   1.512  14.087 -0.3459  0.0514  0.5825
11169TIP3    H254923   6.090   1.474  14.037  0.0006  0.1008 -0.4339
11170TIP3   OH254924   5.412   0.419  15.611  0.3409 -0.3472  0.0081
11170TIP3    H154925   5.392   0.365  15.687  0.6877 -0.7001 -0.1514
11170TIP3    H254926   5.340   0.402  15.550 -0.9648  1.3472  0.9695
11171TIP3   OH254927   0.614   5.720   2.555 -0.2400 -0.1064  0.0482
11171TIP3    H154928   0.703   5.687   2.543  0.2548  1.1006  0.2389
11171TIP3    H254929   0.574   5.658   2.616  0.4162 -0.7373 -0.1394
11172TIP3   OH254930   2.449   4.429  12.179 -0.0753 -0.4245 -0.1852
11172TIP3    H154931   2.408   4.409  12.095  1.8979  0.0998 -1.3493
11172TIP3    H254932   2.528   4.374  12.181  1.0518  1.1332  0.2926
11173TIP3   OH254933   5.338   2.298  16.860 -0.0729  0.0684 -0.6803
11173TIP3    H154934   5.315   2.243  16.785 -0.0270 -0.6741 -0.1583
11173TIP3    H254935   5.412   2.254  16.900 -0.4188  0.1861  0.1060
11174TIP3   OH254936   0.839   5.356   5.417  0.2292  0.4319  0.5546
11174TIP3    H154937   0.888   5.381   5.496  1.2850 -0.9097  0.3712
11174TIP3    H254938   0.901   5.372   5.345 -0.6331  1.4001  0.0095
11175TIP3   OH254939   6.536   5.661  14.571  0.1532 -0.0088 -0.2247
11175TIP3    H154940   6.448   5.687  14.597  0.0796 -0.1019 -0.3797
11175TIP3    H254941   6.555   5.712  14.492  1.3537  2.1654  1.3733
11176TIP3   OH254942   5.148   2.449  16.416  0.4004  0.6223 -0.2509
11176TIP3    H154943   5.078   2.510  16.440  0.8971  0.3785  2.0693
11176TIP3    H254944   5.163   2.466  16.323 -2.6600  0.7206 -0.8425
11177TIP3   OH254945   2.551   6.465   6.454 -0.4475  0.1454  0.3511
11177TIP3    H154946   2.630   6.451   6.402  1.0338  1.4226  2.1146
11177TIP3    H254947   2.478   6.448   6.394  1.1587  0.3351 -1.7333
11178TIP3   OH254948   6.167   4.666  15.893  0.1673  0.0115 -0.5700
11178TIP3    H154949   6.213   4.666  15.809  0.9043 -0.1082 -0.1796
11178TIP3    H254950   6.210   4.597  15.943  0.5338  0.8738  0.3234
11179TIP3   OH254951   3.611   1.385  11.058  0.3053  0.0583  0.9252
11179TIP3    H154952   3.689   1.440  11.066  1.0780 -0.6004 -1.3229
11179TIP3    H254953   3.644   1.299  11.033 -1.1054 -0.2832  0.0830
11180TIP3   OH254954   5.398   3.427   0.486 -0.6185 -0.1629 -0.5395
11180TIP3    H154955   5.325   3.479   0.454  0.3141  1.0960 -0.6773
11180TIP3    H254956   5.430   3.380   0.409 -0.1440  0.7007 -0.8824
11181TIP3   OH254957   4.309   0.010  16.840  0.2953 -0.1027 -0.0117
11181TIP3    H154958   4.245  -0.061  16.828  0.0710  0.2168 -0.8109
11181TIP3    H254959   4.256   0.089  16.845  0.5212 -0.0167  1.2964
11182TIP3   OH254960   4.072   5.100   2.091 -0.4518 -0.1707 -0.2394
11182TIP3    H154961   4.029   5.083   2.007 -0.9586  0.7100 -0.1650
11182TIP3    H254962   4.166   5.090   2.072 -0.4568  1.4112 -1.2699
11183TIP3   OH254963   3.119   5.484  17.203 -0.0544  0.2999 -0.4177
11183TIP3    H154964   3.145   5.423  17.134  1.5643  1.2129 -0.6716
11183TIP3    H254965   3.191   5.480  17.267 -0.8894  0.4644  0.5584
11184TIP3   OH254966   1.260   3.551  10.537 -0.3559  0.0290  0.2781
11184TIP3    H154967   1.238   3.619  10.473 -0.7479  1.5351  1.9545
11184TIP3    H254968   1.299   3.599  10.610  0.4183 -1.6907  1.0370
11185TIP3   OH254969   5.493   3.953   6.468 -0.2232 -0.2494  0.6063
11185TIP3    H154970   5.472   3.926   6.558  0.0676  0.1967  0.8094
11185TIP3    H254971   5.454   3.885   6.413 -0.0704 -0.7295  1.0858
11186TIP3   OH254972   1.503   5.091  12.375  0.0407 -0.0045  0.6757
11186TIP3    H154973   1.498   4.997  12.353  2.2670 -0.0088 -0.0611
11186TIP3    H254974   1.421   5.127  12.341 -0.6717 -1.5912  0.5797
11187TIP3   OH254975   1.455   1.465  12.992 -0.1631  0.2148 -0.0537
11187TIP3    H154976   1.515   1.398  12.961 -1.1371 -0.1526 -1.2607
11187TIP3    H254977   1.410   1.425  13.066  2.1620  1.0815  1.9375
11188TIP3   OH254978   0.323   5.149   4.552 -0.5212  0.0914 -0.0140
11188TIP3    H154979   0.305   5.187   4.466 -1.0263 -0.7007 -0.2599
11188TIP3    H254980   0.418   5.135   4.552 -0.5805 -0.3445 -0.6287
11189TIP3   OH254981   6.128   3.354  15.551  0.6504  0.5893  0.1079
11189TIP3    H154982   6.167   3.285  15.605  0.3981  2.1706  2.4832
11189TIP3    H254983   6.197   3.380  15.491  0.6009 -2.0022 -1.2107
11190TIP3   OH254984   1.480   5.962  16.988 -0.4422 -0.4564  0.5155
11190TIP3    H154985   1.510   5.974  17.078  0.7085 -0.6395  0.1688
11190TIP3    H254986   1.389   5.993  16.989 -0.3045 -0.0341  1.6283
11191TIP3   OH254987   1.186   3.708  14.135 -0.3780 -0.7053  0.5457
11191TIP3    H154988   1.174   3.753  14.219  1.2964  0.9922 -0.0356
11191TIP3    H254989   1.119   3.746  14.078  0.7644  0.8619  0.1747
11192TIP3   OH254990   0.954   0.659  15.909  0.3584 -0.8848 -0.4892
11192TIP3    H154991   0.945   0.579  15.962  0.2574 -0.2868  0.4071
11192TIP3    H254992   1.047   0.681  15.914  0.2124 -0.3748  0.1266
11193TIP3   OH254993   5.508   3.238  12.932  1.5524  0.3973  0.1515
11193TIP3    H154994   5.476   3.162  12.980 -0.2793  1.2246  0.3460
11193TIP3    H254995   5.585   3.207  12.886  0.6295 -1.6812 -0.1041
11194TIP3   OH254996   6.146   4.620  15.364 -0.2330  0.0496  0.0548
11194TIP3    H154997   6.160   4.711  15.391  0.0317 -0.1017  0.4327
11194TIP3    H254998   6.233   4.581  15.365 -0.3062 -0.1320 -0.4069
11195TIP3   OH254999   4.291   5.618   1.244 -0.0319  0.1009 -0.1865
11195TIP3    H155000   4.339   5.585   1.169 -1.0675 -0.7019 -0.5235
11195TIP3    H255001   4.317   5.561   1.317  1.5458  1.3474  0.2682
11196TIP3   OH255002   3.123   2.656   4.551  0.1306  0.0567 -0.5178
11196TIP3    H155003   3.057   2.662   4.621  0.2259 -0.2248 -0.4043
11196TIP3    H255004   3.181   2.730   4.567  0.0805  0.0659 -0.3739
11197TIP3   OH255005   0.070   5.473   0.385  0.2226  0.3711 -0.3426
11197TIP3    H155006   0.015   5.537   0.430 -0.0712  0.4631 -0.8258
11197TIP3    H255007   0.145   5.460   0.444  0.3656  1.2726 -0.3146
11198TIP3   OH255008   2.263   2.965   1.819 -0.1095  0.2174 -0.0135
11198TIP3    H155009   2.327   2.896   1.804 -0.8081 -0.3409 -0.4798
11198TIP3    H255010   2.178   2.920   1.820 -0.6584  1.1552 -1.1625
11199TIP3   OH255011   3.021   2.649  17.144 -0.1484  0.3244 -0.1015
11199TIP3    H155012   2.991   2.559  17.156  0.5479  0.2525  1.2146
11199TIP3    H255013   2.952   2.704  17.181  0.2950  0.2396  0.8883
11200TIP3   OH255014   2.006   0.306   4.783 -0.7556  0.4638  0.2007
11200TIP3    H155015   2.002   0.324   4.877  0.5700 -0.0191  0.3775
11200TIP3    H255016   2.015   0.211   4.778  0.1058  0.5637 -0.3640
11201TIP3   OH255017   4.347   3.936   0.092 -0.3030  0.4818  0.0803
11201TIP3    H155018   4.341   3.994   0.168 -0.6803  0.1083  0.3382
11201TIP3    H255019   4.303   3.856   0.119  0.0520  0.1385 -0.3378
11202TIP3   OH255020   4.316   4.776   3.493 -0.1972  0.0542 -0.1028
11202TIP3    H155021   4.394   4.728   3.520 -0.7116 -0.3503  0.7239
11202TIP3    H255022   4.295   4.741   3.406  2.1370  2.1736 -1.6753
11203TIP3   OH255023   4.667   6.294  12.810  0.5046  0.6730 -1.0023
11203TIP3    H155024   4.607   6.290  12.735  0.7783  0.5649 -1.2191
11203TIP3    H255025   4.691   6.386  12.817  0.0363  0.7738 -0.6908
11204TIP3   OH255026   0.188   6.162  12.724 -0.0241  0.2717  0.8870
11204TIP3    H155027   0.223   6.215  12.796 -0.1640  1.1518  0.3140
11204TIP3    H255028   0.259   6.155  12.661  0.6236 -1.8110  1.7729
11205TIP3   OH255029   5.383   0.971   0.196 -0.2255  0.1079 -0.3816
11205TIP3    H155030   5.478   0.960   0.203 -0.1623  0.4556 -0.6017
11205TIP3    H255031   5.357   0.910   0.127 -0.1462  0.0766 -0.3841
11206TIP3   OH255032   0.645   3.711   1.900  0.1926  0.7817 -0.1987
11206TIP3    H155033   0.666   3.714   1.806 -0.5019 -1.7012 -0.4867
11206TIP3    H255034   0.552   3.691   1.904  0.0387  1.6042  1.0671
11207TIP3   OH255035   6.097   1.592  11.216 -0.2504  0.4449  0.0388
11207TIP3    H155036   6.163   1.525  11.236 -0.0076  0.0698 -1.8682
11207TIP3    H255037   6.147   1.673  11.206  0.2412 -0.1231 -3.0047
11208TIP3   OH255038   0.494   5.166  11.888  0.4126 -0.5439 -0.2592
11208TIP3    H155039   0.532   5.080  11.873 -1.3687 -1.1984 -1.3387
11208TIP3    H255040   0.534   5.222  11.821 -1.5140 -1.5721 -2.3920
11209TIP3   OH255041   5.316   0.104   3.642 -0.0312  0.0205  0.3208
11209TIP3    H155042   5.263   0.174   3.604  0.4244  0.7640  1.0184
11209TIP3    H255043   5.339   0.048   3.568 -0.0418  0.8478 -0.3224
11210TIP3   OH255044   3.019   5.072  15.557 -0.5915  0.0511 -0.0418
11210TIP3    H155045   3.098   5.125  15.570 -1.3197  0.9418  0.8497
11210TIP3    H255046   2.982   5.104  15.475 -0.7313  0.5375  0.2100
11211TIP3   OH255047   5.903   6.102   0.820  0.3255 -0.1172 -0.2302
11211TIP3    H155048   5.952   6.042   0.764  1.6675 -0.6051  1.3754
11211TIP3    H255049   5.942   6.090   0.907  0.4036  2.8655  0.2275
11212TIP3   OH255050   6.029   4.554  17.356 -0.7127 -0.3713  0.4085
11212TIP3    H155051   6.007   4.625  17.417 -0.2748  1.1269 -1.1114
11212TIP3    H255052   6.007   4.474  17.404 -1.5713  0.7855  2.0479
11213TIP3   OH255053   5.650   1.300  11.872 -0.3534 -0.0162  0.1406
11213TIP3    H155054   5.640   1.226  11.931 -0.7553 -1.3398 -1.5160
11213TIP3    H255055   5.561   1.332  11.858 -0.2720  0.2266  0.1627
11214TIP3   OH255056   3.250   0.893  12.145 -0.1149 -0.1045 -0.4728
11214TIP3    H155057   3.181   0.830  12.165  1.6814 -1.5155  1.7977
11214TIP3    H255058   3.229   0.925  12.057 -3.1484 -1.0504 -0.1950
11215TIP3   OH255059   2.995   2.482   3.002  0.2607 -0.1334  0.2137
11215TIP3    H155060   2.947   2.422   2.945 -1.5667  0.3292  1.1842
11215TIP3    H255061   2.940   2.560   3.007  1.2401  0.5206  1.1821
11216TIP3   OH255062   6.737   5.742  13.417  0.5018 -0.2458 -0.1250
11216TIP3    H155063   6.766   5.663  13.370  1.2138  0.2738 -0.5759
11216TIP3    H255064   6.704   5.709  13.500 -0.2408 -1.1333 -0.7395
11217TIP3   OH255065   3.364   1.227   1.361 -0.5329 -0.7444 -0.4052
11217TIP3    H155066   3.435   1.194   1.307 -0.0733  0.7142 -0.7459
11217TIP3    H255067   3.292   1.166   1.346  0.7960 -2.6104  0.4178
11218TIP3   OH255068   5.797   3.819  14.287  0.4540 -0.2218 -0.1741
11218TIP3    H155069   5.736   3.748  14.308  0.6253 -0.1989  0.4292
11218TIP3    H255070   5.742   3.896  14.276  0.1292 -0.6883 -2.1448
11219TIP3   OH255071   4.609   0.294  15.105  0.4568  0.1548  0.1109
11219TIP3    H155072   4.582   0.366  15.162 -0.9444  0.5676 -1.0092
11219TIP3    H255073   4.606   0.217  15.162 -4.3556 -0.0557 -0.0144
11220TIP3   OH255074   6.190   3.660   6.576  0.5651  0.0081 -0.4817
11220TIP3    H155075   6.224   3.571   6.571 -0.3490 -0.3909  0.2355
11220TIP3    H255076   6.225   3.695   6.657 -1.9182 -0.9588  1.1229
11221TIP3   OH255077   3.742   6.417  14.252 -0.2442  0.2614 -0.6993
11221TIP3    H155078   3.791   6.439  14.331  0.5558 -1.2571 -0.7361
11221TIP3    H255079   3.808   6.386  14.190 -1.0707 -0.4407 -1.2600
11222TIP3   OH255080   5.066   0.767   2.408 -0.1271  0.6587  0.3486
11222TIP3    H155081   5.002   0.820   2.361 -0.8273  0.3740  0.9619
11222TIP3    H255082   5.140   0.825   2.421  0.3880  0.5473 -1.7223
11223TIP3   OH255083   1.910   4.506   1.081 -0.1775 -0.0323  0.8269
11223TIP3    H155084   1.901   4.586   1.133 -1.3896 -0.0063  0.6199
11223TIP3    H255085   1.838   4.510   1.018 -1.9969 -2.5111  2.5177
11224TIP3   OH255086   0.719   0.412   3.025  0.0088  0.2068 -0.5991
11224TIP3    H155087   0.709   0.337   2.967  2.2631  0.7589 -1.8200
11224TIP3    H255088   0.704   0.377   3.113 -2.3798 -0.8881 -1.3482
11225TIP3   OH255089   3.214   6.495   3.589  0.4177 -0.5227 -0.0369
11225TIP3    H155090   3.261   6.491   3.673 -0.2697 -0.9896  0.3397
11225TIP3    H255091   3.149   6.425   3.595 -0.8758  0.6320 -0.1974
11226TIP3   OH255092   0.991   4.239  16.316  0.4793 -0.3556 -0.1324
11226TIP3    H155093   1.025   4.260  16.229  1.0365 -3.0149 -0.6538
11226TIP3    H255094   0.901   4.212  16.302  0.2866  0.0528  0.2692
11227TIP3   OH255095   6.280   3.935  10.363 -0.2205 -0.2626  0.5333
11227TIP3    H155096   6.295   3.910  10.454 -0.0840  1.0310  0.8917
11227TIP3    H255097   6.312   3.861  10.312 -0.5850 -1.1398  1.5444
11228TIP3   OH255098   2.925   4.209  13.744  0.0410 -0.0967 -0.0220
11228TIP3    H155099   2.922   4.156  13.664 -1.4806  0.8545 -0.6401
11228TIP3    H255100   2.945   4.297  13.713  0.9550  0.0068  0.8264
11229TIP3   OH255101   2.369   5.733   6.811  0.4532 -0.5654  0.4305
11229TIP3    H155102   2.409   5.709   6.727 -0.0886 -1.0405  0.3018
11229TIP3    H255103   2.357   5.828   6.805 -3.0959 -0.9614 -1.6724
11230TIP3   OH255104   2.054   4.344   2.755 -0.0254  0.4161 -0.2617
11230TIP3    H155105   2.058   4.409   2.825 -1.4204 -0.8442  1.0723
11230TIP3    H255106   2.135   4.293   2.766 -0.0602  0.4558  0.2023
11231TIP3   OH255107   3.992   2.050   5.184 -0.3116  0.5906  0.4529
11231TIP3    H155108   4.070   2.079   5.231  0.1725 -3.1745  2.2721
11231TIP3    H255109   3.924   2.113   5.209  1.1472  1.5346  2.2461
11232TIP3   OH255110   1.678   3.055  17.045  0.1785 -0.4829  0.1781
11232TIP3    H155111   1.731   3.062  17.125 -1.6690 -0.8567  1.5044
11232TIP3    H255112   1.658   3.146  17.021 -0.7642 -0.3836  1.2415
11233TIP3   OH255113   2.835   2.782  14.817 -0.1740  0.4701  0.2887
11233TIP3    H155114   2.757   2.727  14.823 -0.1652  0.5036  0.7740
11233TIP3    H255115   2.901   2.735  14.868  0.8531 -0.7433 -2.0067
11234TIP3   OH255116   3.285   4.896  11.162  0.0825 -0.3299  0.1575
11234TIP3    H155117   3.330   4.960  11.106 -0.7948  0.1134 -0.0515
11234TIP3    H255118   3.215   4.862  11.107 -0.4500 -0.2980  0.8088
11235TIP3   OH255119   4.064   0.937   2.157  0.4190  0.6551 -0.0823
11235TIP3    H155120   4.089   0.878   2.228 -0.4653  0.4669  0.0850
11235TIP3    H255121   4.106   0.901   2.079  1.7052  1.0698  0.3889
11236TIP3   OH255122   4.295   6.221   0.937 -0.5428 -0.4290  0.0076
11236TIP3    H155123   4.213   6.268   0.923 -0.7007 -0.6658  0.1208
11236TIP3    H255124   4.294   6.151   0.871 -0.6200 -0.6749  0.2663
11237TIP3   OH255125   3.865   3.595   5.220  0.3254  0.3390 -0.2355
11237TIP3    H155126   3.936   3.651   5.188 -1.3115  1.6211 -1.8565
11237TIP3    H255127   3.826   3.644   5.292 -0.2569  0.7016 -0.7796
11238TIP3   OH255128   3.255   2.188   2.428 -0.0705  0.6355 -0.0012
11238TIP3    H155129   3.289   2.103   2.400  0.1567  0.5395  0.5488
11238TIP3    H255130   3.285   2.249   2.360 -0.8205  0.1768 -0.7640
11239TIP3   OH255131   4.833   6.242  15.808 -0.3014 -0.2117  0.7194
11239TIP3    H155132   4.774   6.177  15.846 -1.7910  0.2104 -0.7631
11239TIP3    H255133   4.804   6.325  15.846  0.0144 -0.1192  0.7621
11240TIP3   OH255134   0.544   1.853   2.970 -0.2098 -0.6484  0.2671
11240TIP3    H155135   0.525   1.947   2.971  0.8547 -0.4194  0.4365
11240TIP3    H255136   0.473   1.814   2.919  0.3079  0.4725 -1.3924
11241TIP3   OH255137   0.004   2.054  15.217  0.0471  0.0355  0.5915
11241TIP3    H155138  -0.082   2.094  15.211  1.2862  2.6491 -2.1307
11241TIP3    H255139   0.046   2.096  15.292  0.1259  1.4124 -0.1944
11242TIP3   OH255140   6.635   6.606   3.485 -0.3412  0.2793  0.3122
11242TIP3    H155141   6.544   6.617   3.514 -0.3295  1.3318 -0.0022
11242TIP3    H255142   6.639   6.655   3.403  0.6777  0.8128  0.6660
11243TIP3   OH255143   0.053   2.636   4.372 -0.1159 -0.0214  0.1824
11243TIP3    H155144   0.102   2.696   4.428 -0.5506  0.8108 -0.3147
11243TIP3    H255145   0.059   2.551   4.417  0.5844  0.3625  0.8423
11244TIP3   OH255146   5.045   2.917   3.968 -0.6658 -0.1872  0.2023
11244TIP3    H155147   4.977   2.907   4.035 -0.5533  1.9448  0.6978
11244TIP3    H255148   5.125   2.935   4.018 -1.1535  4.7883 -0.3591
11245TIP3   OH255149   6.525   2.176   4.370 -1.0488 -0.5245  0.2843
11245TIP3    H155150   6.574   2.096   4.389 -0.1943  0.1509  1.0215
11245TIP3    H255151   6.544   2.194   4.278 -0.3065 -0.5578  0.4200
11246TIP3   OH255152   0.421   6.718  11.296 -0.2714 -0.3552 -0.4993
11246TIP3    H155153   0.340   6.712  11.347 -0.3256  1.0993 -0.3589
11246TIP3    H255154   0.489   6.731  11.362 -0.1873  0.3511 -0.7163
11247TIP3   OH255155   5.325   6.241  14.207 -0.0141  0.0879 -0.2297
11247TIP3    H155156   5.254   6.286  14.161  0.7070  1.8368  0.2736
11247TIP3    H255157   5.281   6.174  14.260 -1.4006  1.6750  0.7059
11248TIP3   OH255158   6.390   3.412  12.082 -0.3046 -0.0949  0.2883
11248TIP3    H155159   6.378   3.345  12.149 -1.0377 -0.4985 -0.2401
11248TIP3    H255160   6.454   3.473  12.121 -2.5167  1.0731  2.4335
11249TIP3   OH255161   5.280   2.260   5.836  0.1946  0.3534  0.0685
11249TIP3    H155162   5.342   2.230   5.769 -0.0179  1.0318 -0.4460
11249TIP3    H255163   5.295   2.201   5.911  1.8701  0.8680  0.1775
11250TIP3   OH255164   0.296   0.116   1.952 -0.1044 -0.2970 -0.0234
11250TIP3    H155165   0.338   0.038   1.988 -1.3483 -0.7820  0.4382
11250TIP3    H255166   0.334   0.127   1.865  1.1659 -0.5410  0.4793
11251TIP3   OH255167   4.022   1.553   0.714  0.1420 -0.8424 -0.2242
11251TIP3    H155168   3.987   1.486   0.656  0.0663 -0.4617 -0.6249
11251TIP3    H255169   3.944   1.596   0.750  0.0657  1.5528 -2.8859
11252TIP3   OH255170   0.263   3.012   3.663  0.7891 -0.4241 -0.5100
11252TIP3    H155171   0.296   3.022   3.752  1.4530  1.6799 -0.9356
11252TIP3    H255172   0.215   2.930   3.664  1.3192 -0.7571  1.6175
11253TIP3   OH255173   0.164   2.013  17.359 -0.3959  0.3045 -0.2052
11253TIP3    H155174   0.118   2.097  17.366  0.3873  0.5940  3.4946
11253TIP3    H255175   0.226   2.025  17.287  0.1808  3.1731  0.6611
11254TIP3   OH255176   2.684   1.964  13.224 -0.2978 -0.4708  0.0430
11254TIP3    H155177   2.722   1.984  13.138  0.9104  1.5260  0.9559
11254TIP3    H255178   2.592   1.947  13.206  0.2814 -1.9291 -1.8512
11255TIP3   OH255179   0.399   3.314   5.419  0.1347  0.1783 -0.0650
11255TIP3    H155180   0.427   3.262   5.494  2.1492 -0.6154 -1.2884
11255TIP3    H255181   0.472   3.373   5.401 -1.0648  1.6622 -0.3058
11256TIP3   OH255182   0.201   5.229  14.290  0.3170  0.3373  0.0510
11256TIP3    H155183   0.208   5.241  14.195 -0.2038  0.7692  0.0628
11256TIP3    H255184   0.154   5.307  14.321  0.0557 -0.0317  0.5997
11257TIP3   OH255185   1.695   2.278  13.307  0.3024  0.3796 -0.8324
11257TIP3    H155186   1.635   2.347  13.337  0.3738  0.6031 -1.1889
11257TIP3    H255187   1.782   2.312  13.327  0.5783  1.9736 -3.9923
11258TIP3   OH255188   2.112   0.493   6.399  0.0686  0.1376  0.0018
11258TIP3    H155189   2.097   0.540   6.481  2.5001 -0.0755  0.6349
11258TIP3    H255190   2.190   0.534   6.362  0.9076 -1.8794 -0.5749
11259TIP3   OH255191   5.363   3.671  14.029 -0.3432  0.0833 -0.1184
11259TIP3    H155192   5.298   3.679  13.959 -1.8547 -0.7548  1.1306
11259TIP3    H255193   5.418   3.749  14.019 -1.5951  0.8777 -1.1637
11260TIP3   OH255194   0.272   1.349  13.248 -0.1122  0.1833  0.2836
11260TIP3    H155195   0.188   1.394  13.253  0.1396  0.6319  0.5703
11260TIP3    H255196   0.334   1.409  13.291  0.5257  0.2553 -0.7159
11261TIP3   OH255197   6.519   6.423   0.581 -0.5279 -0.1841 -0.7197
11261TIP3    H155198   6.524   6.377   0.497 -0.1245  0.0685 -0.8350
11261TIP3    H255199   6.609   6.449   0.600 -0.3703 -1.4671  0.4916
11262TIP3   OH255200   3.650   1.125   0.672  0.0783  0.0171  0.9142
11262TIP3    H155201   3.555   1.128   0.661  0.0193  0.4128  1.4584
11262TIP3    H255202   3.663   1.138   0.766  0.6111 -1.5335  1.0904
11263TIP3   OH255203   3.561   2.096  17.356 -0.2433 -0.2684  0.0343
11263TIP3    H155204   3.508   2.165  17.397  0.6902 -0.8489  2.3253
11263TIP3    H255205   3.538   2.102  17.263 -0.2700  3.0695  0.1275
11264TIP3   OH255206   2.756   2.748  17.235  0.1826  0.0772  0.0092
11264TIP3    H155207   2.766   2.839  17.265 -0.5870  1.2287 -2.9317
11264TIP3    H255208   2.674   2.719  17.274 -0.1828  1.0760  0.0214
11265TIP3   OH255209   0.100   4.871   5.339 -0.5569  0.0373 -0.3945
11265TIP3    H155210   0.168   4.936   5.360 -0.2566 -0.5955  0.6807
11265TIP3    H255211   0.147   4.803   5.291 -0.0756 -1.0819  1.5503
11266TIP3   OH255212   1.842   6.285   3.866 -0.1462 -0.0365 -0.7816
11266TIP3    H155213   1.890   6.355   3.821 -1.9101  0.5086 -1.9253
11266TIP3    H255214   1.890   6.271   3.947  0.0893  2.7745 -0.3345
11267TIP3   OH255215   5.059   5.268  10.585  0.2351 -0.1611  0.2588
11267TIP3    H155216   5.060   5.353  10.540 -0.1357  0.3737  1.2265
11267TIP3    H255217   5.093   5.287  10.673  1.3190 -1.2531  0.1088
11268TIP3   OH255218   0.963   4.013   3.714  0.6082  0.0898  0.1830
11268TIP3    H155219   1.011   4.049   3.640  0.0403  1.7701  0.6061
11268TIP3    H255220   0.872   4.011   3.685  0.4132  0.5538  0.7467
11269TIP3   OH255221   6.168   3.171  17.309 -0.2044  0.6771 -0.5481
11269TIP3    H155222   6.088   3.218  17.284 -0.9352 -0.0007  0.3992
11269TIP3    H255223   6.233   3.239  17.325 -1.0514  1.3401  0.1802
11270TIP3   OH255224   0.550   2.113   3.025 -0.0229 -0.1942  0.4641
11270TIP3    H155225   0.640   2.121   3.057  0.1789  0.3619 -0.2069
11270TIP3    H255226   0.496   2.114   3.104  0.6282 -1.9755  0.9735
11271TIP3   OH255227   0.036   6.119   1.957 -0.6161 -0.0552  0.1960
11271TIP3    H155228   0.092   6.063   2.011  1.1566 -1.4168 -2.7987
11271TIP3    H255229   0.088   6.198   1.942 -0.8936  0.1124  0.1078
11272TIP3   OH255230   2.095   3.543   6.135 -0.2268 -0.6665 -0.1956
11272TIP3    H155231   2.146   3.483   6.190  0.0219  0.3846  0.7537
11272TIP3    H255232   2.004   3.519   6.150 -0.0838 -2.1173 -1.3861
11273TIP3   OH255233   2.506   2.510   5.770 -0.1739  0.2707  0.0306
11273TIP3    H155234   2.581   2.497   5.713 -0.2876  0.5579 -0.1887
11273TIP3    H255235   2.513   2.441   5.836 -0.9970 -1.1692 -1.3231
11274TIP3   OH255236   0.251   2.836   5.894 -0.4718  0.2881  0.0612
11274TIP3    H155237   0.183   2.838   5.826 -0.4640  1.4056  0.0663
11274TIP3    H255238   0.228   2.908   5.953  1.2171  1.2962 -0.4447
11275TIP3   OH255239   0.531   1.264  13.996  0.1636 -0.3423 -0.3866
11275TIP3    H155240   0.466   1.233  13.933 -0.8693  2.0084 -0.5489
11275TIP3    H255241   0.524   1.202  14.069 -0.6967 -1.3775 -1.3019
11276TIP3   OH255242   0.761   6.574  13.513  0.5859 -0.3556  0.4269
11276TIP3    H155243   0.675   6.601  13.546  1.2292 -0.8470  2.6960
11276TIP3    H255244   0.750   6.481  13.492  0.1621 -0.0343 -0.8062
11277TIP3   OH255245   6.680   3.170  16.617  0.2416  0.4399  0.3191
11277TIP3    H155246   6.622   3.241  16.592 -0.3878  0.3079  1.3411
11277TIP3    H255247   6.622   3.104  16.655  0.9749 -0.0208  0.6673
11278TIP3   OH255248   6.049   0.835   4.375  0.2437 -0.0829  0.3378
11278TIP3    H155249   6.035   0.778   4.450  0.4096 -0.8473 -0.1918
11278TIP3    H255250   5.969   0.887   4.368 -1.4981 -2.7073 -1.2180
11279TIP3   OH255251   3.310   1.137   6.363 -0.3727  0.2585  0.3029
11279TIP3    H155252   3.361   1.177   6.434 -0.8800  0.2450  0.6842
11279TIP3    H255253   3.283   1.052   6.398 -0.3023  0.0863 -0.0562
11280TIP3   OH255254   2.087   1.372  15.285 -0.9959  0.2610  0.5646
11280TIP3    H155255   2.065   1.367  15.378  2.4895  4.1295  1.9229
11280TIP3    H255256   2.024   1.433  15.248 -1.2921  0.1204  0.8356
11281TIP3   OH255257   1.134   2.570   3.906  0.2041  0.1950  0.1712
11281TIP3    H155258   1.119   2.562   3.812  0.5442  1.3543  0.0035
11281TIP3    H255259   1.143   2.480   3.937  2.5429 -0.1795 -1.3386
11282TIP3   OH255260   6.478   2.559  14.436  0.0022  0.0379 -0.2411
11282TIP3    H155261   6.454   2.468  14.418  1.4581 -0.4102  0.0007
11282TIP3    H255262   6.547   2.579  14.373  1.1443  0.2849  1.0544
11283TIP3   OH255263   4.329   2.434   4.934  0.1631 -0.1998 -0.2561
11283TIP3    H155264   4.395   2.402   4.995  0.8293 -0.3711 -1.0483
11283TIP3    H255265   4.330   2.529   4.946  1.1678 -0.1197 -0.8514
11284TIP3   OH255266   0.447   6.391  16.895  0.0070 -0.0689  0.5386
11284TIP3    H155267   0.481   6.479  16.885 -2.0369  0.7891  0.7543
11284TIP3    H255268   0.515   6.345  16.944  1.1875  1.3203  0.2569
11285TIP3   OH255269   2.601   1.562  15.539  0.0055 -0.0328  0.0321
11285TIP3    H155270   2.582   1.639  15.593  1.6918  0.9064 -0.6385
11285TIP3    H255271   2.556   1.578  15.456 -1.0793 -0.6221  0.4841
11286TIP3   OH255272   0.050   6.673  15.365 -0.4697 -0.1722 -0.1394
11286TIP3    H155273   0.112   6.652  15.435  0.3729  1.7220 -0.2618
11286TIP3    H255274   0.103   6.675  15.286 -0.4668  2.2608 -0.1355
11287TIP3   OH255275   4.395   1.971   3.359  0.0537 -0.3645  0.0355
11287TIP3    H155276   4.371   1.882   3.384  3.1119 -1.1037  0.7917
11287TIP3    H255277   4.410   1.967   3.264 -0.6058 -0.4303 -0.0680
11288TIP3   OH255278   5.025   4.513   5.291  0.6683  0.0041  0.2559
11288TIP3    H155279   4.962   4.584   5.306  0.2804 -0.7166  2.4007
11288TIP3    H255280   5.103   4.558   5.258  0.0272  1.2744  0.3830
11289TIP3   OH255281   1.846   5.420   2.968 -0.4255  0.0381  0.3793
11289TIP3    H155282   1.854   5.515   2.974 -0.0314  0.2245 -2.1452
11289TIP3    H255283   1.751   5.405   2.965 -0.5105  0.2585  1.3564
11290TIP3   OH255284   3.188   4.205   3.446 -0.4841  0.2334 -0.0764
11290TIP3    H155285   3.097   4.216   3.419 -0.9283 -1.7860  0.4524
11290TIP3    H255286   3.185   4.199   3.542  0.1591 -0.1893 -0.0711
11291TIP3   OH255287   0.588   2.239   6.555  0.1207 -0.5008  0.2041
11291TIP3    H155288   0.565   2.331   6.550  0.0654 -0.3708  2.2291
11291TIP3    H255289   0.673   2.233   6.509 -0.5178  0.2644 -1.1477
11292TIP3   OH255290   1.213   5.944   5.371 -0.4929  0.3111 -0.2803
11292TIP3    H155291   1.231   5.938   5.464 -1.6388 -0.5240 -0.0825
11292TIP3    H255292   1.123   5.978   5.366 -0.7963 -0.5658 -1.0451
11293TIP3   OH255293   0.504   0.460  16.291  0.0170  0.3515  0.3183
11293TIP3    H155294   0.567   0.395  16.324  2.3573  1.6818 -1.2514
11293TIP3    H255295   0.447   0.409  16.233  0.8668 -0.5897  0.2665
11294TIP3   OH255296   3.983   1.586   5.485  0.1947  0.2801  0.2731
11294TIP3    H155297   4.042   1.660   5.502  3.5266 -2.6051  2.9374
11294TIP3    H255298   3.937   1.573   5.568  0.5798 -1.2627  0.2752
11295TIP3   OH255299   3.871   0.403  13.092  0.0182 -0.1857 -0.2813
11295TIP3    H155300   3.818   0.460  13.035 -1.0024 -0.4513  0.3850
11295TIP3    H255301   3.901   0.461  13.162 -1.7335 -0.5793  0.8771
11296TIP3   OH255302   4.384   4.152  12.342  0.7215  0.1377 -0.0352
11296TIP3    H155303   4.417   4.230  12.297 -1.4153  1.0626 -0.1238
11296TIP3    H255304   4.297   4.138  12.305  0.9054 -2.0869  0.2679
11297TIP3   OH255305   4.872   1.770  11.723 -0.1500 -0.2630 -0.3488
11297TIP3    H155306   4.777   1.778  11.731 -0.2112  0.5250 -1.5611
11297TIP3    H255307   4.886   1.677  11.703 -0.6257 -0.4648  0.2431
11298TIP3   OH255308   2.864   1.709   0.888  0.0137 -1.0086  0.3494
11298TIP3    H155309   2.800   1.780   0.889 -0.8479 -1.7656  0.0197
11298TIP3    H255310   2.870   1.680   0.979  0.9990  0.0135  0.6382
11299TIP3   OH255311   4.910   2.831   1.382  0.3641  0.0994 -0.1858
11299TIP3    H155312   4.877   2.920   1.371  0.4620  0.8356  3.7998
11299TIP3    H255313   4.980   2.823   1.317  0.5456  3.0585 -0.4764
11300TIP3   OH255314   0.301   1.188   4.497  0.3128  0.2426 -0.1588
11300TIP3    H155315   0.300   1.253   4.568 -1.4995  0.0859 -0.0038
11300TIP3    H255316   0.313   1.104   4.542 -1.3751  0.0875  0.0498
11301TIP3   OH255317   2.538   1.119   4.992 -0.0154 -0.3739  0.0123
11301TIP3    H155318   2.543   1.184   5.062  0.6538 -0.7306  0.3098
11301TIP3    H255319   2.604   1.054   5.016 -0.1320 -0.7556 -0.6918
11302TIP3   OH255320   4.948   4.504   4.301 -0.5299 -0.5894  0.0643
11302TIP3    H155321   4.911   4.511   4.213 -1.9534  0.3756  0.7003
11302TIP3    H255322   5.025   4.561   4.299 -1.3353  0.5278 -0.1935
11303TIP3   OH255323   4.872   3.206  15.920  1.2116  0.1746 -0.1501
11303TIP3    H155324   4.794   3.257  15.942  0.7056 -0.3590 -0.6510
11303TIP3    H255325   4.917   3.193  16.004 -0.8914 -2.1776  0.7589
11304TIP3   OH255326   3.953   5.044   4.735 -0.1829 -0.8345  0.2412
11304TIP3    H155327   3.945   4.994   4.653  2.4546 -0.1102 -0.5486
11304TIP3    H255328   3.905   5.125   4.718  0.8163 -0.4424 -0.8391
11305TIP3   OH255329   2.248   2.099   2.547 -0.2768 -0.4304 -0.4513
11305TIP3    H155330   2.334   2.136   2.567 -1.1482  0.9025  1.0933
11305TIP3    H255331   2.267   2.013   2.509  1.7437  0.3218 -1.2983
11306TIP3   OH255332   3.361   2.911  11.658  0.2180 -0.6195 -0.2204
11306TIP3    H155333   3.355   2.861  11.576 -0.9997  2.9371 -2.5134
11306TIP3    H255334   3.454   2.933  11.666  0.1033  0.6317 -1.8190
11307TIP3   OH255335   5.819   0.565   5.151  0.0060 -0.2901  0.1816
11307TIP3    H155336   5.900   0.522   5.125  0.8822  0.5053  1.4993
11307TIP3    H255337   5.784   0.512   5.222  0.7179  0.7193  1.3249
11308TIP3   OH255338   2.192   4.423  11.576 -0.0049 -0.2281  0.4729
11308TIP3    H155339   2.151   4.505  11.604 -0.0013 -0.7719  2.2115
11308TIP3    H255340   2.135   4.391  11.506 -1.0904  0.3188  1.0669
11309TIP3   OH255341   0.632   0.010   3.046  0.5616 -0.1649  0.1789
11309TIP3    H155342   0.600  -0.069   3.089  0.0248  0.2714  0.5860
11309TIP3    H255343   0.685   0.054   3.113 -1.1246  1.0468  0.7860
11310TIP3   OH255344   4.431   3.454   0.218  0.2471  0.3641 -0.5907
11310TIP3    H155345   4.513   3.491   0.248 -0.6577  0.7086  1.6561
11310TIP3    H255346   4.456   3.377   0.168  1.9242 -0.0320  0.7683
11311TIP3   OH255347   1.291   3.984  14.554  0.6309  0.1154  0.2316
11311TIP3    H155348   1.313   3.901  14.596 -0.7537 -0.4409 -0.1137
11311TIP3    H255349   1.302   3.967  14.461 -0.0647  0.1827  0.1328
11312TIP3   OH255350   6.066   6.068   1.087  0.2290 -0.0296 -0.1737
11312TIP3    H155351   6.109   6.063   1.002  0.4856  0.1834 -0.0569
11312TIP3    H255352   6.041   5.977   1.107 -0.4033  0.0027 -0.7639
11313TIP3   OH255353   0.096   4.272   3.136 -0.3540  0.2032  0.1481
11313TIP3    H155354   0.190   4.257   3.125 -0.2825 -0.7283  1.7417
11313TIP3    H255355   0.075   4.339   3.071  1.7593  1.6552  0.8234
11314TIP3   OH255356   6.250   5.750   5.052 -0.0338  0.4206  0.4703
11314TIP3    H155357   6.306   5.747   5.130 -0.7528  0.5989  1.0110
11314TIP3    H255358   6.261   5.664   5.012  0.1672  0.2397  0.8976
11315TIP3   OH255359   3.680   4.642  14.654 -0.1440 -0.7302 -0.4893
11315TIP3    H155360   3.712   4.588  14.726  0.5135 -0.2544 -0.4108
11315TIP3    H255361   3.754   4.697  14.631 -1.2141  1.2167  0.4487
11316TIP3   OH255362   0.499   3.348   1.813  0.3273  0.0456 -0.1188
11316TIP3    H155363   0.449   3.323   1.891  1.2702 -1.9500 -0.0877
11316TIP3    H255364   0.492   3.272   1.755  0.5484  1.0715 -1.5200
11317TIP3   OH255365   3.050   2.917  17.243  0.1166 -0.2545 -0.5109
11317TIP3    H155366   3.108   2.986  17.211 -1.4647  1.6564  0.4564
11317TIP3    H255367   3.093   2.835  17.219  2.3293  1.0578 -1.2959
11318TIP3   OH255368   2.345   5.603  16.100  0.1868 -0.2608 -0.3988
11318TIP3    H155369   2.367   5.547  16.174 -1.5463 -1.1893 -0.5323
11318TIP3    H255370   2.344   5.544  16.025  0.3518  0.3617 -0.9001
11319TIP3   OH255371   0.245   0.323  12.215  0.2284 -0.4425  0.0293
11319TIP3    H155372   0.217   0.394  12.157  1.4054 -0.0446 -0.0739
11319TIP3    H255373   0.200   0.341  12.298  0.0347  0.0663 -0.1830
11320TIP3   OH255374   0.136   3.821   4.800  0.7824 -0.3010 -0.3600
11320TIP3    H155375   0.130   3.917   4.803 -0.7998 -0.4025  0.5684
11320TIP3    H255376   0.144   3.795   4.892 -0.8428 -1.1540 -0.4330
11321TIP3   OH255377   2.427   4.769  11.282 -0.7920 -0.5485 -0.0518
11321TIP3    H155378   2.465   4.711  11.347 -0.3646 -0.0141  0.1853
11321TIP3    H255379   2.491   4.772  11.211 -0.3487  0.3847  0.3672
11322TIP3   OH255380   6.517   0.671   5.395  0.0040 -0.2075  0.0121
11322TIP3    H155381   6.473   0.596   5.436 -0.0745  0.7348  1.7443
11322TIP3    H255382   6.567   0.711   5.466  2.2536 -0.1651 -1.4899
11323TIP3   OH255383   1.268   0.039   1.944  0.0072 -0.3273  0.2825
11323TIP3    H155384   1.344   0.026   2.000  0.0335  1.1230  0.6307
11323TIP3    H255385   1.205  -0.027   1.974  0.2407  0.0271  1.6374
11324TIP3   OH255386   4.401   5.029   1.239  0.0093 -0.2942  0.6236
11324TIP3    H155387   4.432   4.939   1.249 -0.4806 -0.5496 -0.0913
11324TIP3    H255388   4.394   5.042   1.144  2.4667  1.3172  0.5487
11325TIP3   OH255389   6.617   6.169   3.397 -0.4943  0.0499  0.3101
11325TIP3    H155390   6.656   6.098   3.449 -0.4920  0.8972  1.5220
11325TIP3    H255391   6.537   6.131   3.361 -0.7160 -0.4473  1.2927
11326TIP3   OH255392   6.502   5.074   5.641 -0.2818 -0.1335  0.0507
11326TIP3    H155393   6.483   5.013   5.571  2.2075 -1.8277  0.7014
11326TIP3    H255394   6.597   5.080   5.642 -0.3716  2.2014  1.3589
11327TIP3   OH255395   0.175   0.478   6.126 -0.1813  0.4776 -0.0259
11327TIP3    H155396   0.266   0.461   6.148 -0.1408 -0.4139 -0.8065
11327TIP3    H255397   0.138   0.391   6.110 -1.3908  0.7431  1.1024
11328TIP3   OH255398   0.872   5.191  16.128  0.2280  0.4367  0.2290
11328TIP3    H155399   0.826   5.150  16.200  0.5998 -1.4203 -0.5436
11328TIP3    H255400   0.810   5.190  16.055  0.6109  0.2777 -0.0959
11329TIP3   OH255401   4.001   2.602   4.616 -0.1333  0.6237  0.1854
11329TIP3    H155402   3.929   2.542   4.594 -1.5488  1.7508  1.5309
11329TIP3    H255403   4.004   2.601   4.711  1.9499  0.3013  0.1555
11330TIP3   OH255404   3.325   2.986  11.114  0.1981 -0.0306  0.2152
11330TIP3    H155405   3.266   2.911  11.104 -0.1257 -0.4771  3.9194
11330TIP3    H255406   3.409   2.947  11.139  0.1845  0.7477  1.5983
11331TIP3   OH255407   3.294   2.801   3.290 -0.4707 -0.4780 -0.1990
11331TIP3    H155408   3.328   2.888   3.310 -1.4778 -0.4611  1.7097
11331TIP3    H255409   3.370   2.752   3.260  0.6236  0.3934  0.9984
11332TIP3   OH255410   3.896   1.514   5.741  0.1642  0.2332 -0.0279
11332TIP3    H155411   3.897   1.598   5.788  1.3376 -0.5177  1.3767
11332TIP3    H255412   3.803   1.490   5.738  0.0736 -0.3707  3.3116
11333TIP3   OH255413   6.231   4.477  17.171  0.2469 -0.5675 -0.0763
11333TIP3    H155414   6.161   4.520  17.219  1.8219 -0.2095  2.0245
11333TIP3    H255415   6.251   4.537  17.099  1.8017  1.9496  2.2617
11334TIP3   OH255416   5.010   2.362   5.757 -0.0153 -0.1329 -0.0050
11334TIP3    H155417   5.077   2.347   5.823 -0.2619 -1.0674  0.0561
11334TIP3    H255418   4.927   2.361   5.805 -0.0419  2.0317  0.0734
11335TIP3   OH255419   3.610   5.663   2.884  0.3854  0.5512 -0.1677
11335TIP3    H155420   3.685   5.610   2.856  0.0989 -0.4277  0.8353
11335TIP3    H255421   3.618   5.667   2.979 -1.4859 -0.6316  0.0939
11336TIP3   OH255422   4.609   5.049  12.643 -0.0228  0.3376  0.1002
11336TIP3    H155423   4.565   4.970  12.673  0.0826 -1.4269 -3.8704
11336TIP3    H255424   4.699   5.040  12.674  0.3320 -1.8568 -1.3788
11337TIP3   OH255425   0.185   5.346  14.591 -0.3852  0.3469  0.5023
11337TIP3    H155426   0.195   5.339  14.686 -1.1433 -0.0777  0.5641
11337TIP3    H255427   0.137   5.267  14.566 -2.2468  1.5183  0.0972
11338TIP3   OH255428   1.369   6.331  15.638  0.1077 -0.3322  0.2817
11338TIP3    H155429   1.348   6.423  15.655 -0.7061 -0.2979 -0.8202
11338TIP3    H255430   1.286   6.293  15.607  1.2320 -0.5370 -2.8473
11339TIP3   OH255431   6.715   0.716   4.474 -0.1708  0.0583 -0.2175
11339TIP3    H155432   6.755   0.751   4.554 -0.0783 -0.8031  0.1237
11339TIP3    H255433   6.782   0.725   4.407  0.1666 -0.2543  0.0716
11340TIP3   OH255434   4.762   0.997   1.944  0.3861 -0.5052  0.3086
11340TIP3    H155435   4.677   1.002   1.986  0.3504 -1.6745  0.4205
11340TIP3    H255436   4.749   1.033   1.856  0.3351  1.4531  1.0743
11341TIP3   OH255437   1.133   0.689  14.067 -0.6683 -0.0463  0.1994
11341TIP3    H155438   1.146   0.769  14.017  1.9060  1.2427  2.6774
11341TIP3    H255439   1.154   0.713  14.158 -3.1950 -2.7073  1.6432
11342TIP3   OH255440   6.389   0.071  12.383 -0.2639  0.2454 -0.0437
11342TIP3    H155441   6.381   0.028  12.468 -1.3893 -2.1948 -1.2849
11342TIP3    H255442   6.302   0.108  12.367  0.5707  2.7221  0.8059
11343TIP3   OH255443   1.955   0.192  14.212  0.4305 -0.0321 -0.1758
11343TIP3    H155444   2.013   0.160  14.143  0.3610  0.7730 -0.6133
11343TIP3    H255445   2.013   0.237  14.273  0.2005  1.4640 -1.0159
11344TIP3   OH255446   4.596   3.915   5.469  0.1766 -0.3852 -1.0930
11344TIP3    H155447   4.530   3.983   5.483  0.3388 -0.5263  0.6303
11344TIP3    H255448   4.680   3.959   5.483  0.2743 -0.9528  0.3441
11345TIP3   OH255449   0.426   2.880   1.513  0.4337  0.1285 -0.2411
11345TIP3    H155450   0.483   2.803   1.523  0.2757  0.1830  1.3231
11345TIP3    H255451   0.343   2.853   1.554  1.0231  1.7882  2.2536
11346TIP3   OH255452   2.572   2.180  11.358  0.3950  0.6725  0.1735
11346TIP3    H155453   2.614   2.162  11.274 -0.1156 -0.2267  0.0899
11346TIP3    H255454   2.630   2.141  11.423 -0.1670 -0.3610  0.0762
11347TIP3   OH255455   0.671   0.031   5.807 -0.2552  0.1732 -0.2717
11347TIP3    H155456   0.671   0.045   5.902 -0.3305 -0.9040 -0.1033
11347TIP3    H255457   0.627   0.108   5.772  0.5287  1.0026  0.4997
11348TIP3   OH255458   0.680   2.585  11.326  0.3103 -0.5254  0.0569
11348TIP3    H155459   0.656   2.593  11.419  2.0404  0.1959  0.4830
11348TIP3    H255460   0.615   2.525  11.290 -1.2272  0.2336  1.4135
11349TIP3   OH255461   1.153   6.393  10.796 -0.3769 -0.2991 -0.0275
11349TIP3    H155462   1.190   6.364  10.880 -0.1321  0.8529  0.2857
11349TIP3    H255463   1.145   6.313  10.744 -1.0501 -1.1246  1.2887
11350TIP3   OH255464   1.955   1.100   1.537 -0.4038 -0.2982 -0.7886
11350TIP3    H155465   1.946   1.168   1.604  1.2031 -0.6397 -0.1783
11350TIP3    H255466   1.969   1.020   1.587  0.1045 -0.6824 -1.5339
11351TIP3   OH255467   6.350   1.048   2.009  0.3400  0.4205 -0.0549
11351TIP3    H155468   6.400   1.104   1.950 -0.2881  0.9171 -0.1235
11351TIP3    H255469   6.285   1.106   2.049  0.0837 -0.1271  0.3465
11352TIP3   OH255470   0.378   1.220   1.605 -0.3861 -0.5227  0.2822
11352TIP3    H155471   0.399   1.188   1.517  1.0446 -0.7430  0.6789
11352TIP3    H255472   0.349   1.310   1.591 -1.6123 -1.0136 -0.5447
11353TIP3   OH255473   3.498   2.890  12.814  0.6743  0.2002  0.2587
11353TIP3    H155474   3.462   2.844  12.738 -0.3543  0.5637  0.5087
11353TIP3    H255475   3.491   2.826  12.886  2.5147 -0.4894 -0.1037
11354TIP3   OH255476   3.127   0.593   4.404 -0.2926 -0.3474  0.5512
11354TIP3    H155477   3.141   0.572   4.497 -0.4305  0.9861  0.8950
11354TIP3    H255478   3.052   0.652   4.404 -1.3842 -1.6853 -0.5981
11355TIP3   OH255479   2.400   1.865  13.785 -0.3005  0.8209  0.0179
11355TIP3    H155480   2.317   1.832  13.820  0.2311  0.9685  1.4794
11355TIP3    H255481   2.445   1.788  13.752 -0.4245  0.5231  0.5262
11356TIP3   OH255482   5.550   4.217  16.423  0.2528 -0.4740  0.6834
11356TIP3    H155483   5.610   4.277  16.379 -0.6738 -0.1330 -0.1598
11356TIP3    H255484   5.480   4.202  16.360 -1.8470  1.0992  2.4546
11357TIP3   OH255485   1.021   5.076   2.968  0.6042 -0.0838  0.0887
11357TIP3    H155486   1.086   5.059   3.036  1.4303  0.2278 -0.6011
11357TIP3    H255487   0.937   5.074   3.014  1.1139 -0.2409  1.0457
11358TIP3   OH255488   6.400   0.930  11.498  0.3985 -0.0034  0.2191
11358TIP3    H155489   6.350   0.910  11.420  0.1585  0.7933  0.1589
11358TIP3    H255490   6.488   0.949  11.466  0.4030 -0.0741  0.1879
11359TIP3   OH255491   4.003   4.224   2.144 -0.2238  0.1099  0.0698
11359TIP3    H155492   4.061   4.299   2.129 -1.3714  0.4978 -3.2191
11359TIP3    H255493   3.931   4.260   2.196  1.0062  0.2860  1.7555
11360TIP3   OH255494   3.345   4.541   1.759 -0.0685 -0.7318 -0.4308
11360TIP3    H155495   3.348   4.609   1.826  3.1138 -0.7419 -0.4102
11360TIP3    H255496   3.382   4.464   1.802  1.8497 -0.7969 -2.0744
11361TIP3   OH255497   4.303   0.634   0.014 -0.0189 -0.3012 -0.0525
11361TIP3    H155498   4.263   0.692   0.079  1.1707  1.2852 -0.6623
11361TIP3    H255499   4.379   0.596   0.059 -0.7495 -1.3735  0.3194
11362TIP3   OH255500   3.216   3.854   1.571  0.4631  0.1426  0.2301
11362TIP3    H155501   3.137   3.909   1.574  0.3731 -0.0169  2.0479
11362TIP3    H255502   3.236   3.846   1.478 -1.0758  1.0316 -0.2199
11363TIP3   OH255503   1.414   5.007   2.805 -0.2135  0.2115  0.0737
11363TIP3    H155504   1.354   5.063   2.756  0.9675  1.1892 -0.3002
11363TIP3    H255505   1.407   4.921   2.763 -1.3191  0.3209  0.0219
11364TIP3   OH255506   6.625   0.412  14.267  0.5061  0.1362 -0.5001
11364TIP3    H155507   6.704   0.364  14.291 -0.4011 -1.4908 -0.6010
11364TIP3    H255508   6.553   0.352  14.287 -0.9304  2.4013  1.7981
11365TIP3   OH255509   2.540   0.881   3.936  0.1837 -0.4533  0.1494
11365TIP3    H155510   2.558   0.911   4.025  2.4494 -0.1935 -0.3425
11365TIP3    H255511   2.618   0.831   3.911 -0.0115  0.2097 -1.9812
11366TIP3   OH255512   2.427   0.363  17.242 -0.3809 -0.1009 -0.2969
11366TIP3    H155513   2.426   0.285  17.185 -0.9268 -0.2145 -0.1434
11366TIP3    H255514   2.518   0.371  17.270  0.1515  0.6008 -2.0590
11367TIP3   OH255515   3.697   5.522  14.053 -0.0350  0.2060 -0.6589
11367TIP3    H155516   3.731   5.563  14.133 -0.2920  0.7991 -0.8430
11367TIP3    H255517   3.749   5.443  14.043  0.4797  0.4874 -0.2819
11368TIP3   OH255518   6.444   2.244   2.389  0.0392  0.2385  0.6457
11368TIP3    H155519   6.482   2.295   2.318 -1.2651 -2.6682 -2.4243
11368TIP3    H255520   6.353   2.272   2.392 -0.3234 -0.8075 -0.0670
11369TIP3   OH255521   2.222   4.433   6.529 -0.1508 -0.1280 -0.5996
11369TIP3    H155522   2.128   4.448   6.520 -0.3162  1.0655  2.1458
11369TIP3    H255523   2.230   4.338   6.544 -1.2264  0.0672  1.5453
11370TIP3   OH255524   3.765   4.508   1.594  0.4774  0.8043  0.1528
11370TIP3    H155525   3.816   4.439   1.637  1.6978 -0.3247 -2.8652
11370TIP3    H255526   3.689   4.462   1.559 -1.0543  1.9055  1.8232
11371TIP3   OH255527   4.425   5.677  16.303  0.1528  0.3862  0.3726
11371TIP3    H155528   4.440   5.678  16.398 -0.0109  1.1826  0.3992
11371TIP3    H255529   4.397   5.588  16.284 -1.8643  0.7381  1.4192
11372TIP3   OH255530   3.596   3.127   3.040 -0.3086 -0.4353 -0.2229
11372TIP3    H155531   3.674   3.121   2.985 -0.7544 -0.7493 -0.8331
11372TIP3    H255532   3.613   3.201   3.099  0.0949  0.0173 -0.9012
11373TIP3   OH255533   0.651   4.268  12.065 -0.6132  0.2132  0.3400
11373TIP3    H155534   0.723   4.206  12.054  0.0944  0.9713  0.6017
11373TIP3    H255535   0.662   4.303  12.153 -1.5741  0.0156  0.5568
11374TIP3   OH255536   5.558   3.842  16.800 -0.1907  0.3961 -0.1175
11374TIP3    H155537   5.616   3.913  16.826 -0.6217  0.0553  1.9075
11374TIP3    H255538   5.498   3.882  16.737 -0.0332  1.6501  0.5025
11375TIP3   OH255539   4.709   0.037   2.597 -0.6545 -0.1836 -0.3587
11375TIP3    H155540   4.640   0.067   2.657 -0.8590 -0.9926 -0.1719
11375TIP3    H255541   4.675  -0.045   2.562  0.7204 -1.2442  0.6726
11376TIP3   OH255542   4.762   1.848   3.553  0.0776 -0.0543  0.1529
11376TIP3    H155543   4.778   1.933   3.595  1.2690 -0.6602  0.9650
11376TIP3    H255544   4.790   1.860   3.463 -0.6886  0.6992  0.0050
11377TIP3   OH255545   1.722   3.303   1.593  0.7391  0.0749 -0.2683
11377TIP3    H155546   1.800   3.251   1.612 -0.2842 -1.8228 -1.0574
11377TIP3    H255547   1.649   3.244   1.609 -0.5496  1.6800  0.0294
11378TIP3   OH255548   1.392   1.330   1.035 -0.3660  0.2660  0.0449
11378TIP3    H155549   1.415   1.263   0.970  1.3842 -0.1283  1.0188
11378TIP3    H255550   1.302   1.308   1.060 -0.5282 -0.4900 -1.1072
11379TIP3   OH255551   1.003   0.269   1.220  0.3424 -0.2167  1.0180
11379TIP3    H155552   1.065   0.204   1.188  1.4001 -0.5371  3.4763
11379TIP3    H255553   1.006   0.261   1.315 -0.9433  2.1142  1.3519
11380TIP3   OH255554   0.869   4.003  13.311  0.3609 -0.8277 -0.4086
11380TIP3    H155555   0.922   4.045  13.379 -3.1659  1.8005  1.0444
11380TIP3    H255556   0.799   3.958  13.359 -0.2867 -1.8996 -2.2447
11381TIP3   OH255557   1.874   1.624  12.043  0.4833 -0.7991 -0.0089
11381TIP3    H155558   1.942   1.636  11.977  1.6054  1.5538  1.4140
11381TIP3    H255559   1.806   1.686  12.019  1.3251  0.7799  1.4504
11382TIP3   OH255560   5.464   4.515   2.981  0.4045 -0.2964 -0.1233
11382TIP3    H155561   5.371   4.494   2.993  0.1181  0.8315 -0.3452
11382TIP3    H255562   5.507   4.429   2.980 -0.7644 -0.9035 -1.2170
11383TIP3   OH255563   3.164   4.359   3.120 -0.4996  0.3750 -0.2824
11383TIP3    H155564   3.115   4.433   3.154  0.9241  0.2332  2.3124
11383TIP3    H255565   3.253   4.372   3.151  0.1837 -1.5411 -1.2444
11384TIP3   OH255566   3.711   3.932   4.684 -0.1712  0.5942  0.2237
11384TIP3    H155567   3.634   3.964   4.637 -0.6319  0.9896  1.2371
11384TIP3    H255568   3.684   3.847   4.719  0.2769  0.1531 -0.4536
11385TIP3   OH255569   2.698   1.242   0.686 -0.4953 -0.2156  0.1627
11385TIP3    H155570   2.740   1.214   0.604  0.7076  0.2890  0.5888
11385TIP3    H255571   2.726   1.333   0.697 -0.0334 -0.5020  1.5064
11386TIP3   OH255572   3.286   2.440   3.077 -0.0072 -0.1834  0.1922
11386TIP3    H155573   3.214   2.461   3.017  0.0121  0.4654  0.3823
11386TIP3    H255574   3.354   2.504   3.055  0.7646 -1.1726 -0.3978
11387TIP3   OH255575   1.226   4.226   3.031  0.0994  0.0367 -0.0665
11387TIP3    H155576   1.155   4.281   2.998 -1.6134 -1.7542  0.4799
11387TIP3    H255577   1.281   4.210   2.955 -2.2464 -1.7381 -1.5355
11388TIP3   OH255578   6.466   1.263   0.516 -0.2635 -0.0108  0.3680
11388TIP3    H155579   6.497   1.201   0.450 -0.9120  0.6596 -0.5904
11388TIP3    H255580   6.458   1.346   0.468  0.6598  0.8438  1.6337
11389TIP3   OH255581   3.904   1.769   5.177  1.1394  0.6962  0.3750
11389TIP3    H155582   3.921   1.852   5.133  2.3757  0.5241  0.4863
11389TIP3    H255583   3.984   1.718   5.164  0.6299 -0.2471  0.8291
11390TIP3   OH255584   1.809   1.839  14.204  0.1120  0.4822  0.7980
11390TIP3    H155585   1.774   1.921  14.241  0.9127  1.1349  0.1663
11390TIP3    H255586   1.760   1.827  14.123 -0.9777 -0.4300  1.5792
11391TIP3   OH255587   4.665   1.161   1.734  0.3262 -0.4134 -0.2093
11391TIP3    H155588   4.578   1.122   1.728  0.8838 -1.4677 -1.8625
11391TIP3    H255589   4.675   1.212   1.654  1.9096 -1.8176 -0.9670
11392TIP3   OH255590   3.550   0.037  16.363 -0.2800 -0.0928 -0.2254
11392TIP3    H155591   3.541  -0.058  16.364  2.0647 -0.4000  1.6169
11392TIP3    H255592   3.559   0.060  16.271 -1.2398 -1.5837 -0.7220
11393TIP3   OH255593   5.036   6.706  11.120 -0.2603  0.0122  0.0399
11393TIP3    H155594   5.096   6.634  11.139  0.7197  1.4356  3.0029
11393TIP3    H255595   5.083   6.761  11.057 -0.7226 -1.4900 -1.6800
11394TIP3   OH255596   1.794   3.656   4.776 -0.7292 -0.3222  0.5801
11394TIP3    H155597   1.777   3.682   4.686  0.9840  0.2672  0.3942
11394TIP3    H255598   1.756   3.568   4.783  0.2172 -0.9277 -1.1286
11395TIP3   OH255599   0.196   6.445  15.812 -0.3343  0.0120  0.1136
11395TIP3    H155600   0.271   6.410  15.861  0.2101  1.0865  0.0888
11395TIP3    H255601   0.135   6.473  15.880 -0.2524  0.1027  0.1496
11396TIP3   OH255602   0.870   3.094  16.968 -0.3773  0.2234  0.2952
11396TIP3    H155603   0.893   3.132  16.883  0.4430  1.1740  0.9185
11396TIP3    H255604   0.909   3.007  16.967  1.3388  0.9512  0.4342
11397TIP3   OH255605   2.400   2.385  15.428  0.8838  0.2001 -0.7298
11397TIP3    H155606   2.343   2.334  15.485 -0.0464  0.5982 -1.2829
11397TIP3    H255607   2.414   2.330  15.351  1.8006 -0.1677 -0.3122
11398TIP3   OH255608   1.397   3.941   2.664 -0.1917 -0.4339 -0.2074
11398TIP3    H155609   1.441   3.858   2.647  2.2689  0.7289  0.0659
11398TIP3    H255610   1.403   3.989   2.581 -1.7329 -0.5402 -0.4110
11399TIP3   OH255611   0.149   3.484   0.836  0.1017 -0.3569  0.2935
11399TIP3    H155612   0.119   3.518   0.920  1.8496 -0.7228  1.1071
11399TIP3    H255613   0.135   3.555   0.774 -1.7432 -0.2798  0.7350
11400TIP3   OH255614   0.283   1.081  13.379  0.2520  0.5052  0.5848
11400TIP3    H155615   0.264   1.169  13.412 -0.7539  0.6175 -0.2240
11400TIP3    H255616   0.199   1.035  13.386  0.3107  0.1826 -0.6813
11401TIP3   OH255617   3.316   6.443  13.486  0.0774  0.2337  0.0124
11401TIP3    H155618   3.264   6.456  13.407 -0.2688  2.3272  0.5353
11401TIP3    H255619   3.406   6.436  13.454 -0.1291  0.3611 -0.6029
11402TIP3   OH255620   2.230   2.800  11.466 -0.0362  0.6007 -0.1664
11402TIP3    H155621   2.223   2.895  11.472 -1.3620  0.6166 -1.4774
11402TIP3    H255622   2.249   2.783  11.374 -1.6872 -0.4717 -0.3519
11403TIP3   OH255623   4.331   4.565   4.669  0.3990 -0.7650  0.7606
11403TIP3    H155624   4.312   4.582   4.577  0.5059  0.9438  1.0370
11403TIP3    H255625   4.246   4.572   4.713  0.6012  0.1753  1.0263
11404TIP3   OH255626   2.624   2.621   1.052  0.3784  0.1865 -0.5215
11404TIP3    H155627   2.681   2.546   1.033  3.0287  2.0440 -0.4894
11404TIP3    H255628   2.636   2.679   0.976 -1.8513  0.4820 -0.6924
11405TIP3   OH255629   2.893   1.221   4.877  0.3742  0.0820  0.1210
11405TIP3    H155630   2.858   1.265   4.954 -0.2737 -0.3630  0.0956
11405TIP3    H255631   2.961   1.163   4.911 -0.2943 -0.5310  0.4435
11406TIP3   OH255632   3.084   6.641  15.118  0.0004 -0.5893  0.0098
11406TIP3    H155633   3.076   6.692  15.199  2.1300  0.0721 -0.1353
11406TIP3    H255634   3.020   6.680  15.059 -2.6345 -1.9876  1.7344
11407TIP3   OH255635   5.629   2.187   5.995  0.2255  0.0907 -0.4338
11407TIP3    H155636   5.627   2.129   5.919 -1.5726 -1.9720  1.0417
11407TIP3    H255637   5.661   2.130   6.066 -0.7496  1.1584  0.8982
11408TIP3   OH255638   2.950   1.127  11.019  0.1037  0.0904 -0.3453
11408TIP3    H155639   2.864   1.102  10.987 -0.2812 -1.0774  1.4755
11408TIP3    H255640   2.997   1.044  11.029  1.0922  0.6295 -0.3355
11409TIP3   OH255641   3.245   3.516   4.892 -0.2680  0.5021 -0.1542
11409TIP3    H155642   3.323   3.464   4.910 -0.1747  0.1133 -1.5700
11409TIP3    H255643   3.216   3.547   4.978 -0.3514 -1.9134  0.7696
11410TIP3   OH255644   4.431   2.062   3.029 -0.2164 -0.9404  0.0983
11410TIP3    H155645   4.521   2.092   3.021  0.7192 -3.1433  1.4675
11410TIP3    H255646   4.380   2.142   3.043  1.7009  0.2486  0.5973
11411TIP3   OH255647   2.160   2.042  14.085 -0.1695  0.3845 -0.3883
11411TIP3    H155648   2.138   2.122  14.131 -0.6247  0.1230 -0.1395
11411TIP3    H255649   2.217   2.070  14.013 -2.0969  1.2245 -1.6563
11412TIP3   OH255650   3.739   0.961  16.877 -0.1856  0.3680  0.4447
11412TIP3    H155651   3.800   0.894  16.908 -0.6555 -0.4611 -0.3738
11412TIP3    H255652   3.786   1.004  16.805 -0.3960  0.0182  0.0966
11413TIP3   OH255653   3.592   3.305  17.185  0.3742 -0.0717 -0.1286
11413TIP3    H155654   3.543   3.230  17.152  1.1223  0.1264 -1.8144
11413TIP3    H255655   3.614   3.282  17.275  1.2113 -2.2196 -0.8106
11414TIP3   OH255656   3.921   1.810  16.354  0.2760  0.1457  0.0590
11414TIP3    H155657   3.988   1.743  16.365  0.9936  0.9652  0.8960
11414TIP3    H255658   3.843   1.762  16.326  0.6156 -1.1165  1.1586
11415TIP3   OH255659   6.369   5.936  11.368  0.4745  0.2060 -0.0646
11415TIP3    H155660   6.454   5.909  11.404  0.0653  0.5197  1.1994
11415TIP3    H255661   6.307   5.871  11.400 -0.0002  0.8288  0.3105
11416TIP3   OH255662   2.646   0.923   5.889  0.0531 -0.1289  0.3361
11416TIP3    H155663   2.559   0.951   5.917 -0.3694 -1.0383  0.0089
11416TIP3    H255664   2.648   0.829   5.909  0.0096 -0.6671 -1.8970
11417TIP3   OH255665   2.365   5.645   3.222  0.0075  0.1402  0.3768
11417TIP3    H155666   2.340   5.734   3.246 -3.0087 -0.7008  0.7142
11417TIP3    H255667   2.420   5.656   3.144 -1.2509  2.2621 -0.2907
11418TIP3   OH255668   4.409   5.920   3.184  0.5323 -0.1893  0.1698
11418TIP3    H155669   4.491   5.962   3.210  0.9534 -0.6761 -0.3678
11418TIP3    H255670   4.436   5.843   3.134 -0.2561  0.0929 -0.7176
11419TIP3   OH255671   0.628   2.304   1.547  0.1912  0.0149 -0.0734
11419TIP3    H155672   0.682   2.308   1.626  0.2882 -0.1730 -0.1303
11419TIP3    H255673   0.666   2.370   1.489  0.3533 -0.1089 -0.1090
11420TIP3   OH255674   6.242   4.594  16.524  0.1032 -0.3091  0.9761
11420TIP3    H155675   6.234   4.684  16.493 -0.2525 -0.3468  0.9638
11420TIP3    H255676   6.275   4.545  16.448 -2.4287 -0.7539  0.0545
11421TIP3   OH255677   5.688   6.074   2.682 -0.3924 -0.2039  0.1303
11421TIP3    H155678   5.691   5.986   2.719 -0.5735  0.1415  1.0059
11421TIP3    H255679   5.688   6.132   2.759  0.0282  0.5661 -0.4288
11422TIP3   OH255680   0.103   2.391   5.074 -0.1786 -0.0282 -0.4706
11422TIP3    H155681   0.047   2.319   5.105 -0.7593  0.6990  0.2364
11422TIP3    H255682   0.047   2.441   5.015 -0.7339  1.3923  1.1612
11423TIP3   OH255683   2.817   5.835  15.900  0.4373 -0.0936  0.4239
11423TIP3    H155684   2.823   5.924  15.935 -0.1160  0.2129 -0.2449
11423TIP3    H255685   2.732   5.832  15.857  0.7013 -0.7608 -0.0707
11424TIP3   OH255686   0.901   3.351  12.036  0.5875  0.1862 -0.1992
11424TIP3    H155687   0.861   3.400  11.964  0.7424  0.2222 -0.2618
11424TIP3    H255688   0.882   3.403  12.114  1.0595  0.5380 -0.3126
11425TIP3   OH255689   0.667   6.092   1.799 -0.3449  0.1307 -0.6971
11425TIP3    H155690   0.735   6.089   1.866 -0.5535  0.4418 -0.4729
11425TIP3    H255691   0.616   6.170   1.819 -0.5088  0.1369 -1.1213
11426TIP3   OH255692   5.865   3.357   0.416  0.1812 -0.3385 -0.0839
11426TIP3    H155693   5.821   3.393   0.494 -0.8239 -0.2950 -0.6584
11426TIP3    H255694   5.818   3.276   0.398 -0.3238  0.2022 -1.2855
11427TIP3   OH255695   1.284   0.156   3.493  0.2073 -0.3654 -0.1137
11427TIP3    H155696   1.350   0.087   3.496  0.2458 -0.3592 -0.7337
11427TIP3    H255697   1.222   0.127   3.427 -0.3991 -0.3543  0.4416
11428TIP3   OH255698   3.310   3.223  14.785  0.1313  0.4180  0.6206
11428TIP3    H155699   3.391   3.180  14.812  0.6307  2.2539  2.2595
11428TIP3    H255700   3.334   3.270  14.705  0.6393  0.7920  0.9864
11429TIP3   OH255701   4.836   5.937   2.729  0.1383  0.1431  0.4277
11429TIP3    H155702   4.762   5.928   2.789 -1.7753 -0.7520 -1.8866
11429TIP3    H255703   4.865   5.847   2.713  0.6365  0.3641  0.0328
11430TIP3   OH255704   4.918   2.879  12.363 -0.0110  0.0031 -0.2221
11430TIP3    H155705   4.948   2.873  12.273 -0.6723  0.3992 -0.4792
11430TIP3    H255706   4.823   2.889  12.356 -0.0583  0.1417  0.5099
11431TIP3   OH255707   2.133   4.152  11.398 -0.1260  0.5316 -0.4879
11431TIP3    H155708   2.077   4.110  11.463  2.5131 -1.0925  0.9259
11431TIP3    H255709   2.084   4.146  11.316 -2.1596 -0.3582  0.7176
11432TIP3   OH255710   6.177   4.808   4.070 -0.5777  0.3282  0.4208
11432TIP3    H155711   6.244   4.772   4.129  0.1271  2.7231  1.2299
11432TIP3    H255712   6.097   4.760   4.092  0.4454 -1.2966  0.7768
11433TIP3   OH255713   4.699   4.610  12.583  0.1442  0.3469  0.3010
11433TIP3    H155714   4.649   4.628  12.662  0.0769  0.5947  0.2012
11433TIP3    H255715   4.790   4.630  12.607  0.4303 -1.5032  0.9487
11434TIP3   OH255716   6.590   3.659  14.228 -0.3489 -0.2320 -0.2560
11434TIP3    H155717   6.582   3.743  14.274 -1.8718 -0.1144 -0.6818
11434TIP3    H255718   6.682   3.654  14.203  0.3535  0.1213  1.9807
11435TIP3   OH255719   1.234   0.319   2.045 -1.1449  0.1698  0.1646
11435TIP3    H155720   1.299   0.346   2.110 -0.3283  4.8163 -2.1115
11435TIP3    H255721   1.260   0.230   2.022  3.6081  1.1390  0.5578
11436TIP3   OH255722   3.029   5.828  10.395  0.4368  0.6470  0.5656
11436TIP3    H155723   3.016   5.752  10.451  3.5450  0.7608  1.6271
11436TIP3    H255724   2.979   5.898  10.437  0.2729 -0.0099  1.4860
11437TIP3   OH255725   6.731   5.405   3.808  0.0928  0.2007  0.2050
11437TIP3    H155726   6.746   5.451   3.726  0.2638  0.1178  0.1890
11437TIP3    H255727   6.667   5.337   3.786 -0.8023  0.9677  0.4191
11438TIP3   OH255728   2.803   6.476   5.971 -0.6227 -0.4843  0.3402
11438TIP3    H155729   2.796   6.554   6.027  0.0392 -0.7267  0.7725
11438TIP3    H255730   2.722   6.428   5.987 -1.1283  0.2023 -0.0774
11439TIP3   OH255731   4.247   5.032  13.569 -0.2812 -0.6089 -0.3609
11439TIP3    H155732   4.268   4.939  13.561 -0.1189 -0.5702 -0.3789
11439TIP3    H255733   4.242   5.046  13.664 -0.2293 -0.6183 -0.3569
11440TIP3   OH255734   1.247   2.309   5.118  0.2452  0.1640  0.1823
11440TIP3    H155735   1.163   2.346   5.090 -0.0247 -1.2196 -0.9318
11440TIP3    H255736   1.312   2.365   5.076 -0.1508  0.0232 -0.6610
11441TIP3   OH255737   4.861   3.101   1.771 -0.1908 -1.2654 -0.7810
11441TIP3    H155738   4.844   3.111   1.865  0.9740 -2.0363 -0.4701
11441TIP3    H255739   4.774   3.089   1.732 -0.6996 -0.7605  0.1684
11442TIP3   OH255740   4.498   2.378   1.105  0.2897  0.7729  0.1132
11442TIP3    H155741   4.515   2.292   1.143 -1.8103  1.5693  3.2310
11442TIP3    H255742   4.581   2.425   1.114  0.5347  0.1064  1.5502
11443TIP3   OH255743   5.769   5.665  14.903 -0.8005  0.0808 -0.3309
11443TIP3    H155744   5.831   5.700  14.967 -0.3347  1.1536 -1.3375
11443TIP3    H255745   5.688   5.654  14.952 -1.1703  3.1701 -0.0360
11444TIP3   OH255746   4.225   2.932   6.115  0.4871 -0.1300  0.5003
11444TIP3    H155747   4.211   3.007   6.174  2.9506  0.7034  0.1155
11444TIP3    H255748   4.303   2.889   6.148  0.6266 -0.9779 -0.8606
11445TIP3   OH255749   4.777   5.766   2.422  0.3618  0.3013  0.2627
11445TIP3    H155750   4.723   5.834   2.463 -1.6436 -0.8713 -0.2669
11445TIP3    H255751   4.809   5.714   2.495  0.5090  0.8218  0.5732
11446TIP3   OH255752   6.505   3.269   3.728 -0.2524  0.4848 -0.1266
11446TIP3    H155753   6.480   3.234   3.643 -0.9720  1.3064 -0.2701
11446TIP3    H255754   6.459   3.214   3.791 -0.1330  0.1980 -0.2907
11447TIP3   OH255755   4.412   2.912  13.600 -0.1620  0.0829  0.5888
11447TIP3    H155756   4.342   2.879  13.543 -0.0010  0.4213  0.1851
11447TIP3    H255757   4.368   2.939  13.680 -0.6402  1.2383 -0.0464
11448TIP3   OH255758   1.576   5.214  16.907 -0.0088  0.1008  0.0201
11448TIP3    H155759   1.574   5.130  16.861  0.1962 -0.4503  0.9874
11448TIP3    H255760   1.664   5.248  16.893  0.5886 -0.8186  1.2664
11449TIP3   OH255761   3.551   0.967  12.148  0.4583  0.7689  0.3305
11449TIP3    H155762   3.458   0.983  12.133  0.4687  1.8308  1.2413
11449TIP3    H255763   3.560   0.872  12.150 -0.5251  0.6590 -0.2364
11450TIP3   OH255764   3.390   2.602   6.134 -0.3947 -0.2064 -0.6802
11450TIP3    H155765   3.386   2.674   6.072 -1.4788 -0.8181 -1.3622
11450TIP3    H255766   3.443   2.634   6.206 -0.2399  0.9974 -1.3162
11451TIP3   OH255767   1.940   5.933  15.339 -0.3670  0.2982  0.0385
11451TIP3    H155768   1.960   5.840  15.342  1.0516  0.5502 -0.8582
11451TIP3    H255769   1.918   5.955  15.430 -0.0661 -0.7665  0.3910
11452TIP3   OH255770   0.075   4.066  13.315 -0.0327  0.0550 -0.2048
11452TIP3    H155771   0.062   4.117  13.395  0.7450 -1.7447  1.1426
11452TIP3    H255772   0.161   4.094  13.282  0.8620 -1.0636  1.0988
11453TIP3   OH255773   0.475   0.532   4.067  0.2234  0.0002 -0.6367
11453TIP3    H155774   0.450   0.475   3.995  0.3620  0.6541 -1.2125
11453TIP3    H255775   0.558   0.572   4.039  0.8033 -0.4992  0.3157
11454TIP3   OH255776   3.178   6.223   4.746  0.1292  0.2096  0.0924
11454TIP3    H155777   3.175   6.134   4.711  1.3862  0.2145 -0.0569
11454TIP3    H255778   3.140   6.277   4.676 -0.8214 -0.2160  0.2633
11455TIP3   OH255779   0.663   0.085   4.596  0.3552  0.0923 -0.4331
11455TIP3    H155780   0.751   0.064   4.565  0.4568  0.9724 -0.7726
11455TIP3    H255781   0.656   0.181   4.587  0.3234  0.3815  2.0939
11456TIP3   OH255782   3.912   1.943  15.410  0.0403  0.4162 -0.2370
11456TIP3    H155783   3.940   1.908  15.325  0.6130 -1.1403  0.5577
11456TIP3    H255784   3.963   2.024  15.421  4.3337 -2.1370  1.0450
11457TIP3   OH255785   3.582   1.149   3.732 -0.4222  1.1125  0.4979
11457TIP3    H155786   3.618   1.133   3.819  2.2822 -1.5290 -0.8986
11457TIP3    H255787   3.641   1.215   3.694  0.1195  0.2560 -0.1958
11458TIP3   OH255788   4.133   0.297   0.792  1.0871  0.5464 -0.6948
11458TIP3    H155789   4.081   0.377   0.797 -2.7532 -1.7528  0.3135
11458TIP3    H255790   4.132   0.272   0.700  0.1170  0.3967 -0.6490
11459TIP3   OH255791   2.749   4.906  11.864  0.0455 -0.0669  0.4541
11459TIP3    H155792   2.756   4.914  11.960  0.2982  1.4264  0.3478
11459TIP3    H255793   2.677   4.845  11.851 -0.9198  0.7500  1.6275
11460TIP3   OH255794   1.868   4.990   1.732  0.1685  0.6240  0.2293
11460TIP3    H155795   1.950   5.011   1.688  0.9545 -0.5622  1.0609
11460TIP3    H255796   1.889   4.990   1.825 -0.2743 -1.5384  0.3853
11461TIP3   OH255797   4.431   2.858   4.585  0.2602 -0.3778  0.1029
11461TIP3    H155798   4.427   2.785   4.524  2.6108 -0.4086 -0.0960
11461TIP3    H255799   4.437   2.936   4.528 -1.1891 -0.0708  0.3217
11462TIP3   OH255800   4.226   0.812   2.929  0.1537 -0.6309  0.3335
11462TIP3    H155801   4.221   0.905   2.908 -0.5605 -0.6041  0.5919
11462TIP3    H255802   4.276   0.774   2.858  0.2667 -0.0846  0.1128
11463TIP3   OH255803   4.097   6.228  15.222  0.3080  0.1088 -0.1359
11463TIP3    H155804   4.074   6.167  15.292 -0.7601  0.7851  0.1280
11463TIP3    H255805   4.088   6.177  15.142 -2.9271  0.4242 -0.1407
11464TIP3   OH255806   6.012   1.419   0.094 -0.5654 -0.8017  0.4604
11464TIP3    H155807   6.091   1.373   0.066 -0.5252 -0.1393 -0.5646
11464TIP3    H255808   6.036   1.511   0.092 -0.6470 -0.6925  2.4867
11465TIP3   OH255809   4.036   6.590  14.142 -0.1725  0.4060  0.1886
11465TIP3    H155810   4.128   6.613  14.148 -0.1728  0.8806 -1.2336
11465TIP3    H255811   3.998   6.619  14.225  0.7007  1.3755  0.2592
11466TIP3   OH255812   6.698   2.891  15.261  0.1342  0.3407  0.0875
11466TIP3    H155813   6.680   2.918  15.172 -0.8740  0.4739  0.3257
11466TIP3    H255814   6.672   2.965  15.315 -1.0516 -0.4348  0.6200
11467TIP3   OH255815   1.682   3.838  15.782 -0.6614  0.0974 -0.1789
11467TIP3    H155816   1.609   3.891  15.814 -2.0050 -1.7964  0.0220
11467TIP3    H255817   1.742   3.834  15.857  0.0780  2.2638 -0.5779
11468TIP3   OH255818   5.656   2.973   1.337  0.1136  0.7043 -0.0717
11468TIP3    H155819   5.743   2.962   1.376  0.8442  2.1307 -1.2077
11468TIP3    H255820   5.670   3.032   1.263 -1.7046  0.3247 -0.7684
11469TIP3   OH255821   1.898   4.144   0.783 -0.2391  0.5004  0.2542
11469TIP3    H155822   1.843   4.121   0.857  0.3123  0.1695  0.5732
11469TIP3    H255823   1.932   4.231   0.805  0.1028  0.3080  0.5050
11470TIP3   OH255824   6.332   6.211  11.302  0.1066 -0.0373 -0.2978
11470TIP3    H155825   6.282   6.224  11.221  0.4298  0.8402 -0.3632
11470TIP3    H255826   6.333   6.116  11.314  0.7924 -0.2633 -1.8086
11471TIP3   OH255827   0.925   5.915   0.239 -0.3047 -0.3174  0.1555
11471TIP3    H155828   0.846   5.959   0.271  0.7607  1.5604  0.3457
11471TIP3    H255829   0.993   5.942   0.300  0.2202 -3.2524  0.9960
11472TIP3   OH255830   1.158   5.044   0.742  0.2604 -0.1059  0.0431
11472TIP3    H155831   1.126   5.078   0.825 -0.5355  0.0973 -0.3382
11472TIP3    H255832   1.108   5.091   0.675 -0.2685 -1.3916 -0.5119
11473TIP3   OH255833   0.187   0.702  11.088 -0.1904  0.3959 -0.2914
11473TIP3    H155834   0.131   0.651  11.148  0.6142 -1.6421 -1.1667
11473TIP3    H255835   0.130   0.771  11.056 -1.2603  0.2759  1.2307
11474TIP3   OH255836   6.170   4.104   1.015 -0.2361  0.8196  0.4203
11474TIP3    H155837   6.154   4.185   1.064  0.9045  1.4268 -0.1581
11474TIP3    H255838   6.251   4.122   0.966 -0.4798 -0.3421 -0.4397
11475TIP3   OH255839   0.452   3.654  11.297 -0.5209 -0.5346  0.2559
11475TIP3    H155840   0.460   3.608  11.380  1.9313  0.6879  0.7776
11475TIP3    H255841   0.403   3.734  11.320 -0.4714 -0.5382  0.3764
11476TIP3   OH255842   5.147   3.758   3.038  0.9678 -0.6629 -0.1749
11476TIP3    H155843   5.208   3.819   2.995  1.2248 -0.4328  0.5060
11476TIP3    H255844   5.108   3.708   2.965  0.2204  0.7831 -0.8106
11477TIP3   OH255845   2.492   5.799  16.861 -0.2181 -0.0523 -0.3616
11477TIP3    H155846   2.580   5.807  16.898 -0.4997  2.1966 -0.0615
11477TIP3    H255847   2.486   5.708  16.834  2.8564  0.1111 -1.9944
11478TIP3   OH255848   2.537   6.172   1.746  0.1045  0.6259  0.1294
11478TIP3    H155849   2.469   6.183   1.812 -0.1670 -0.4247  0.0515
11478TIP3    H255850   2.579   6.088   1.769  1.3323  1.2091  0.1358
11479TIP3   OH255851   5.315   3.655  16.834 -0.3893  0.1634 -0.4293
11479TIP3    H155852   5.394   3.680  16.786 -1.3104 -0.0458 -2.1569
11479TIP3    H255853   5.326   3.561  16.852 -0.4223  0.0369 -1.0475
11480TIP3   OH255854   2.053   4.379   3.330  0.3775 -0.0016  0.0729
11480TIP3    H155855   2.110   4.332   3.391  4.1573  0.8122 -2.5306
11480TIP3    H255856   1.974   4.325   3.325  1.6740 -2.3418  2.3736
11481TIP3   OH255857   3.028   2.177  12.563  0.0244  0.0957 -0.5400
11481TIP3    H155858   3.089   2.250  12.560  0.1401  0.0362  0.1376
11481TIP3    H255859   3.060   2.116  12.497  0.2257  0.4279 -0.7504
11482TIP3   OH255860   0.100   5.105   2.704 -0.4640  0.0676  0.3817
11482TIP3    H155861   0.134   5.127   2.618 -2.0470  1.4485  0.0602
11482TIP3    H255862   0.159   5.149   2.766  0.2220 -0.2988 -0.0001
11483TIP3   OH255863   2.824   1.487   0.709  0.1979  0.1980 -0.1842
11483TIP3    H155864   2.839   1.571   0.751  0.8160  0.5853 -1.1314
11483TIP3    H255865   2.903   1.472   0.657  0.1638 -1.0483  0.0945
11484TIP3   OH255866   1.281   1.319   0.460  0.2421  0.1810 -0.6445
11484TIP3    H155867   1.358   1.313   0.516  0.3916 -0.2135 -0.8845
11484TIP3    H255868   1.217   1.260   0.501  1.1710 -2.0094 -2.1557
11485TIP3   OH255869   3.546   6.567  15.632  0.3817  0.4048 -0.0610
11485TIP3    H155870   3.465   6.542  15.677 -0.3533  1.0251 -0.9822
11485TIP3    H255871   3.529   6.547  15.540  2.3951 -2.1808  0.0550
11486TIP3   OH255872   5.018   0.164   0.156 -0.0331 -0.4266 -0.1942
11486TIP3    H155873   5.100   0.116   0.169 -0.2226 -0.4279  1.0690
11486TIP3    H255874   4.958   0.128   0.220 -1.0744 -0.4665 -1.1535
11487TIP3   OH255875   2.697   0.027   4.077  0.3148 -0.3259 -0.3565
11487TIP3    H155876   2.727   0.093   4.014 -0.1700  0.2536  0.0124
11487TIP3    H255877   2.775  -0.026   4.095  0.5454 -0.2914 -1.1814
11488TIP3   OH255878   5.519   3.061   3.989 -0.2097 -0.4104  0.0597
11488TIP3    H155879   5.523   3.010   4.070  0.9490 -0.7824 -0.2033
11488TIP3    H255880   5.520   2.994   3.920 -1.8099 -0.1249 -0.2768
11489TIP3   OH255881   3.498   1.661  10.883  0.4060 -0.3913 -0.5657
11489TIP3    H155882   3.428   1.641  10.821  0.4924  1.3346 -1.2585
11489TIP3    H255883   3.522   1.752  10.865  1.3884 -0.2782  1.0778
11490TIP3   OH255884   5.332   1.238  15.169 -0.8424  0.0081  0.2325
11490TIP3    H155885   5.292   1.152  15.152  0.3291 -0.2464 -1.4562
11490TIP3    H255886   5.409   1.218  15.222 -1.1012  0.1427  0.6668
11491TIP3   OH255887   0.505   4.438  10.706 -0.0610  0.3923 -0.2781
11491TIP3    H155888   0.440   4.505  10.682  1.2661  2.2156  0.9025
11491TIP3    H255889   0.517   4.449  10.800 -0.1396 -1.8991  0.0320
11492TIP3   OH255890   3.078   4.976   3.951 -0.3395  0.0052  0.0656
11492TIP3    H155891   3.134   5.015   3.884 -1.5424 -1.1970 -1.7533
11492TIP3    H255892   3.137   4.954   4.023  1.4670 -0.7944 -1.5707
11493TIP3   OH255893   3.024   1.608  17.356  0.6040 -0.0702 -0.9365
11493TIP3    H155894   2.938   1.650  17.364  0.8474  0.0988  1.4809
11493TIP3    H255895   3.006   1.514  17.360  0.5668 -0.0239  0.8658
11494TIP3   OH255896   2.555   3.665   3.230 -0.4754 -0.1761  0.0039
11494TIP3    H155897   2.532   3.737   3.170 -1.4406 -0.6695 -0.2365
11494TIP3    H255898   2.642   3.689   3.263  0.3985 -0.2161 -2.1109
11495TIP3   OH255899   0.022   4.029  11.090 -0.2909  0.1971  0.1776
11495TIP3    H155900   0.092   4.012  11.028  0.8766 -0.2285  1.5652
11495TIP3    H255901   0.049   4.109  11.137 -2.1489  1.7398 -1.2032
11496TIP3   OH255902   2.380   1.049   3.447  0.4757  0.7032  0.3632
11496TIP3    H155903   2.368   0.972   3.503 -0.1748  0.4699 -0.0834
11496TIP3    H255904   2.309   1.108   3.472 -0.4578  0.1697 -0.9025
11497TIP3   OH255905   6.276   1.767   6.831  0.6868 -0.2908 -0.3015
11497TIP3    H155906   6.260   1.762   6.925 -0.2725  1.2174 -0.3371
11497TIP3    H255907   6.196   1.732   6.791 -0.0216  1.4511 -0.5104
11498TIP3   OH255908   4.967   6.316  10.796 -0.3029  0.0720 -0.1027
11498TIP3    H155909   5.038   6.371  10.763 -0.5915  1.1422  0.9822
11498TIP3    H255910   5.008   6.230  10.811  0.3885  0.2462 -0.9013
11499TIP3   OH255911   6.155   3.183   2.057  0.1109 -0.2552 -0.3798
11499TIP3    H155912   6.157   3.274   2.085  0.1527 -0.0234 -1.1339
11499TIP3    H255913   6.086   3.143   2.111 -1.1221  0.6252 -1.2430
11500TIP3   OH255914   6.078   1.316  15.640 -0.3663  0.1763  0.6215
11500TIP3    H155915   6.040   1.294  15.554  0.7870  0.3898  0.0338
11500TIP3    H255916   6.058   1.240  15.695  1.2485 -1.2174 -0.6228
11501TIP3   OH255917   4.705   4.547  14.026  0.2548  0.4359 -0.4359
11501TIP3    H155918   4.751   4.519  14.105  2.2153  2.3162 -0.8109
11501TIP3    H255919   4.728   4.481  13.960  1.1368  0.4950 -0.1976
11502TIP3   OH255920   2.655   2.893  11.103  0.7357 -0.2667  0.0149
11502TIP3    H155921   2.606   2.931  11.030 -1.4049  0.4196  1.6760
11502TIP3    H255922   2.746   2.913  11.084  0.2114  0.3167 -2.1956
11503TIP3   OH255923   0.728   3.884   0.163  0.2215  0.2379  0.7347
11503TIP3    H155924   0.712   3.790   0.150  0.6853  0.1438  0.8062
11503TIP3    H255925   0.686   3.926   0.088 -0.0020 -0.0271  0.7081
11504TIP3   OH255926   3.837   1.979  12.351 -0.3918  0.5340  0.0261
11504TIP3    H155927   3.925   2.016  12.351 -0.4391  0.6671  0.6009
11504TIP3    H255928   3.833   1.927  12.431 -0.4021 -0.5507 -0.6618
11505TIP3   OH255929   1.739   6.422  16.970 -0.3125  0.4581 -0.0997
11505TIP3    H155930   1.753   6.454  16.881 -0.0296 -0.0318 -0.2367
11505TIP3    H255931   1.747   6.327  16.962 -0.9007  0.3662  0.3390
11506TIP3   OH255932   4.719   0.046   6.459 -0.3605  0.0004 -0.1113
11506TIP3    H155933   4.762  -0.021   6.406 -0.2320 -0.6525  0.7931
11506TIP3    H255934   4.635   0.007   6.483 -0.3848  0.2555  0.2218
11507TIP3   OH255935   1.833   5.357  15.078  0.2725 -0.8530 -0.1081
11507TIP3    H155936   1.900   5.363  15.146  0.8317 -2.1112 -0.5180
11507TIP3    H255937   1.823   5.264  15.062 -0.9444 -0.6442 -0.7024
11508TIP3   OH255938   1.634   2.796  13.447 -0.5936  0.0615 -0.2713
11508TIP3    H155939   1.558   2.751  13.412 -0.0144 -0.6434 -0.6419
11508TIP3    H255940   1.636   2.880  13.401 -0.1970 -0.5998 -1.4758
11509TIP3   OH255941   4.503   2.600  14.227  0.2164  0.3411 -0.0507
11509TIP3    H155942   4.500   2.642  14.141 -1.8629  1.8752  0.6973
11509TIP3    H255943   4.462   2.514  14.212 -0.6673  0.8262 -0.4969
11510TIP3   OH255944   3.365   5.047  16.640 -0.5181  0.4641 -0.2164
11510TIP3    H155945   3.385   4.966  16.594 -2.4118  0.4687 -1.1491
11510TIP3    H255946   3.400   5.116  16.584  0.7456  0.3507  0.3859
11511TIP3   OH255947   2.321   4.352  16.188  0.2580  0.0419 -0.6632
11511TIP3    H155948   2.226   4.348  16.204  0.3345 -0.4650 -0.3196
11511TIP3    H255949   2.357   4.378  16.273  0.4517 -0.0779 -0.7098
11512TIP3   OH255950   6.187   4.109   0.029 -0.2782 -0.4740 -0.3854
11512TIP3    H155951   6.182   4.014   0.019 -0.0224 -0.5792  0.3841
11512TIP3    H255952   6.236   4.139  -0.047 -0.5173 -0.9378 -0.7288
11513TIP3   OH255953   6.290   5.430  16.883 -0.2791 -0.7206  0.5780
11513TIP3    H155954   6.203   5.392  16.871 -1.0158  1.4796 -2.2845
11513TIP3    H255955   6.274   5.513  16.928  0.1814  0.1015 -0.7284
11514TIP3   OH255956   0.318   0.046  14.392 -0.0304  0.0831 -0.4115
11514TIP3    H155957   0.353  -0.020  14.332  0.3461 -0.0116 -0.0961
11514TIP3    H255958   0.223   0.039  14.383 -0.0310 -1.1197  0.2510
11515TIP3   OH255959   2.621   6.712   2.611 -0.4376 -0.8476 -0.3371
11515TIP3    H155960   2.667   6.656   2.674 -0.1821  0.6116  0.8256
11515TIP3    H255961   2.681   6.784   2.595 -1.0965 -0.4726 -1.1610
11516TIP3   OH255962   6.332   0.772  16.492 -0.3111 -0.4274  0.0929
11516TIP3    H155963   6.341   0.683  16.527 -1.5631 -0.2425  0.9821
11516TIP3    H255964   6.370   0.767  16.405  1.5487 -1.3027  0.8891
11517TIP3   OH255965   5.851   5.890  14.766 -0.6518  0.4719  0.0218
11517TIP3    H155966   5.852   5.867  14.674  0.9597 -0.3081  0.2128
11517TIP3    H255967   5.828   5.809  14.811 -2.5507  1.0982  0.2849
11518TIP3   OH255968   2.035   4.401  15.681 -0.3058  0.1424 -0.0358
11518TIP3    H155969   2.076   4.359  15.757  0.3052 -0.0071 -0.4384
11518TIP3    H255970   1.972   4.463  15.718  0.4252  0.5177  0.5974
11519TIP3   OH255971   3.483   5.751   0.013  0.0794  0.2844  0.3894
11519TIP3    H155972   3.557   5.763   0.073  0.2267  1.1141  0.0436
11519TIP3    H255973   3.502   5.807  -0.062 -0.5606 -0.0333 -0.0281
11520TIP3   OH255974   3.185   5.301   3.398  0.1635  0.1453  0.1023
11520TIP3    H155975   3.257   5.271   3.342  2.1720 -0.6032  2.8985
11520TIP3    H255976   3.111   5.310   3.338  1.6522 -2.3529 -2.3621
11521TIP3   OH255977   3.537   4.081   5.329  0.0231  0.6952  0.3523
11521TIP3    H155978   3.620   4.084   5.280  0.6631 -0.6764  1.2718
11521TIP3    H255979   3.564   4.092   5.421 -1.0472  2.2589  0.5018
11522TIP3   OH255980   4.775   3.165   0.555  0.3154 -0.3507 -0.6892
11522TIP3    H155981   4.802   3.088   0.506  0.5843 -0.4322 -0.4205
11522TIP3    H255982   4.855   3.195   0.598  0.0455 -0.3985 -0.1461
11523TIP3   OH255983   3.883   6.068   4.620  0.1452 -0.2637  0.0073
11523TIP3    H155984   3.790   6.063   4.598  0.5230 -1.7283 -1.4446
11523TIP3    H255985   3.885   6.079   4.715 -1.4890 -0.8348  0.1378
11524TIP3   OH255986   5.929   1.048  16.531 -0.2122  0.6964  0.5495
11524TIP3    H155987   5.911   1.142  16.528 -0.9569  0.5599  0.3690
11524TIP3    H255988   5.861   1.010  16.475  0.5917  0.1220 -0.0417
11525TIP3   OH255989   5.515   4.315   4.788  0.8608  0.1042  0.0656
11525TIP3    H155990   5.520   4.388   4.726 -0.1229  0.1704  0.0463
11525TIP3    H255991   5.471   4.352   4.864  1.8634 -0.0349  0.7377
11526TIP3   OH255992   2.938   3.116   4.417  0.0881  0.0899 -0.1842
11526TIP3    H155993   2.897   3.121   4.330 -0.1519  0.9421 -0.0279
11526TIP3    H255994   2.984   3.199   4.427 -1.7552  1.0232  1.4119
11527TIP3   OH255995   0.646   2.457  16.070  0.0130 -0.4195 -0.0161
11527TIP3    H155996   0.596   2.460  16.151  0.1231  0.7012  0.0259
11527TIP3    H255997   0.737   2.467  16.097 -0.1074  2.9592 -0.3905
11528TIP3   OH255998   4.228   1.921  14.970 -0.5782 -0.5491  0.3649
11528TIP3    H155999   4.277   1.842  14.993 -2.9353 -2.0862  0.5306
11528TIP3    H256000   4.295   1.987  14.951  1.5729 -3.0004 -1.3120
11529TIP3   OH256001   6.554   3.130  12.579 -0.3518 -0.0319  0.3430
11529TIP3    H156002   6.630   3.111  12.634  0.8160 -0.1577 -1.2216
11529TIP3    H256003   6.573   3.217  12.541 -0.1898 -0.7294 -1.2739
11530TIP3   OH256004   1.251   2.586  14.476 -0.0415 -0.6817 -0.2718
11530TIP3    H156005   1.318   2.577  14.408 -0.7225 -1.4102 -0.8686
11530TIP3    H256006   1.250   2.680  14.496  1.1184 -0.6460 -0.2692
11531TIP3   OH256007   1.912   1.367   4.870  0.0661 -0.0308  0.1807
11531TIP3    H156008   1.864   1.334   4.793 -0.2354  1.5446 -0.3406
11531TIP3    H256009   1.897   1.300   4.937 -0.8945 -0.7300 -0.6848
11532TIP3   OH256010   0.676   0.960  15.320 -0.0022 -0.5212  0.1013
11532TIP3    H156011   0.727   0.887  15.284  0.4434 -1.0408  1.6596
11532TIP3    H256012   0.695   0.957  15.414 -1.1125  0.7282  0.3908
11533TIP3   OH256013   4.733   4.982  12.937 -0.3460  0.0620 -0.8073
11533TIP3    H156014   4.737   4.892  12.906  0.1264 -0.1825 -0.0614
11533TIP3    H256015   4.824   5.010  12.945 -0.4823  0.5328 -0.8274
11534TIP3   OH256016   6.113   3.713   4.385 -0.0568 -0.0556 -0.0083
11534TIP3    H156017   6.160   3.790   4.352  0.8546 -1.0498 -1.1213
11534TIP3    H256018   6.066   3.745   4.462  1.2755  1.3150  0.2826
11535TIP3   OH256019   1.685   0.861  17.238  0.0052  0.4875  0.2238
11535TIP3    H156020   1.648   0.818  17.160 -0.6840 -1.8718  1.7299
11535TIP3    H256021   1.780   0.859  17.223 -0.1706  1.2659 -1.1149
11536TIP3   OH256022   0.073   4.999  15.321  0.1848 -0.2085 -0.1411
11536TIP3    H156023  -0.022   4.998  15.304  0.1803  1.6114 -0.4380
11536TIP3    H256024   0.085   5.069  15.385  1.2910 -0.7548  0.2650
11537TIP3   OH256025   5.866   0.079   2.915  0.1955  0.1475 -0.3216
11537TIP3    H156026   5.815   0.003   2.945  0.7702 -0.1894 -0.1799
11537TIP3    H256027   5.926   0.042   2.850  1.5981  0.1895  0.9294
11538TIP3   OH256028   1.002   4.892  16.428 -0.3815 -0.3047 -0.9086
11538TIP3    H156029   0.922   4.868  16.381  1.0626 -2.5376 -2.4437
11538TIP3    H256030   1.036   4.968  16.381 -1.5687  0.6971 -0.2124
11539TIP3   OH256031   0.977   1.115   4.353  0.0825  0.0323 -0.4575
11539TIP3    H156032   1.064   1.147   4.379  0.2467 -1.0954  0.4663
11539TIP3    H256033   0.974   1.025   4.387 -2.2530  0.7306  1.4188
11540TIP3   OH256034   5.903   3.133   4.874 -0.1320 -0.3228  0.0968
11540TIP3    H156035   5.901   3.219   4.831  0.2472  0.7395  2.0756
11540TIP3    H256036   5.951   3.077   4.813 -0.7698  0.7259 -1.4465
11541TIP3   OH256037   3.395   4.446  16.853 -0.2405 -0.2403  0.1118
11541TIP3    H156038   3.365   4.491  16.774  0.1844 -0.0539  0.0527
11541TIP3    H256039   3.457   4.381  16.821 -1.4704 -1.4653  0.1068
11542TIP3   OH256040   1.426   4.000  15.271  0.2379 -0.0668 -0.7687
11542TIP3    H156041   1.361   3.990  15.202 -0.6146 -3.8602  0.3232
11542TIP3    H256042   1.374   4.014  15.351  0.5390 -3.1253  0.1150
11543TIP3   OH256043   2.841   1.908  11.789  0.0517  0.4650 -0.4148
11543TIP3    H156044   2.814   1.980  11.845 -0.1479 -0.4273  0.6718
11543TIP3    H256045   2.904   1.947  11.729  0.7933  1.3214  0.8644
11544TIP3   OH256046   4.362   2.375   5.341  0.2024 -0.3046  0.3378
11544TIP3    H156047   4.330   2.462   5.362  3.4431  1.1375 -0.0767
11544TIP3    H256048   4.425   2.355   5.411  0.5597 -1.6954 -0.3293
11545TIP3   OH256049   0.450   5.430  16.268 -0.0171 -0.2709 -0.3202
11545TIP3    H156050   0.481   5.340  16.281 -0.1142 -0.5483 -1.8630
11545TIP3    H256051   0.527   5.477  16.237 -0.4954 -0.3606 -1.6870
11546TIP3   OH256052   4.413   0.121   5.867 -0.3682  0.3502 -0.0917
11546TIP3    H156053   4.342   0.063   5.838 -1.1105  2.0223 -1.9001
11546TIP3    H256054   4.368   0.192   5.912  0.2109  1.0775 -0.6407
11547TIP3   OH256055   5.556   2.230  14.024 -0.2003 -0.4101  0.0676
11547TIP3    H156056   5.486   2.220  13.959  0.2398  1.3810 -0.7422
11547TIP3    H256057   5.512   2.228  14.108 -1.1650  0.0777 -0.4109
11548TIP3   OH256058   3.967   5.647  13.736 -0.2787 -0.6687 -0.1474
11548TIP3    H156059   4.038   5.611  13.684  0.4267  1.3750 -0.6934
11548TIP3    H256060   3.898   5.668  13.673 -0.1369  0.1349 -0.0557
11549TIP3   OH256061   3.953   0.610   1.846  0.2273 -0.4400 -0.4969
11549TIP3    H156062   3.876   0.629   1.793 -0.3470  1.1323  0.8044
11549TIP3    H256063   3.919   0.565   1.923  0.3883  1.2096  0.6044
11550TIP3   OH256064   1.032   3.274   5.358  0.2329 -0.2352 -0.3024
11550TIP3    H156065   1.037   3.354   5.409  1.8211 -1.0843  0.9633
11550TIP3    H256066   1.118   3.266   5.317 -0.4560 -0.4562 -1.7779
11551TIP3   OH256067   4.614   4.175   3.013  0.1248  0.3595 -0.2145
11551TIP3    H156068   4.639   4.178   2.921  0.4494 -0.3444 -0.1554
11551TIP3    H256069   4.655   4.095   3.047 -1.2958 -0.2647  0.1422
11552TIP3   OH256070   3.750   4.151   3.261  0.3585  0.2103  0.3380
11552TIP3    H156071   3.732   4.208   3.335  2.1206  2.1798 -0.6527
11552TIP3    H256072   3.723   4.201   3.184  0.5833 -0.8903 -0.4913
11553TIP3   OH256073   3.852   2.519   5.230  0.1237 -0.3572  0.2591
11553TIP3    H156074   3.896   2.521   5.315  0.9249  1.2604 -0.1426
11553TIP3    H256075   3.849   2.611   5.203 -1.5463 -0.6715 -0.7543
11554TIP3   OH256076   0.446   3.162  17.381  0.1885  0.3545 -0.0389
11554TIP3    H156077   0.458   3.162  17.286  3.8620 -0.0789  0.2531
11554TIP3    H256078   0.435   3.255  17.404 -0.2310  0.5094 -0.8415
11555TIP3   OH256079   4.710   3.982   3.953 -0.3094 -0.1753 -0.0164
11555TIP3    H156080   4.723   3.942   3.868  1.1038 -0.4765  0.3224
11555TIP3    H256081   4.662   3.916   4.004  1.1611 -1.0939  0.2357
11556TIP3   OH256082   5.549   1.409  16.592  0.2241 -0.0737  0.0944
11556TIP3    H156083   5.570   1.371  16.507 -2.7849 -0.1116 -0.7529
11556TIP3    H256084   5.602   1.359  16.654  0.3834 -2.0152 -1.4825
11557TIP3   OH256085   1.493   1.157  14.953  0.6258  0.4832  0.1537
11557TIP3    H156086   1.476   1.231  15.011  2.3816  1.0304 -0.0015
11557TIP3    H256087   1.415   1.102  14.962 -0.3186  1.8993  0.9407
11558TIP3   OH256088   0.457   5.740  16.862  0.0811  0.0998 -0.2347
11558TIP3    H156089   0.533   5.764  16.916 -0.3042  0.3806  0.1867
11558TIP3    H256090   0.487   5.754  16.772  0.7991 -0.5718 -0.1143
11559TIP3   OH256091   6.755   1.360  14.512  0.0778  0.2428  0.5938
11559TIP3    H156092   6.743   1.286  14.453 -1.8051  1.7984 -1.1040
11559TIP3    H256093   6.750   1.437  14.456  1.1594  1.7272  2.4111
11560TIP3   OH256094   0.555   3.673   4.922 -0.7220 -0.0687 -0.1390
11560TIP3    H156095   0.613   3.624   4.864 -2.3837 -1.6461 -0.5598
11560TIP3    H256096   0.601   3.756   4.937  0.3856 -0.1330 -2.6145
11561TIP3   OH256097   1.608   4.461   3.995 -0.1920  0.1261  0.2326
11561TIP3    H156098   1.553   4.384   4.006 -0.0909  0.0777  0.3935
11561TIP3    H256099   1.557   4.519   3.939 -0.8559  0.5260  1.2267
11562TIP3   OH256100   0.993   2.881  14.696  0.4967 -0.0821 -0.0243
11562TIP3    H156101   0.910   2.877  14.743 -0.1102  1.5381 -0.9017
11562TIP3    H256102   1.046   2.811  14.735  0.1969  1.3785  3.3826
11563TIP3   OH256103   0.035   3.871  15.065 -0.3617  0.3349  0.9941
11563TIP3    H156104  -0.042   3.920  15.036 -0.3802  1.3515  2.6528
11563TIP3    H256105   0.010   3.779  15.054 -1.0056  0.6461 -0.4439
11564TIP3   OH256106   4.287   5.078  13.854  0.2197  0.8000  0.0217
11564TIP3    H156107   4.269   5.024  13.930  1.1973 -1.4492 -1.2561
11564TIP3    H256108   4.354   5.140  13.884 -0.7378  1.1880  1.4457
11565TIP3   OH256109   2.236   1.267  13.530  0.2601  0.4058  0.6503
11565TIP3    H156110   2.270   1.353  13.555  1.1252  0.5383 -0.8341
11565TIP3    H256111   2.298   1.235  13.464 -1.9415  0.2226 -1.5003
11566TIP3   OH256112   0.921   0.573  16.318 -0.7629  0.0408  0.1684
11566TIP3    H156113   1.014   0.584  16.303 -1.0464 -0.4092 -2.2675
11566TIP3    H256114   0.914   0.545  16.409  1.5063 -0.4611  0.2303
11567TIP3   OH256115   2.306   5.655  10.440  0.1573  0.7662  0.2756
11567TIP3    H156116   2.261   5.649  10.355 -0.0584  3.6807  0.0877
11567TIP3    H256117   2.345   5.568  10.452 -1.2401 -0.2873 -1.9696
11568TIP3   OH256118   1.048   0.867   3.664 -0.2185  0.2843 -0.3344
11568TIP3    H156119   0.985   0.928   3.624 -1.0485  0.8994  1.7611
11568TIP3    H256120   1.131   0.889   3.622 -1.1522  0.2391 -2.3535
11569TIP3   OH256121   1.249   3.455  15.948  0.2767 -0.3863 -0.1293
11569TIP3    H156122   1.204   3.448  15.864  0.5072 -0.7865 -0.2201
11569TIP3    H256123   1.179   3.458  16.013  0.0765 -3.9742 -0.0068
11570TIP3   OH256124   3.738   2.271  14.143  0.4086  0.2038  0.2802
11570TIP3    H156125   3.714   2.301  14.055  2.4852 -2.0024 -1.1727
11570TIP3    H256126   3.825   2.308  14.158 -0.9646  2.7505  2.6512
11571TIP3   OH256127   1.237   6.568  15.312 -0.3104  0.5666 -0.0280
11571TIP3    H156128   1.158   6.583  15.365 -0.3142 -0.8094  0.3956
11571TIP3    H256129   1.249   6.473  15.314  0.7101  0.6580 -1.0462
11572TIP3   OH256130   1.966   4.169   6.658  0.4432  0.0400  0.5374
11572TIP3    H156131   1.977   4.196   6.749  1.7858  1.5443 -0.0256
11572TIP3    H256132   2.053   4.141   6.630  0.2897  0.6318 -0.5890
11573TIP3   OH256133   6.408   0.880  14.875 -0.4282  0.0947 -0.4637
11573TIP3    H156134   6.340   0.873  14.941 -0.1488 -0.1927 -0.2070
11573TIP3    H256135   6.419   0.791  14.842  1.5894 -0.3628  1.2701
11574TIP3   OH256136   3.144   2.523   6.318  0.1399  0.2683 -0.2082
11574TIP3    H156137   3.074   2.465   6.287 -1.3575  1.8347  0.0508
11574TIP3    H256138   3.191   2.550   6.239  2.3535 -2.9494 -0.1783
11575TIP3   OH256139   6.473   1.340   3.913  0.7607  0.1552 -0.7251
11575TIP3    H156140   6.438   1.425   3.886  1.0594  0.8450  0.9601
11575TIP3    H256141   6.429   1.277   3.855 -1.5314  1.2000 -0.2384
11576TIP3   OH256142   3.817   1.219  15.556 -0.2956  0.4308 -0.0090
11576TIP3    H156143   3.836   1.126  15.563  0.5320  0.4973 -1.1373
11576TIP3    H256144   3.790   1.231  15.465  0.2764  1.4046 -0.0677
11577TIP3   OH256145   6.445   2.002   1.194  0.3090 -0.3282  0.1530
11577TIP3    H156146   6.417   2.048   1.274  1.2142 -2.7083  1.9707
11577TIP3    H256147   6.399   1.918   1.197  1.7628 -1.2178 -0.8392
11578TIP3   OH256148   1.143   3.724   0.122 -0.4006 -0.1235  0.4980
11578TIP3    H156149   1.120   3.739   0.214  0.0323  0.8908  0.4618
11578TIP3    H256150   1.191   3.804   0.096 -2.3329  0.5823 -1.2068
11579TIP3   OH256151   6.361   3.798   5.681 -0.4559 -0.0792 -0.4697
11579TIP3    H156152   6.282   3.766   5.723 -1.9798  0.5653 -2.6648
11579TIP3    H256153   6.371   3.744   5.603 -0.0101  1.2482 -1.3771
11580TIP3   OH256154   0.042   1.410   0.388  0.2441 -0.0491  0.4356
11580TIP3    H156155   0.078   1.321   0.397  1.3809  0.3031 -0.3998
11580TIP3    H256156   0.016   1.433   0.477 -1.2597 -1.6840  0.4743
11581TIP3   OH256157   1.624   0.356  14.580  0.2522  0.2166  0.5057
11581TIP3    H156158   1.677   0.430  14.609 -0.3372  1.3023 -1.0250
11581TIP3    H256159   1.682   0.304  14.526  0.1483  0.6612 -0.0452
11582TIP3   OH256160   0.096   0.815  16.638  0.0631  0.3701 -0.3607
11582TIP3    H156161   0.108   0.747  16.571  0.5563  1.1615 -1.1022
11582TIP3    H256162   0.002   0.816  16.654 -0.1296  0.4806 -1.3975
11583TIP3   OH256163   2.854   3.366  14.452  0.1467  0.0381 -0.1056
11583TIP3    H156164   2.812   3.302  14.395  3.1970 -0.9922 -1.4327
11583TIP3    H256165   2.887   3.314  14.526 -0.5541  0.7498  0.7297
11584TIP3   OH256166   5.740   4.636  10.655 -0.2396 -0.4747 -0.1756
11584TIP3    H156167   5.665   4.643  10.714  0.2468  0.9300  0.3074
11584TIP3    H256168   5.740   4.544  10.627 -1.3199 -0.8211  0.8933
11585TIP3   OH256169   2.248   0.776  11.906 -0.5101 -0.1356  0.3093
11585TIP3    H156170   2.211   0.698  11.864 -1.1531  0.7865 -0.8686
11585TIP3    H256171   2.210   0.775  11.994  1.0435 -2.2177  1.0623
11586TIP3   OH256172   2.193   3.356   0.966 -0.2960  0.3579  0.5967
11586TIP3    H156173   2.145   3.334   1.046 -0.0200  0.5612  0.8183
11586TIP3    H256174   2.230   3.273   0.937 -0.8881  0.1752  0.3531
11587TIP3   OH256175   0.332   4.092   5.020  0.1652  0.0058  0.0739
11587TIP3    H156176   0.259   4.096   5.081 -0.6022 -1.5229 -0.6802
11587TIP3    H256177   0.295   4.052   4.941  1.7867 -0.7520 -0.3532
11588TIP3   OH256178   2.072   0.945  17.315  0.7052  0.2047 -0.2774
11588TIP3    H156179   2.015   1.001  17.263  0.1973  0.3506  0.4312
11588TIP3    H256180   2.069   0.982  17.403  0.3888 -0.8983  0.1903
11589TIP3   OH256181   1.057   0.179  12.257 -0.2510  0.9151  0.0006
11589TIP3    H156182   1.007   0.102  12.281 -0.6360  1.0196 -0.4577
11589TIP3    H256183   1.148   0.150  12.258 -0.5157 -0.3822 -3.0142
11590TIP3   OH256184   3.589   0.800   3.588  0.6715  0.2828  0.5947
11590TIP3    H156185   3.640   0.722   3.612  0.6785  0.5531  1.4888
11590TIP3    H256186   3.500   0.781   3.619  0.6290  0.5548  0.6422
11591TIP3   OH256187   0.498   4.867   1.500  0.3341 -0.1390  0.5438
11591TIP3    H156188   0.489   4.951   1.455 -1.2479 -0.8624 -0.6078
11591TIP3    H256189   0.560   4.884   1.571  1.5748  1.4962 -0.8382
11592TIP3   OH256190   6.443   0.035   6.356 -0.4791 -0.7672 -0.2094
11592TIP3    H156191   6.398  -0.007   6.430  0.3459  0.2593  0.9170
11592TIP3    H256192   6.387   0.109   6.334 -0.0687 -0.3061  0.2712
11593TIP3   OH256193   1.352   2.983  12.621 -0.1399 -0.1091  0.1648
11593TIP3    H156194   1.381   3.070  12.594 -0.5876 -0.1776 -0.5658
11593TIP3    H256195   1.422   2.924  12.591 -0.5258 -0.1582 -0.6754
11594TIP3   OH256196   5.905   2.796   1.054 -0.4263  0.0313 -0.1131
11594TIP3    H156197   5.971   2.849   1.098  0.9612 -2.2498  0.7388
11594TIP3    H256198   5.955   2.738   0.997 -1.9128 -0.0107 -1.4524
11595TIP3   OH256199   4.064   4.108  15.222 -0.8130  0.0840  0.4075
11595TIP3    H156200   3.992   4.172  15.226 -1.5267 -0.7033  0.4659
11595TIP3    H256201   4.093   4.099  15.313 -1.0722 -0.0650  0.4777
11596TIP3   OH256202   2.717   6.358   0.603  0.2932  0.4664  0.0956
11596TIP3    H156203   2.726   6.278   0.552  0.6989  0.6974 -0.1993
11596TIP3    H256204   2.656   6.412   0.553  0.3844  0.5307  0.0528
11597TIP3   OH256205   4.304   3.308   3.937 -0.3466  0.1267  0.5160
11597TIP3    H156206   4.241   3.314   3.865  1.0432 -1.1757 -0.9075
11597TIP3    H256207   4.276   3.231   3.986 -0.0134 -0.3358 -0.0018
11598TIP3   OH256208   1.334   5.241  17.329  0.2458 -0.2376 -0.6005
11598TIP3    H156209   1.384   5.295  17.267 -0.8731 -0.5216 -1.7910
11598TIP3    H256210   1.288   5.178  17.274 -0.7688 -0.5155  0.5291
11599TIP3   OH256211   0.683   3.154   3.168  0.2405 -0.1090  0.4785
11599TIP3    H156212   0.669   3.165   3.262  0.9465 -0.2794  0.6065
11599TIP3    H256213   0.726   3.235   3.140 -0.1058  0.0060  0.2701
11600TIP3   OH256214   1.188   4.898   3.319 -0.6409 -0.3248 -0.6090
11600TIP3    H156215   1.126   4.942   3.377  0.2709 -0.0847  0.2022
11600TIP3    H256216   1.195   4.956   3.243 -2.0828 -0.8010 -1.1280
11601TIP3   OH256217   4.730   3.967  16.666 -0.1229 -0.2415  0.7570
11601TIP3    H156218   4.692   3.951  16.752  0.1134  0.7754  1.0596
11601TIP3    H256219   4.672   4.030  16.625 -0.4044 -0.9578  0.0419
11602TIP3   OH256220   5.296   0.011   2.433  0.1489  0.2458  0.0204
11602TIP3    H156221   5.262   0.098   2.456  2.5918  1.6325 -1.2016
11602TIP3    H256222   5.335  -0.020   2.515 -2.2763 -0.5908  0.9543
11603TIP3   OH256223   2.412   5.225  13.126 -0.3009  0.1710 -0.0805
11603TIP3    H156224   2.491   5.278  13.119 -0.9460  1.1333 -0.2801
11603TIP3    H256225   2.404   5.206  13.220  0.3205 -0.1845 -0.0975
11604TIP3   OH256226   3.150   1.007  16.345  0.1046 -0.3879 -0.4610
11604TIP3    H156227   3.092   0.937  16.374 -0.1145 -0.3068 -0.6952
11604TIP3    H256228   3.093   1.065  16.294 -0.1349  0.9313  1.2291
11605TIP3   OH256229   5.220   5.969   3.249  0.9535  0.0752 -0.1869
11605TIP3    H156230   5.239   5.919   3.329  2.1410  2.0324  0.8360
11605TIP3    H256231   5.261   5.919   3.179 -0.7329 -2.0852  0.2324
11606TIP3   OH256232   3.277   6.557  10.948  0.3588  0.2803  0.0472
11606TIP3    H156233   3.231   6.587  10.869 -0.6661  1.5268  1.0540
11606TIP3    H256234   3.261   6.463  10.951  0.6435  0.1714 -1.3607
11607TIP3   OH256235   4.408   0.035   4.480 -0.3417 -0.0372 -0.3730
11607TIP3    H156236   4.346   0.092   4.434  0.7216  0.1168 -1.6867
11607TIP3    H256237   4.489   0.085   4.483  1.0114 -1.8697 -2.7153
11608TIP3   OH256238   4.211   0.154   5.223  0.8028 -0.1096 -0.2679
11608TIP3    H156239   4.146   0.118   5.284  0.1526 -0.0065 -0.8802
11608TIP3    H256240   4.242   0.233   5.266 -1.2284  1.1503 -0.9862
11609TIP3   OH256241   3.996   2.212  13.679 -0.0693  0.4341  0.5321
11609TIP3    H156242   3.985   2.237  13.587  0.0999 -1.2519  0.0231
11609TIP3    H256243   3.984   2.117  13.680  0.3952  0.3568  2.1882
11610TIP3   OH256244   5.868   0.009   4.649 -0.6694  0.5139  0.2181
11610TIP3    H156245   5.821   0.090   4.629  1.4371  1.3355 -1.8216
11610TIP3    H256246   5.838  -0.053   4.583  2.3447  1.6260 -2.4028
11611TIP3   OH256247   1.193   0.602  16.331 -0.0424 -0.1072  0.5208
11611TIP3    H156248   1.271   0.625  16.381  0.6809  0.1781 -0.7001
11611TIP3    H256249   1.227   0.570  16.247 -1.1279 -2.4698  0.8934
11612TIP3   OH256250   3.804   3.559  13.147  0.5408 -0.9744  0.5208
11612TIP3    H156251   3.866   3.506  13.098  2.0386 -0.3008  1.6099
11612TIP3    H256252   3.855   3.595  13.220 -1.0787 -0.2151  1.3378
11613TIP3   OH256253   2.738   5.818  16.990 -0.3102  0.0668 -0.5106
11613TIP3    H156254   2.795   5.741  16.985 -0.4047 -0.0736  0.3795
11613TIP3    H256255   2.671   5.793  17.053 -2.0602 -0.2049 -2.3651
11614TIP3   OH256256   4.692   1.452   4.905  0.0466  0.0197 -0.0757
11614TIP3    H156257   4.752   1.378   4.908 -0.9680 -0.8744 -0.8460
11614TIP3    H256258   4.742   1.523   4.865  1.6826  0.4425  2.5155
11615TIP3   OH256259   6.713   1.234   4.678 -0.3560  0.2940 -0.2683
11615TIP3    H156260   6.634   1.266   4.722 -1.4036  0.7053 -2.3590
11615TIP3    H256261   6.722   1.289   4.601  1.6652 -0.1421 -0.4035
11616TIP3   OH256262   5.252   1.744  11.521  0.2503 -0.2957 -0.2653
11616TIP3    H156263   5.261   1.655  11.486 -1.3796 -0.7584  0.3792
11616TIP3    H256264   5.341   1.768  11.549  0.2997 -3.1048  2.6944
11617TIP3   OH256265   0.886   5.927  16.937  0.1816  0.4392 -0.4667
11617TIP3    H156266   0.887   6.011  16.891 -0.4746  0.3236 -0.7103
11617TIP3    H256267   0.976   5.913  16.964  0.3314  1.1331 -0.5920
11618TIP3   OH256268   2.097   0.919   3.810 -0.1009 -0.4880 -0.5503
11618TIP3    H156269   2.044   0.983   3.763  0.5964 -1.0290 -2.1371
11618TIP3    H256270   2.091   0.946   3.902 -0.6075  1.2683 -1.0562
11619TIP3   OH256271   4.925   1.598   4.573  0.1656  0.0774  0.5572
11619TIP3    H156272   4.948   1.669   4.512 -0.4995 -1.0707 -1.1153
11619TIP3    H256273   4.854   1.551   4.529 -0.6116 -0.5850  2.4393
11620TIP3   OH256274   6.682   4.160   1.970  0.2050 -0.9557  0.2569
11620TIP3    H156275   6.663   4.076   2.012 -0.6321 -0.5530  0.7061
11620TIP3    H256276   6.597   4.193   1.943  0.4511  0.0895  0.7372
11621TIP3   OH256277   6.160   3.492  15.776 -0.5022  0.6043  0.1055
11621TIP3    H156278   6.240   3.469  15.729 -0.3966 -0.2174  0.6708
11621TIP3    H256279   6.089   3.471  15.715 -0.2838  2.6364 -0.9538
11622TIP3   OH256280   5.425   3.252   1.529  0.0564  0.0932  0.2285
11622TIP3    H156281   5.510   3.232   1.569  0.7177  0.4750 -0.9406
11622TIP3    H256282   5.373   3.289   1.600  0.6447 -0.7357  1.1150
11623TIP3   OH256283   0.325   1.421   6.058  0.3248  0.1668 -0.1825
11623TIP3    H156284   0.321   1.458   6.146 -0.9998  1.5219 -0.7527
11623TIP3    H256285   0.344   1.497   6.001  0.7626 -0.6105 -1.1016
11624TIP3   OH256286   0.391   0.527  11.028  0.8475 -0.3286 -0.1884
11624TIP3    H156287   0.341   0.609  11.030  2.4018  0.6606 -0.4185
11624TIP3    H256288   0.334   0.463  11.072 -0.2158  0.9679  0.3770
11625TIP3   OH256289   0.196   4.423   3.745  0.0256  0.2157  0.2548
11625TIP3    H156290   0.224   4.421   3.837  1.2521  0.9227 -0.0809
11625TIP3    H256291   0.100   4.422   3.750  0.0356  1.3166  1.5906
11626TIP3   OH256292   0.136   1.843   3.739  0.6052 -0.4900  0.2662
11626TIP3    H156293   0.047   1.869   3.763  0.4304 -1.5938  0.8654
11626TIP3    H256294   0.154   1.892   3.659 -0.3765  0.0792  0.3723
11627TIP3   OH256295   1.264   0.827  15.219  0.6074  0.8645  0.5177
11627TIP3    H156296   1.196   0.874  15.268  1.0040  1.6077  0.3715
11627TIP3    H256297   1.337   0.889  15.214  1.0689  0.2991  0.1448
11628TIP3   OH256298   1.651   3.488   5.417 -0.4987 -0.0018  0.2986
11628TIP3    H156299   1.624   3.518   5.503  0.9974 -0.2479  0.8888
11628TIP3    H256300   1.684   3.399   5.432 -0.1372 -0.0124 -0.5025
11629TIP3   OH256301   5.072   0.515  12.785  0.3853  0.8169  0.7503
11629TIP3    H156302   5.004   0.455  12.754  0.7582  0.6564  0.2246
11629TIP3    H256303   5.136   0.517  12.714 -0.0233  2.4831  0.4091
11630TIP3   OH256304   3.637   1.141  16.396 -0.0849  0.3328  0.7002
11630TIP3    H156305   3.671   1.226  16.368  1.0286 -0.5254 -0.7224
11630TIP3    H256306   3.555   1.131  16.348  0.8538 -0.2829 -0.8611
11631TIP3   OH256307   5.669   1.800  11.851  0.1450 -0.3415  0.0602
11631TIP3    H156308   5.722   1.817  11.773  0.2952  0.2869  0.2868
11631TIP3    H256309   5.733   1.780  11.919  0.1054  0.3940  0.3278
11632TIP3   OH256310   6.103   2.594   1.846  0.5875  0.1932 -0.1556
11632TIP3    H156311   6.047   2.663   1.883  0.9602  0.3720  0.0838
11632TIP3    H256312   6.173   2.642   1.800  1.0437 -0.0155  0.3080
11633TIP3   OH256313   0.210   2.116  15.018 -0.8739 -0.3105 -0.3128
11633TIP3    H156314   0.165   2.076  15.092 -2.5013  0.1141 -1.0263
11633TIP3    H256315   0.140   2.152  14.964  0.3269  0.1934 -1.5984
11634TIP3   OH256316   0.727   0.551   1.793 -0.1664  0.0735  0.2984
11634TIP3    H156317   0.732   0.575   1.700  1.6399 -0.0243  0.3386
11634TIP3    H256318   0.677   0.621   1.833  0.4989  1.0192 -0.4809
11635TIP3   OH256319   2.050   4.615  13.601  0.8526  0.6858  0.7193
11635TIP3    H156320   2.095   4.661  13.531 -0.5876 -0.3467 -0.9907
11635TIP3    H256321   2.064   4.522  13.582 -1.3924  0.3331  0.4268
11636TIP3   OH256322   5.814   1.409   3.815  0.6011 -0.1667  0.5507
11636TIP3    H156323   5.903   1.444   3.813  1.8945 -3.0991  1.7803
11636TIP3    H256324   5.825   1.315   3.826 -2.6592 -0.9084 -1.2156
11637TIP3   OH256325   0.368   4.814  13.393 -0.6389  0.1539 -0.0113
11637TIP3    H156326   0.411   4.749  13.338 -0.9546  0.4310 -0.5992
11637TIP3    H256327   0.360   4.891  13.337 -1.2181  0.3522  0.3358
11638TIP3   OH256328   0.078   4.459   2.935  0.0174  0.2659  0.1184
11638TIP3    H156329   0.106   4.534   2.987 -0.4410  0.3008  0.3236
11638TIP3    H256330   0.151   4.442   2.876  0.4542  0.3700  0.6159
11639TIP3   OH256331   3.510   2.711   6.778 -0.6946 -0.2850  0.0222
11639TIP3    H156332   3.481   2.793   6.737 -0.4057 -0.7344 -1.1241
11639TIP3    H256333   3.604   2.722   6.791 -0.7241 -0.2818  0.2307
11640TIP3   OH256334   5.273   4.037   6.190  0.3213  0.2325 -0.3115
11640TIP3    H156335   5.266   3.963   6.250 -0.2962 -1.1347 -1.9879
11640TIP3    H256336   5.225   4.107   6.233  0.4504 -0.4956  1.0789
11641TIP3   OH256337   4.330   5.847  16.814  0.0647 -0.3242 -0.7813
11641TIP3    H156338   4.367   5.806  16.892  3.4894  0.8467 -1.5751
11641TIP3    H256339   4.300   5.933  16.845 -0.2775 -0.5665 -0.4346
11642TIP3   OH256340   1.818   3.768   2.530 -0.2436  0.4487  0.2327
11642TIP3    H156341   1.727   3.743   2.543  0.3239 -1.1083  1.6909
11642TIP3    H256342   1.853   3.703   2.469 -0.1677  1.2240 -0.5678
11643TIP3   OH256343   0.753   6.073  11.884  0.0899  0.2060  0.4657
11643TIP3    H156344   0.816   6.045  11.817 -1.1207  1.3812 -1.2857
11643TIP3    H256345   0.708   5.993  11.911  0.2907 -0.2441 -0.4937
11644TIP3   OH256346   6.491   4.636  16.708  0.0021  0.1646 -0.0879
11644TIP3    H156347   6.428   4.588  16.654 -0.0946 -1.1572  1.1289
11644TIP3    H256348   6.517   4.710  16.654 -0.0181 -1.1269 -1.9721
11645TIP3   OH256349   0.179   0.881   2.503  0.4635 -0.3962 -0.5836
11645TIP3    H156350   0.178   0.905   2.596  0.6396  0.3570 -0.7704
11645TIP3    H256351   0.152   0.961   2.457 -0.1244 -0.9111 -1.1534
11646TIP3   OH256352   3.900   4.350  12.708  0.4280  0.3285 -0.0480
11646TIP3    H156353   3.864   4.324  12.623  0.5234  0.1067 -0.0209
11646TIP3    H256354   3.947   4.273  12.739 -0.0995  0.2053  0.4783
11647TIP3   OH256355   4.067   0.046  14.612  0.4843 -0.3808  0.2855
11647TIP3    H156356   3.996   0.017  14.670  1.0361 -1.0520  0.6335
11647TIP3    H256357   4.131   0.086  14.671  0.0610  0.9495 -0.1083
11648TIP3   OH256358   2.543   1.149   3.261  0.7173  0.1703  0.2090
11648TIP3    H156359   2.497   1.097   3.326  0.0699 -1.4778 -1.4834
11648TIP3    H256360   2.619   1.184   3.308  0.2578 -0.8980  1.8428
11649TIP3   OH256361   5.708   3.894  15.941  0.0893 -0.2318 -0.0649
11649TIP3    H156362   5.772   3.964  15.949  2.2235 -2.1660  0.7464
11649TIP3    H256363   5.760   3.815  15.925 -2.1140 -1.8527  0.3129
11650TIP3   OH256364   0.481   0.805  11.987 -0.2780  0.3660  0.4822
11650TIP3    H156365   0.478   0.900  11.999 -0.1620  0.6543 -1.4050
11650TIP3    H256366   0.435   0.790  11.905  2.9594 -0.7695 -1.3068
11651TIP3   OH256367   1.351   6.298  11.816 -0.2489 -0.0803  0.9559
11651TIP3    H156368   1.273   6.242  11.809 -1.1118  1.2385 -0.6428
11651TIP3    H256369   1.423   6.237  11.829 -1.3329 -1.4695  0.6909
11652TIP3   OH256370   2.294   0.129   3.344  0.1271  0.2206 -0.0449
11652TIP3    H156371   2.315   0.120   3.251 -2.4160 -1.3417 -0.5820
11652TIP3    H256372   2.367   0.087   3.389 -0.6743 -3.3674 -1.6642
11653TIP3   OH256373   4.372   1.467  12.703 -0.9975 -0.0197  0.1797
11653TIP3    H156374   4.362   1.407  12.629  0.9573 -0.4104  0.1769
11653TIP3    H256375   4.376   1.554  12.664 -0.2498 -0.2012 -0.1608
11654TIP3   OH256376   2.512   2.691   2.117  0.2910  0.1726 -0.0766
11654TIP3    H156377   2.524   2.630   2.043 -1.9710  0.0796 -0.4413
11654TIP3    H256378   2.526   2.778   2.079 -0.5521  0.1062 -0.5550
11655TIP3   OH256379   2.202   5.034   2.779  0.0109  0.5087  0.0944
11655TIP3    H156380   2.281   5.016   2.829 -0.3022 -0.1712  0.3522
11655TIP3    H256381   2.222   5.006   2.690 -0.5543 -1.4262  0.5364
11656TIP3   OH256382   0.415   1.477  12.354 -0.4423 -0.0556 -0.2693
11656TIP3    H156383   0.353   1.548  12.371 -1.3468 -0.7189 -0.6515
11656TIP3    H256384   0.414   1.425  12.435  0.3358  0.4540  0.0663
11657TIP3   OH256385   6.189   3.953   6.661 -0.5074  0.0255  0.3928
11657TIP3    H156386   6.253   3.956   6.590  0.5456  0.1226  1.3149
11657TIP3    H256387   6.108   3.985   6.622 -0.1121 -0.5231 -0.9213
11658TIP3   OH256388   2.058   2.610  15.425 -0.3451 -0.0987 -0.6346
11658TIP3    H156389   2.106   2.693  15.423 -2.4192  1.1594 -2.4965
11658TIP3    H256390   2.093   2.559  15.352  0.9870 -0.9884  0.5587
11659TIP3   OH256391   4.348   2.830   0.908  0.1140 -0.0435  0.0311
11659TIP3    H156392   4.314   2.798   0.825  1.4244  0.6905 -0.8268
11659TIP3    H256393   4.436   2.792   0.914 -0.6391 -1.6778  2.0537
11660TIP3   OH256394   2.455   0.189  11.730  0.9589 -0.4747 -0.0963
11660TIP3    H156395   2.526   0.144  11.775  0.7290 -0.8906 -0.1376
11660TIP3    H256396   2.465   0.281  11.754  0.7433 -0.7081  0.9345
11661TIP3   OH256397   3.111   1.470   4.619  0.6768  0.0831  0.4419
11661TIP3    H156398   3.152   1.462   4.705  1.3361  0.1906  0.1372
11661TIP3    H256399   3.171   1.524   4.568  1.5032 -1.9128 -0.8402
11662TIP3   OH256400   6.291   5.682  17.001  0.3588  0.2080 -0.6057
11662TIP3    H156401   6.365   5.701  17.058  0.7633  2.0252 -1.6684
11662TIP3    H256402   6.215   5.685  17.059  0.8970  0.4948  0.1026
11663TIP3   OH256403   5.567   0.993  17.299 -0.3233  0.1114 -0.1564
11663TIP3    H156404   5.617   1.071  17.321 -0.6965  0.3295 -0.0643
11663TIP3    H256405   5.548   1.002  17.206 -1.3864  0.7384  0.0994
11664TIP3   OH256406   0.999   5.468  12.109 -0.2149 -0.5556 -0.1892
11664TIP3    H156407   1.045   5.394  12.071 -0.6018 -0.8843 -0.0267
11664TIP3    H256408   0.906   5.450  12.091 -0.2542  0.3330 -0.9353
11665TIP3   OH256409   6.743   4.921   4.832 -0.4630 -0.3982  0.3306
11665TIP3    H156410   6.803   4.925   4.906  0.3220  0.7342 -0.3276
11665TIP3    H256411   6.683   4.995   4.846 -0.0540  0.0775 -0.3513
11666TIP3   OH256412   2.354   6.025   0.885  0.1395 -0.2414 -0.1335
11666TIP3    H156413   2.317   6.106   0.922 -0.2251 -0.9486  1.1030
11666TIP3    H256414   2.408   6.055   0.812 -0.4517  1.0725 -0.0701
11667TIP3   OH256415   5.719   2.503  13.646 -0.2110  0.0147 -0.1997
11667TIP3    H156416   5.753   2.414  13.655 -0.3623  0.0707  1.1453
11667TIP3    H256417   5.790   2.552  13.605  0.5746 -0.3186  0.7300
11668TIP3   OH256418   4.358   1.291   5.922  0.4493 -0.3291 -0.3602
11668TIP3    H156419   4.289   1.330   5.868  0.6822  0.1377 -0.3235
11668TIP3    H256420   4.312   1.232   5.981  0.1832 -0.8000 -1.0310
11669TIP3   OH256421   6.069   5.337   4.508  0.0006 -0.1211  0.1534
11669TIP3    H156422   6.009   5.353   4.435 -0.2690 -0.8303  0.2097
11669TIP3    H256423   6.026   5.269   4.560  1.2172 -1.2711 -0.2612
11670TIP3   OH256424   6.456   3.387  14.229  0.5654  0.0525  0.1046
11670TIP3    H156425   6.534   3.345  14.193  1.1121 -0.3401  1.6794
11670TIP3    H256426   6.480   3.480  14.235  1.3889 -0.2246  1.6659
11671TIP3   OH256427   3.253   3.977  14.082  0.4318  0.3658 -0.0582
11671TIP3    H156428   3.224   4.031  14.155 -0.1147 -0.7597  0.5880
11671TIP3    H256429   3.183   3.986  14.017 -0.6322 -1.0297  0.8287
11672TIP3   OH256430   5.708   4.408  12.862  0.3962 -0.0323  0.0411
11672TIP3    H156431   5.750   4.489  12.892 -2.5245  1.6669 -0.1259
11672TIP3    H256432   5.721   4.347  12.935  1.1887  1.1346  0.9184
11673TIP3   OH256433   2.391   1.846  15.174 -0.1728 -1.3514 -0.5983
11673TIP3    H156434   2.469   1.861  15.120  1.0401  0.2473  1.4586
11673TIP3    H256435   2.404   1.757  15.208  0.7102 -1.1642 -0.3986
11674TIP3   OH256436   1.957   4.721   0.495 -0.4500  0.3332 -0.1109
11674TIP3    H156437   2.012   4.785   0.450  0.4022 -0.2296  0.1088
11674TIP3    H256438   1.992   4.636   0.468 -2.0947 -0.0676 -1.0529
11675TIP3   OH256439   3.038   3.533  10.418  0.4202  0.4154 -1.1207
11675TIP3    H156440   3.080   3.605  10.372  0.3951  0.6796 -0.7351
11675TIP3    H256441   3.022   3.567  10.506 -1.0177  0.4909 -1.3859
11676TIP3   OH256442   6.060   0.730  14.907  0.1082 -0.3784 -0.3161
11676TIP3    H156443   6.048   0.787  14.831  0.2406  0.0125 -0.0472
11676TIP3    H256444   6.087   0.646  14.870 -0.2713 -0.3191 -0.7261
11677TIP3   OH256445   2.334   4.757   4.986 -0.6868  0.1119  0.4704
11677TIP3    H156446   2.357   4.842   4.948 -2.4863  0.2300 -0.4289
11677TIP3    H256447   2.374   4.693   4.927 -1.7030  0.3262 -0.4887
11678TIP3   OH256448   5.270   6.639   1.481  0.0373  0.2801  0.0943
11678TIP3    H156449   5.272   6.543   1.476 -2.8268  0.0581  1.2668
11678TIP3    H256450   5.311   6.659   1.565 -1.2243 -0.1246  0.8337
11679TIP3   OH256451   1.855   3.031   2.814  0.1638 -0.5535 -0.1828
11679TIP3    H156452   1.837   3.042   2.721  1.3082  1.3165 -0.2285
11679TIP3    H256453   1.937   2.980   2.817  1.4361  1.3795 -0.3194
11680TIP3   OH256454   1.035   0.905  12.362 -0.2531  0.3082  0.6526
11680TIP3    H156455   1.124   0.907  12.398 -0.3806  0.4059  0.9722
11680TIP3    H256456   1.047   0.886  12.269  0.1488  0.9938  0.5544
11681TIP3   OH256457   6.340   2.594  16.007  0.0304 -0.7611  0.9130
11681TIP3    H156458   6.291   2.577  15.927  0.1580  2.1312  0.1068
11681TIP3    H256459   6.418   2.540  16.000  0.3577 -0.0956 -1.2778
11682TIP3   OH256460   4.180   3.527   5.718 -0.1578  0.1871  0.2529
11682TIP3    H156461   4.118   3.597   5.700 -0.8797 -0.6119 -0.4623
11682TIP3    H256462   4.183   3.476   5.636  1.4583  0.2192  0.2623
11683TIP3   OH256463   0.359   6.756  11.038  0.2424 -0.5545 -0.2356
11683TIP3    H156464   0.387   6.797  11.120 -0.8811 -2.0576  0.9678
11683TIP3    H256465   0.408   6.803  10.970 -0.7637  2.6168  1.0003
11684TIP3   OH256466   1.284   5.267  12.310  0.1311 -0.4145  0.2011
11684TIP3    H156467   1.211   5.251  12.250  0.5965 -2.3295  0.0961
11684TIP3    H256468   1.259   5.220  12.390  0.7464 -0.1251  0.5692
11685TIP3   OH256469   5.225   5.681   1.660 -0.1488  0.2546  0.0033
11685TIP3    H156470   5.198   5.772   1.676 -1.8164 -0.2257  0.1401
11685TIP3    H256471   5.299   5.689   1.600 -0.1561  1.7104  0.1377
11686TIP3   OH256472   4.811   2.483  14.786 -0.6347 -0.0423  0.2989
11686TIP3    H156473   4.831   2.546  14.855 -2.0978 -0.2120  0.9120
11686TIP3    H256474   4.755   2.418  14.828  0.2548 -1.3841 -0.5033
11687TIP3   OH256475   2.095   4.535   0.819  0.1100  0.6528  0.7915
11687TIP3    H156476   2.006   4.536   0.855 -0.8168 -3.0258 -0.9645
11687TIP3    H256477   2.152   4.536   0.896 -1.4705  1.4276  2.0088
11688TIP3   OH256478   6.127   5.102   0.719  0.5757  0.4243  0.1112
11688TIP3    H156479   6.193   5.113   0.652 -0.3348  2.7914 -0.4718
11688TIP3    H256480   6.140   5.175   0.779 -0.6596  0.1941  0.7050
11689TIP3   OH256481   2.666   4.472  11.301  0.1274  0.5029 -0.2033
11689TIP3    H156482   2.610   4.421  11.242  0.8545  0.8014 -1.1788
11689TIP3    H256483   2.613   4.484  11.380 -0.0216 -1.8297  0.1067
11690TIP3   OH256484   3.814   1.054   3.355 -0.0582 -0.1482 -0.7383
11690TIP3    H156485   3.803   0.959   3.350 -1.1496 -0.0483 -0.5916
11690TIP3    H256486   3.895   1.066   3.405 -1.5999 -1.0196  2.2123
11691TIP3   OH256487   4.014   2.386  14.155  0.1801 -0.4169  0.3736
11691TIP3    H156488   4.092   2.331  14.162 -0.5128 -1.6429 -1.0332
11691TIP3    H256489   4.049   2.473  14.137  1.2415 -0.9767 -0.4385
11692TIP3   OH256490   1.275   3.383   3.530 -0.2115 -0.5725 -0.2417
11692TIP3    H156491   1.209   3.350   3.470 -1.5371 -0.0418  0.8693
11692TIP3    H256492   1.233   3.379   3.617  0.9869  0.3396  0.4151
11693TIP3   OH256493   3.046   1.461   3.093 -0.7876 -0.1252  0.1865
11693TIP3    H156494   2.986   1.388   3.111 -0.5727 -0.3131  0.1478
11693TIP3    H256495   2.991   1.528   3.053 -1.2151  0.1876  1.2760
11694TIP3   OH256496   5.925   0.656  12.521 -0.2597  0.1841 -0.2635
11694TIP3    H156497   5.968   0.613  12.595  2.3212  3.2982  0.2110
11694TIP3    H256498   5.841   0.687  12.557 -1.9992 -3.6588 -0.4991
11695TIP3   OH256499   6.595   5.569   4.073  0.1345  0.3829  0.2173
11695TIP3    H156500   6.659   5.530   4.013 -0.0258 -0.1362  0.3703
11695TIP3    H256501   6.514   5.521   4.053 -0.4297  1.6173 -0.5836
11696TIP3   OH256502   1.489   6.534   6.259 -0.0556  0.0834  0.6406
11696TIP3    H156503   1.429   6.480   6.311 -0.6043  0.6410  0.6005
11696TIP3    H256504   1.502   6.483   6.179  0.8608 -0.8194  1.3337
11697TIP3   OH256505   1.556   2.127  13.120  0.2596 -0.5714 -0.4224
11697TIP3    H156506   1.624   2.163  13.177  0.2122  0.4432 -0.9709
11697TIP3    H256507   1.474   2.158  13.158  0.2505  0.6178 -1.3279
11698TIP3   OH256508   5.870   2.027  14.717 -0.5147 -0.6168 -0.3493
11698TIP3    H156509   5.887   2.053  14.808  1.0103 -2.6254  0.0019
11698TIP3    H256510   5.775   2.020  14.712 -0.6644  0.0295  0.9221
11699TIP3   OH256511   2.515   5.643  12.535 -0.3570 -0.0608  0.3326
11699TIP3    H156512   2.455   5.644  12.460 -0.1367 -0.2839  0.1539
11699TIP3    H256513   2.593   5.598  12.503 -0.4892 -0.6952  0.8783
11700TIP3   OH256514   5.367   0.665  15.820 -0.1751 -0.7156 -0.2570
11700TIP3    H156515   5.325   0.717  15.889  1.9000  0.6544  0.0402
11700TIP3    H256516   5.312   0.586  15.813 -1.1438 -0.3292  2.0938
11701TIP3   OH256517   6.296   5.387  15.447 -0.3431 -0.3040 -0.2207
11701TIP3    H156518   6.334   5.426  15.526 -0.4821 -1.5350  0.4728
11701TIP3    H256519   6.201   5.387  15.463 -0.3031 -1.5489  0.0997
11702TIP3   OH256520   5.031   3.106   2.609 -0.1234  0.4675 -0.2191
11702TIP3    H156521   5.070   3.042   2.550  0.2195  1.2039 -0.8130
11702TIP3    H256522   5.005   3.056   2.686  0.3204 -0.3423 -0.5884
11703TIP3   OH256523   3.023   0.740  17.089 -0.3476 -0.5115 -0.3672
11703TIP3    H156524   3.106   0.753  17.044  0.0125  0.1830  0.4694
11703TIP3    H256525   2.973   0.821  17.072 -0.3876 -0.4361  0.0923
11704TIP3   OH256526   3.908   3.672   2.636 -0.0681 -0.2392 -0.4043
11704TIP3    H156527   3.939   3.704   2.552  1.1482  0.0862  0.1557
11704TIP3    H256528   3.826   3.720   2.651  0.0569  0.1967 -1.0757
11705TIP3   OH256529   3.492   6.369   0.466  0.0124  0.1685 -0.1207
11705TIP3    H156530   3.489   6.373   0.371  3.3026 -0.6970 -0.3586
11705TIP3    H256531   3.470   6.278   0.487 -0.6283  0.3379 -0.0278
11706TIP3   OH256532   4.367   2.507  15.293 -0.1799 -0.5348  0.3337
11706TIP3    H156533   4.358   2.425  15.243 -1.3728 -0.6912  0.7657
11706TIP3    H256534   4.291   2.507  15.351  0.5648  0.2194  1.3209
11707TIP3   OH256535   3.609   1.171  14.243 -0.8813  0.2535 -0.3561
11707TIP3    H156536   3.521   1.134  14.247 -0.3341 -1.0436  0.3912
11707TIP3    H256537   3.595   1.265  14.246 -2.2170  0.0616  0.8503
11708TIP3   OH256538   1.321   3.860   2.186 -0.2240 -0.1103 -0.6975
11708TIP3    H156539   1.288   3.941   2.148  1.6370  0.8425 -0.4219
11708TIP3    H256540   1.385   3.828   2.122 -0.7907 -1.2771 -0.7130
11709TIP3   OH256541   4.050   2.299   1.442 -0.4297 -0.0319 -0.3417
11709TIP3    H156542   3.983   2.233   1.424  1.5128 -2.5379  1.0044
11709TIP3    H256543   4.005   2.365   1.494 -2.0139 -1.2566 -0.0756
11710TIP3   OH256544   0.490   5.393   0.401  0.2372 -0.1393  0.2610
11710TIP3    H156545   0.442   5.441   0.333  0.0976  1.8783  1.7060
11710TIP3    H256546   0.514   5.459   0.465  2.0355 -1.6748  1.2725
11711TIP3   OH256547   0.581   3.564  14.342 -0.1451  0.2419 -0.3777
11711TIP3    H156548   0.645   3.494  14.344 -1.1763 -0.7638 -1.0859
11711TIP3    H256549   0.496   3.519  14.339 -0.8387  1.5139 -0.6961
11712TIP3   OH256550   5.372   4.478   3.718  0.2436  0.8630 -0.0610
11712TIP3    H156551   5.416   4.416   3.660 -1.8120  0.4663 -1.3048
11712TIP3    H256552   5.338   4.424   3.789  2.1864  1.2536  1.2236
11713TIP3   OH256553   1.119   0.000   0.344 -0.6655 -0.0014 -0.4212
11713TIP3    H156554   1.095  -0.076   0.292 -1.8273  0.5499 -0.7300
11713TIP3    H256555   1.192   0.039   0.297 -1.4921  0.3040 -1.4895
11714TIP3   OH256556   6.414   3.728   2.227  0.3672  0.3335  0.4244
11714TIP3    H156557   6.401   3.686   2.312  0.8167 -0.2626  0.2014
11714TIP3    H256558   6.505   3.711   2.205 -0.1866 -1.0220 -0.9713
11715TIP3   OH256559   3.261   5.080  13.857 -0.3740 -1.3027 -0.5542
11715TIP3    H156560   3.336   5.102  13.913 -2.2848  1.6181  1.1153
11715TIP3    H256561   3.194   5.050  13.918 -2.3144  1.3626 -1.2302
11716TIP3   OH256562   6.687   5.139  14.889 -0.1188 -0.2976 -0.5689
11716TIP3    H156563   6.679   5.136  14.794  0.5614 -2.2552 -0.6226
11716TIP3    H256564   6.609   5.094  14.922  1.0006 -2.2480 -0.3793
11717TIP3   OH256565   3.277   5.100   4.935  0.0108 -0.1926 -0.2271
11717TIP3    H156566   3.308   5.010   4.949 -0.9682 -0.5204 -0.0874
11717TIP3    H256567   3.245   5.128   5.021 -3.4568 -1.2085 -1.0400
11718TIP3   OH256568   2.275   4.029   0.323  0.2455  0.3797  0.2642
11718TIP3    H156569   2.287   4.031   0.418 -0.7857 -1.8598  0.5124
11718TIP3    H256570   2.348   3.975   0.290 -0.4860 -0.5008  0.0426
11719TIP3   OH256571   1.729   5.207   2.630  0.1953 -0.1205  0.1726
11719TIP3    H156572   1.647   5.249   2.604  0.6200  0.6200 -0.0099
11719TIP3    H256573   1.788   5.223   2.556  0.3308 -1.1722  0.0397
11720TIP3   OH256574   1.134   6.454   3.954  0.4416 -0.5224  0.4878
11720TIP3    H156575   1.043   6.436   3.931  0.9619 -1.6553 -0.8032
11720TIP3    H256576   1.149   6.544   3.925  0.7325 -1.4911 -2.8440
11721TIP3   OH256577   5.354   0.365  12.414 -0.4708 -0.0788 -0.4814
11721TIP3    H156578   5.356   0.292  12.475  0.9681  0.0384 -0.3477
11721TIP3    H256579   5.290   0.426  12.451 -1.7607 -1.2808 -0.6468
11722TIP3   OH256580   0.472   5.470  14.133  0.2198  0.2534  0.1915
11722TIP3    H156581   0.474   5.566  14.139  1.7873  0.1872  1.5092
11722TIP3    H256582   0.394   5.451  14.081 -1.7040  2.1310  2.1627
11723TIP3   OH256583   0.812   3.501  13.508 -0.4399 -0.1186 -0.0645
11723TIP3    H156584   0.888   3.454  13.543  0.1102  0.6066 -0.2656
11723TIP3    H256585   0.819   3.492  13.413 -1.9539 -2.1195 -0.0582
11724TIP3   OH256586   1.061   1.658   2.395 -0.1409  0.5471  0.3402
11724TIP3    H156587   0.988   1.681   2.453 -0.7401  1.4356 -0.7255
11724TIP3    H256588   1.023   1.656   2.308 -0.1086 -4.4534  0.1607
11725TIP3   OH256589   3.979   3.778  16.429 -0.0714  0.3264 -0.4152
11725TIP3    H156590   3.972   3.716  16.358 -1.3892 -1.1811  0.9374
11725TIP3    H256591   4.072   3.781  16.451  0.2643  0.3801 -1.7733
11726TIP3   OH256592   4.928   3.929   5.080  0.2585 -0.4639  0.3951
11726TIP3    H156593   5.005   3.956   5.129  0.2658 -2.6520  1.6769
11726TIP3    H256594   4.860   3.992   5.106  0.5773 -0.8570  2.3282
11727TIP3   OH256595   2.231   4.681   0.638 -0.0062 -0.3233  0.3720
11727TIP3    H156596   2.311   4.645   0.677 -0.8310 -0.4112  2.0268
11727TIP3    H256597   2.160   4.648   0.692 -1.1030  0.5727 -0.4727
11728TIP3   OH256598   0.511   0.539   4.348  0.0885 -0.0525 -0.1084
11728TIP3    H156599   0.508   0.542   4.253  1.3014  2.7129 -0.1549
11728TIP3    H256600   0.588   0.484   4.368 -0.3287 -0.8597 -0.6947
11729TIP3   OH256601   2.214   5.100   3.182  0.4464 -0.4823 -0.0254
11729TIP3    H156602   2.142   5.043   3.157  0.1216  0.0617 -0.3406
11729TIP3    H256603   2.186   5.140   3.264  1.4536 -2.1630  1.2200
11730TIP3   OH256604   4.735   0.375  12.274 -0.3791 -0.5532  0.2617
11730TIP3    H156605   4.675   0.320  12.224 -0.6265  0.4050 -0.5304
11730TIP3    H256606   4.693   0.387  12.359 -2.4918  1.9589 -1.0184
11731TIP3   OH256607   0.453   3.430   0.097  0.3997 -0.4721 -0.6313
11731TIP3    H156608   0.466   3.522   0.116 -0.8589 -0.8183  2.5113
11731TIP3    H256609   0.516   3.384   0.154 -1.0991 -1.5694  0.2273
11732TIP3   OH256610   4.414   5.312   0.350  0.2857  0.1046 -0.8070
11732TIP3    H156611   4.333   5.313   0.400  0.2692  1.6178 -0.8168
11732TIP3    H256612   4.464   5.238   0.386 -0.4922  0.0412  0.1720
11733TIP3   OH256613   1.372   3.301  12.033 -0.5899  0.0130  0.3006
11733TIP3    H156614   1.329   3.262  12.109 -0.5668 -0.2393  0.1834
11733TIP3    H256615   1.460   3.323  12.063 -0.5893 -0.0641  0.3523
11734TIP3   OH256616   4.649   0.694  14.985 -0.0190 -0.2838 -0.1937
11734TIP3    H156617   4.726   0.638  14.977  0.0395 -0.0801 -1.2350
11734TIP3    H256618   4.649   0.747  14.906 -1.3808 -0.4827 -0.3629
11735TIP3   OH256619   0.550   2.973  14.656 -0.4918  0.6725  0.0871
11735TIP3    H156620   0.603   2.965  14.736  3.5712  0.1733 -2.3380
11735TIP3    H256621   0.517   2.885  14.640 -0.8991  0.6665  0.9120
11736TIP3   OH256622   1.167   0.055  14.794  0.3320  0.0853  0.0204
11736TIP3    H156623   1.189   0.148  14.798  0.3550  0.1671 -1.3273
11736TIP3    H256624   1.211   0.024  14.715  0.4315 -1.1035  0.5266
11737TIP3   OH256625   0.663   0.557   0.095 -0.1614  0.0396  0.7670
11737TIP3    H156626   0.690   0.566   0.004 -2.1573  0.2202  0.1357
11737TIP3    H256627   0.744   0.562   0.145  0.9569  0.1742 -0.9765
11738TIP3   OH256628   3.601   1.601  16.989  0.1393  0.2949  0.3350
11738TIP3    H156629   3.514   1.560  16.985  0.6794 -0.7902 -1.0466
11738TIP3    H256630   3.592   1.669  17.055 -1.4503 -0.5445  1.0492
11739TIP3   OH256631   1.588   5.674   0.640  0.7098 -0.4555 -0.0315
11739TIP3    H156632   1.526   5.654   0.570 -0.4411  1.0439  0.5139
11739TIP3    H256633   1.565   5.614   0.711  0.6682 -0.7190 -0.2656
11740TIP3   OH256634   6.533   0.992  16.612  0.3440 -0.3928 -0.0211
11740TIP3    H156635   6.496   0.927  16.553 -0.7244  0.6164 -0.5049
11740TIP3    H256636   6.558   0.942  16.690 -0.9687 -1.3117 -0.1436
11741TIP3   OH256637   1.598   0.135   4.819 -0.0159  0.2677  0.1563
11741TIP3    H156638   1.583   0.228   4.837  1.9734  0.6228  0.2720
11741TIP3    H256639   1.566   0.090   4.897 -1.2074  0.8201  0.0060
11742TIP3   OH256640   6.061   3.551   0.404  0.1434  0.5251 -0.3009
11742TIP3    H156641   6.009   3.471   0.399  0.8497  0.0593 -0.2752
11742TIP3    H256642   6.126   3.533   0.472  1.3112  0.5351 -1.4027
11743TIP3   OH256643   6.703   4.603   3.268 -0.1935 -0.0737 -0.7106
11743TIP3    H156644   6.659   4.610   3.183  0.9073  0.6405 -1.2391
11743TIP3    H256645   6.646   4.546   3.319 -1.6957  0.7355 -1.4000
11744TIP3   OH256646   6.186   3.989  13.575  0.2793  0.5338 -0.3882
11744TIP3    H156647   6.214   4.044  13.502  0.1810 -1.0724 -1.6882
11744TIP3    H256648   6.098   3.959  13.550  0.8949 -1.3615 -0.4276
11745TIP3   OH256649   4.819   6.393  11.631  0.1868 -0.0852 -0.3269
11745TIP3    H156650   4.891   6.357  11.682  1.3306  2.2634 -0.1868
11745TIP3    H256651   4.740   6.372  11.681  0.9928 -0.5430  0.7697
11746TIP3   OH256652   4.163   1.739  16.594 -0.4897 -0.1939  0.0263
11746TIP3    H156653   4.232   1.803  16.574  0.2786 -0.4878  1.5331
11746TIP3    H256654   4.198   1.690  16.668 -1.4745 -1.7517 -0.5112
11747TIP3   OH256655   4.012   5.385  12.244 -0.3755  0.6670  0.0489
11747TIP3    H156656   3.935   5.427  12.281 -0.9027 -0.4206  0.2268
11747TIP3    H256657   3.984   5.354  12.158 -0.5322 -0.8126  0.6034
11748TIP3   OH256658   0.564   4.728   2.475  0.5865 -0.0496 -0.1192
11748TIP3    H156659   0.603   4.675   2.405  1.7400  0.9417 -0.2564
11748TIP3    H256660   0.542   4.811   2.432  0.4825  0.2500  0.5091
11749TIP3   OH256661   2.204   2.475   0.502 -0.3269  0.2900  0.3391
11749TIP3    H156662   2.229   2.555   0.548 -1.0170 -0.1151  1.4434
11749TIP3    H256663   2.223   2.405   0.564 -0.0655 -0.3882 -0.4841
11750TIP3   OH256664   5.260   0.379   5.030  0.0399  0.1522  0.3449
11750TIP3    H156665   5.287   0.301   5.079 -0.1600 -0.0157  0.1866
11750TIP3    H256666   5.193   0.348   4.970 -0.3962  0.5394  0.6250
11751TIP3   OH256667   6.095   2.502   1.485  0.4731  0.2487 -0.1003
11751TIP3    H156668   6.153   2.486   1.559 -1.7521  0.1135  1.7187
11751TIP3    H256669   6.107   2.595   1.465  1.2789  0.2273  0.2660
11752TIP3   OH256670   4.851   4.768  17.172 -0.2515  0.1132 -0.7467
11752TIP3    H156671   4.792   4.700  17.205 -1.3628  1.4542  0.1536
11752TIP3    H256672   4.925   4.767  17.233 -0.7024  0.3313 -0.1948
11753TIP3   OH256673   0.020   1.524  16.962 -0.0326  0.0371 -0.2515
11753TIP3    H156674  -0.021   1.576  16.893  1.3629 -0.1258 -1.2642
11753TIP3    H256675   0.048   1.588  17.027 -1.0837  0.2276  0.0234
11754TIP3   OH256676   2.711   0.389  16.126 -0.9488  0.3289  0.6136
11754TIP3    H156677   2.665   0.353  16.051  0.2698 -0.6041  0.2991
11754TIP3    H256678   2.789   0.431  16.090 -0.9245  0.8542  1.2472
11755TIP3   OH256679   5.813   2.922   4.387 -0.9335  0.2276  0.1994
11755TIP3    H156680   5.826   2.827   4.394 -1.0280  0.2117  0.1574
11755TIP3    H256681   5.736   2.940   4.441 -0.3719  0.4104  0.9537
11756TIP3   OH256682   0.481   3.057   5.832 -0.3056  0.0656 -0.2598
11756TIP3    H156683   0.487   3.153   5.831  1.0864  0.0994  2.4243
11756TIP3    H256684   0.407   3.038   5.889 -1.1310 -0.5322 -1.4685
11757TIP3   OH256685   5.510   4.160   6.206  0.2355 -0.1224  0.0396
11757TIP3    H156686   5.430   4.108   6.211 -0.9554  1.5295 -0.8797
11757TIP3    H256687   5.483   4.248   6.235  1.7695  0.4101 -0.0595
11758TIP3   OH256688   6.501   6.516   2.282 -0.0460 -0.2503  0.5110
11758TIP3    H156689   6.473   6.425   2.293 -0.3814 -0.6844 -2.8054
11758TIP3    H256690   6.448   6.549   2.209  2.1726  1.6227 -0.3964
11759TIP3   OH256691   5.686   3.713  12.822 -0.1057  0.3421  0.9981
11759TIP3    H156692   5.762   3.705  12.879  0.8380  1.1729 -0.1077
11759TIP3    H256693   5.693   3.640  12.761  0.7501  1.3273 -0.1423
11760TIP3   OH256694   4.078   3.086  12.395  0.1647 -0.7644 -0.4068
11760TIP3    H156695   4.004   3.136  12.359 -0.9825 -0.7979  1.7647
11760TIP3    H256696   4.155   3.135  12.365 -0.8084  0.6279 -0.7915
11761TIP3   OH256697   5.304   3.055   0.462 -0.3461  0.1011 -0.0872
11761TIP3    H156698   5.271   3.133   0.507 -2.1062 -2.0450  2.6760
11761TIP3    H256699   5.238   3.036   0.397  0.2539  1.0339 -1.0021
11762TIP3   OH256700   4.866   2.367  17.154 -0.9143  0.2750  0.2216
11762TIP3    H156701   4.812   2.367  17.233 -1.9249 -1.6181 -0.4253
11762TIP3    H256702   4.928   2.295  17.167 -1.2884 -0.2507 -0.8265
11763TIP3   OH256703   0.576   3.021   2.189  0.2311  0.7969  0.1340
11763TIP3    H156704   0.671   3.019   2.191  0.2620  0.4462 -0.8971
11763TIP3    H256705   0.550   2.932   2.213  0.1199  1.1482  1.3818
11764TIP3   OH256706   3.104   2.100   6.311  0.1525  0.1446 -0.1028
11764TIP3    H156707   3.046   2.041   6.264 -0.9297  0.2739  1.0260
11764TIP3    H256708   3.067   2.187   6.297  0.6389  0.3433 -0.1758
11765TIP3   OH256709   4.381   1.872  16.260 -0.2605 -0.1857  0.1201
11765TIP3    H156710   4.353   1.944  16.204 -2.2996 -1.0225  0.0065
11765TIP3    H256711   4.354   1.898  16.348 -1.1266 -0.8468  0.0591
11766TIP3   OH256712   5.018   4.619  16.333  0.1570  0.1990  0.0164
11766TIP3    H156713   5.068   4.575  16.402  2.3246  3.1604  0.5230
11766TIP3    H256714   5.050   4.581  16.252  0.7478 -0.3084  0.4753
11767TIP3   OH256715   0.292   1.007  16.185 -0.2864 -0.3366  0.7412
11767TIP3    H156716   0.353   0.948  16.139 -0.8722 -1.3686  1.2348
11767TIP3    H256717   0.222   1.023  16.122  1.1438  2.0372 -0.3579
11768TIP3   OH256718   0.115   5.780   1.825 -0.4844  1.1704 -0.1577
11768TIP3    H156719   0.114   5.872   1.798  0.7597  1.0822 -0.5589
11768TIP3    H256720   0.166   5.736   1.757 -0.0533  0.3798  0.6586
11769TIP3   OH256721   0.874   6.727   2.518 -0.6476  0.1641  0.5736
11769TIP3    H156722   0.911   6.767   2.439  0.9670 -1.3265  0.4941
11769TIP3    H256723   0.880   6.795   2.585  2.3334  0.0741  0.5369
11770TIP3   OH256724   4.268   5.108  17.373 -0.5957  0.0400  0.2520
11770TIP3    H156725   4.195   5.052  17.399 -0.6551 -0.4728 -0.9470
11770TIP3    H256726   4.337   5.090  17.437 -1.3534  0.2002  1.1292
11771TIP3   OH256727   0.393   1.564  11.192 -0.1206  0.3848  0.1072
11771TIP3    H156728   0.325   1.619  11.154 -0.3503  1.7122  2.3370
11771TIP3    H256729   0.475   1.607  11.167 -0.1310 -0.1716 -0.9708
11772TIP3   OH256730   1.031   1.274   5.087  0.0111 -0.3609 -0.0573
11772TIP3    H156731   1.084   1.209   5.041  2.5117  0.3571  1.5913
11772TIP3    H256732   1.078   1.290   5.169 -1.9721  1.5285  0.8201
11773TIP3   OH256733   6.070   5.736  16.257 -0.4022 -0.0449  0.3810
11773TIP3    H156734   6.124   5.733  16.178 -1.3113 -1.7688 -0.2190
11773TIP3    H256735   5.980   5.747  16.225 -1.0426 -2.7687  0.9552
11774TIP3   OH256736   1.379   3.992  16.204  0.0066  0.6679  0.2291
11774TIP3    H156737   1.322   3.916  16.195 -3.5110  3.0498  0.4182
11774TIP3    H256738   1.345   4.039  16.280  1.3956  2.9014 -0.4248
11775TIP3   OH256739   3.912   6.701  11.769  0.5537  0.7843  0.0110
11775TIP3    H156740   3.903   6.734  11.679  1.0430  2.3777  0.5189
11775TIP3    H256741   3.830   6.726  11.811 -0.2503 -1.1437 -0.3073
11776TIP3   OH256742   6.580   0.309   3.064 -0.1498 -0.0177 -0.5520
11776TIP3    H156743   6.631   0.308   2.982  1.2173 -1.4110  0.2576
11776TIP3    H256744   6.536   0.224   3.066 -1.7180  0.7614 -0.7192
11777TIP3   OH256745   1.102   2.923  12.850 -0.3584  0.3567 -0.7002
11777TIP3    H156746   1.131   2.964  12.931  2.1027 -1.3004 -0.6532
11777TIP3    H256747   1.141   2.977  12.780 -0.0782  0.1418 -0.7113
11778TIP3   OH256748   4.819   0.044  13.286 -0.8725 -0.5589  0.1397
11778TIP3    H156749   4.859   0.072  13.367 -0.1984  0.7964 -0.6300
11778TIP3    H256750   4.738   0.095  13.280  0.3641  1.3878 -1.2699
11779TIP3   OH256751   2.965   1.054  15.267 -0.3155 -0.1218 -0.3823
11779TIP3    H156752   2.888   1.077  15.215  0.1271 -0.9573 -1.4215
11779TIP3    H256753   2.962   0.959  15.275  1.2034 -0.2985 -1.4191
11780TIP3   OH256754   2.308   1.662  14.547 -0.2826  0.0921 -0.1098
11780TIP3    H156755   2.305   1.620  14.461 -1.6446 -1.0348  0.4405
11780TIP3    H256756   2.281   1.752  14.530 -2.1033 -0.5141 -0.6837
11781TIP3   OH256757   1.235   4.074  15.452 -0.0903  0.2728  0.1158
11781TIP3    H156758   1.167   4.110  15.395  0.4033  0.4025 -0.4031
11781TIP3    H256759   1.280   4.151  15.486  1.6560  0.1905 -1.8320
11782TIP3   OH256760   5.100   2.968   1.842  0.6083 -0.2093  0.2798
11782TIP3    H156761   5.016   3.013   1.842  1.3611  1.2788  0.5340
11782TIP3    H256762   5.120   2.954   1.749  0.9647  1.2164  0.1198
11783TIP3   OH256763   3.308   6.160   3.606  0.3722 -0.1648  0.0961
11783TIP3    H156764   3.375   6.151   3.539  1.2518 -1.1398  1.0480
11783TIP3    H256765   3.336   6.236   3.658 -0.2399  0.5130 -0.5531
11784TIP3   OH256766   1.368   3.454  15.348  0.5804  0.6659 -0.1204
11784TIP3    H156767   1.358   3.528  15.408  0.2190 -0.1937  0.9111
11784TIP3    H256768   1.364   3.377  15.405 -1.6463 -0.2664 -1.4091
11785TIP3   OH256769   6.225   4.820   1.543 -0.1705  0.4207 -0.1012
11785TIP3    H156770   6.310   4.777   1.542 -0.7548 -0.8260  1.0479
11785TIP3    H256771   6.231   4.884   1.614 -0.9584 -1.4195  1.7195
11786TIP3   OH256772   3.152   2.403   1.495 -0.2152 -0.0796  0.2078
11786TIP3    H156773   3.061   2.377   1.486 -0.3658 -0.0924  1.5172
11786TIP3    H256774   3.172   2.451   1.415 -1.8531  1.3196  0.5832
11787TIP3   OH256775   3.550   3.780  12.410 -0.2438 -0.0247  0.4209
11787TIP3    H156776   3.497   3.775  12.490  1.7729  0.8220  1.8790
11787TIP3    H256777   3.578   3.871  12.405  1.8292 -0.6186  0.2540
11788TIP3   OH256778   0.815   4.316  10.763  0.0833 -0.2506 -0.8879
11788TIP3    H156779   0.753   4.389  10.774 -1.4432 -1.8749  2.7386
11788TIP3    H256780   0.775   4.261  10.696  1.3788  2.1594 -3.8696
11789TIP3   OH256781   2.870   5.324   5.314  0.0252  0.8321  0.3248
11789TIP3    H156782   2.930   5.362   5.379 -1.2397  0.5380  1.7251
11789TIP3    H256783   2.871   5.230   5.334 -0.2575  0.7181 -0.1932
11790TIP3   OH256784   2.814   4.550  11.612  0.0804 -0.4602 -0.0564
11790TIP3    H156785   2.738   4.492  11.621  0.4484 -0.8330  0.7404
11790TIP3    H256786   2.865   4.510  11.541  0.5932 -1.4341  0.8309
11791TIP3   OH256787   4.670   5.436   2.984  0.6423 -0.2173  0.4012
11791TIP3    H156788   4.616   5.458   2.907 -0.6574  0.7174  1.5187
11791TIP3    H256789   4.748   5.395   2.947 -0.2693 -0.4957 -1.3768
11792TIP3   OH256790   2.121   3.555  12.052 -1.0867  0.6905 -0.1229
11792TIP3    H156791   2.173   3.577  11.975  0.3590 -1.3804  0.2013
11792TIP3    H256792   2.178   3.574  12.127 -0.2507 -2.5806  0.2122
11793TIP3   OH256793   2.471   0.801   4.667 -0.2199 -0.9656 -0.0582
11793TIP3    H156794   2.414   0.793   4.590 -0.7890 -0.7185  0.3312
11793TIP3    H256795   2.524   0.879   4.650 -1.3736 -0.0451  0.4499
11794TIP3   OH256796   0.564   2.058   0.368 -0.2922  0.1304 -0.6625
11794TIP3    H156797   0.574   2.149   0.339  0.5944  0.3592  0.3061
11794TIP3    H256798   0.473   2.037   0.349 -0.7036  1.4609 -0.2515
11795TIP3   OH256799   4.674   1.640   3.270 -0.3231 -0.2171 -0.2380
11795TIP3    H156800   4.629   1.708   3.220  1.2496 -0.0402 -1.4799
11795TIP3    H256801   4.761   1.676   3.287  1.0438 -2.3543 -2.0890
11796TIP3   OH256802   5.076   0.976  14.605  0.3807  0.0768 -0.0576
11796TIP3    H156803   5.140   1.030  14.652 -1.3880  0.8956  1.5600
11796TIP3    H256804   5.019   1.039  14.561 -1.6912 -0.3450  1.8238
11797TIP3   OH256805   5.071   5.919  11.843  0.2589  0.3108 -0.1451
11797TIP3    H156806   4.995   5.971  11.819 -1.4942 -2.0094  0.0763
11797TIP3    H256807   5.087   5.940  11.935 -1.7358 -0.9736  0.5552
11798TIP3   OH256808   3.393   4.327   5.244  0.1699  0.2829 -0.8773
11798TIP3    H156809   3.416   4.272   5.320 -0.8942  1.4273  0.3152
11798TIP3    H256810   3.454   4.400   5.249  0.6059 -0.0223 -1.6016
11799TIP3   OH256811   0.384   5.853   2.265 -0.7522 -0.3068  0.4348
11799TIP3    H156812   0.475   5.854   2.235 -0.7055 -1.5057  0.4774
11799TIP3    H256813   0.385   5.904   2.346  0.2051 -1.4797  1.2155
11800TIP3   OH256814   5.097   2.124  14.739  0.5096 -0.3546 -0.4227
11800TIP3    H156815   5.023   2.180  14.759  0.7922 -0.1855  0.1867
11800TIP3    H256816   5.110   2.073  14.819 -0.0355 -1.6307 -1.1171
11801TIP3   OH256817   1.317   4.875   2.031 -0.1703 -0.0794  0.1038
11801TIP3    H156818   1.294   4.967   2.018  0.0694 -0.1737 -1.0365
11801TIP3    H256819   1.410   4.870   2.011 -0.2214 -0.6111 -0.0152
11802TIP3   OH256820   2.631   0.330  13.537  0.6303 -0.3272 -0.4065
11802TIP3    H156821   2.696   0.356  13.603 -0.5952 -0.0225  0.7230
11802TIP3    H256822   2.683   0.313  13.458  1.9829  0.8100  0.1885
11803TIP3   OH256823   3.995   2.832   0.192  0.9280 -0.3157  0.3070
11803TIP3    H156824   4.081   2.800   0.222  0.8147 -0.4914  0.4467
11803TIP3    H256825   3.933   2.767   0.225  0.8508 -0.8093 -0.7844
11804TIP3   OH256826   4.051   4.647   4.576 -0.5088  0.0664  0.0636
11804TIP3    H156827   4.010   4.705   4.512 -1.7524  0.9324  1.5812
11804TIP3    H256828   3.996   4.654   4.654  1.9424  0.5117  1.8733
11805TIP3   OH256829   2.696   0.771   4.826  0.4872 -0.0519 -0.6862
11805TIP3    H156830   2.612   0.778   4.780 -0.8053  0.1383  1.5328
11805TIP3    H256831   2.700   0.851   4.879  1.4697 -0.6467  0.1762
11806TIP3   OH256832   0.496   2.331   6.278  0.5597  0.4949  0.0695
11806TIP3    H156833   0.508   2.416   6.320  0.2121  0.6459 -0.1281
11806TIP3    H256834   0.431   2.286   6.332 -0.4096  0.9556 -0.6579
11807TIP3   OH256835   2.236   1.298  13.949  0.6879 -0.2875 -0.3408
11807TIP3    H156836   2.233   1.340  13.863  0.5748  3.0302  1.1197
11807TIP3    H256837   2.199   1.363  14.009 -1.6087 -3.4093  1.9680
11808TIP3   OH256838   3.512   3.221  15.099 -0.0580  1.2199 -0.1916
11808TIP3    H156839   3.479   3.309  15.080  0.9852  1.9073  1.0176
11808TIP3    H256840   3.595   3.236  15.144  2.2178 -0.4218 -3.4413
11809TIP3   OH256841   3.480   5.774  16.370 -0.2196  0.0019 -0.3725
11809TIP3    H156842   3.384   5.783  16.371 -0.4739 -1.7858 -2.1487
11809TIP3    H256843   3.498   5.701  16.430  0.1465  0.8843  0.6224
11810TIP3   OH256844   2.400   6.315   3.299 -0.1690  0.4205  0.0992
11810TIP3    H156845   2.341   6.326   3.224  0.1210  1.4886  0.0139
11810TIP3    H256846   2.417   6.404   3.329  1.5398  0.1527  0.0238
11811TIP3   OH256847   0.409   5.260   5.204  0.4398  0.2448 -0.2313
11811TIP3    H156848   0.448   5.178   5.174  0.0124 -0.6426  1.4855
11811TIP3    H256849   0.480   5.306   5.248 -0.0816 -0.9020  1.9791
11812TIP3   OH256850   4.900   2.614  12.538  0.2893 -0.0851 -0.0367
11812TIP3    H156851   4.809   2.626  12.565  0.0731 -1.6924  0.0518
11812TIP3    H256852   4.910   2.671  12.463 -0.1954  1.6233  1.1443
11813TIP3   OH256853   1.151   2.497  11.983  0.2663 -0.5206  0.1426
11813TIP3    H156854   1.116   2.501  12.072  0.8703  0.4677  0.3541
11813TIP3    H256855   1.099   2.560  11.933  1.1210  0.2958  0.2503
11814TIP3   OH256856   2.122   6.284  13.807 -1.1986  0.4829 -0.0225
11814TIP3    H156857   2.147   6.262  13.896 -1.6865 -2.0013 -0.4424
11814TIP3    H256858   2.044   6.230  13.790  0.5773 -1.4039 -2.8927
11815TIP3   OH256859   3.304   5.022  16.909 -0.3838  0.7842  0.1767
11815TIP3    H156860   3.330   5.028  16.817 -0.8810  1.9191  0.0931
11815TIP3    H256861   3.383   5.043  16.959  0.1359 -0.7318  0.0595
11816TIP3   OH256862   4.668   6.263   1.432 -0.2545 -0.0112 -0.5537
11816TIP3    H156863   4.639   6.184   1.387 -1.4555  0.2795 -0.3081
11816TIP3    H256864   4.602   6.329   1.410 -0.1198  0.5024  0.5251
11817TIP3   OH256865   3.085   0.956   3.449  0.4763 -0.3150 -0.2194
11817TIP3    H156866   3.125   0.879   3.410  0.6256  0.0413 -0.7915
11817TIP3    H256867   3.004   0.969   3.400  1.2255  0.8068 -1.2207
11818TIP3   OH256868   3.660   2.411  12.078  0.3199  0.1634 -0.0163
11818TIP3    H156869   3.658   2.507  12.070 -2.1407  0.3752  2.0163
11818TIP3    H256870   3.593   2.381  12.017  0.4239 -0.1903  0.0438
11819TIP3   OH256871   6.740   0.399   2.832  0.2101  0.3102 -0.0162
11819TIP3    H156872   6.658   0.445   2.817 -1.5002 -2.3716  0.3637
11819TIP3    H256873   6.770   0.375   2.744 -0.1437  0.1312 -0.0902
11820TIP3   OH256874   2.016   1.821   4.122  0.2047  0.5230  0.1184
11820TIP3    H156875   1.939   1.873   4.099  1.1518  2.1103  0.4325
11820TIP3    H256876   2.019   1.753   4.055 -0.3124  1.6815 -1.1259
11821TIP3   OH256877   2.778   4.600   0.635  0.4932 -0.4258  0.2875
11821TIP3    H156878   2.729   4.621   0.556 -1.3667 -0.2771  1.4194
11821TIP3    H256879   2.751   4.667   0.698  2.9660  0.2994  0.7016
11822TIP3   OH256880   4.181   4.677  15.745 -0.3199  0.0229  0.1997
11822TIP3    H156881   4.087   4.664  15.745 -0.4392  0.1261  3.2425
11822TIP3    H256882   4.194   4.766  15.713 -1.2502  0.0261 -0.1735
11823TIP3   OH256883   4.685   1.648  16.884 -0.3367  0.0772  0.0745
11823TIP3    H156884   4.779   1.643  16.900 -0.4213 -0.1294  0.5517
11823TIP3    H256885   4.650   1.570  16.927 -1.1166  1.8796  2.9928
11824TIP3   OH256886   0.752   0.393  15.811 -0.0332 -0.5736 -0.1687
11824TIP3    H156887   0.811   0.358  15.744 -0.4161 -0.6291 -0.4831
11824TIP3    H256888   0.809   0.415  15.885  0.8029  1.9470 -1.4372
11825TIP3   OH256889   1.108   3.054  12.474 -0.2959  0.5344 -0.9508
11825TIP3    H156890   1.119   3.145  12.503  0.8427  0.2861 -0.5468
11825TIP3    H256891   1.155   3.003  12.540 -0.5325 -0.3096 -1.4303
11826TIP3   OH256892   3.393   3.065   3.205 -0.5332  0.0256 -0.1673
11826TIP3    H156893   3.314   3.073   3.151 -1.3708  1.5020  1.1875
11826TIP3    H256894   3.465   3.081   3.144 -1.3472  0.0860 -1.1586
11827TIP3   OH256895   2.496   4.053  15.406 -0.0067  0.0448  0.1251
11827TIP3    H156896   2.447   4.077  15.484 -0.2902 -0.4466  0.0992
11827TIP3    H256897   2.433   4.058  15.335 -0.0091 -0.5060  0.0792
11828TIP3   OH256898   2.672   6.343  16.319 -0.1446 -0.1152 -0.1800
11828TIP3    H156899   2.639   6.286  16.388  1.6500  0.3645  1.1507
11828TIP3    H256900   2.637   6.429  16.340 -1.0701 -0.2866 -0.9427
11829TIP3   OH256901   4.548   6.209  11.565 -0.2248 -0.0793  0.0482
11829TIP3    H156902   4.512   6.126  11.595 -0.5241 -0.1802 -0.5620
11829TIP3    H256903   4.575   6.191  11.475  1.5842 -0.0791  0.5579
11830TIP3   OH256904   5.496   3.032   6.090 -0.1411 -0.0076 -0.0611
11830TIP3    H156905   5.462   3.112   6.128  0.6067  1.0019 -1.4306
11830TIP3    H256906   5.522   2.979   6.165  3.6304  2.9056  1.0428
11831TIP3   OH256907   6.641   6.444   5.614 -0.0537 -0.3472  0.4771
11831TIP3    H156908   6.565   6.418   5.561 -1.1820  0.5106  1.6075
11831TIP3    H256909   6.712   6.390   5.582 -1.4345 -2.1125  0.2284
11832TIP3   OH256910   5.336   3.568   3.998 -0.4022  0.0189  0.2547
11832TIP3    H156911   5.258   3.566   3.942  0.1509 -0.4803 -0.5159
11832TIP3    H256912   5.387   3.491   3.971 -0.4358 -0.6123  1.9076
11833TIP3   OH256913   1.426   2.827   2.581 -0.5009  0.4577 -0.6652
11833TIP3    H156914   1.412   2.732   2.588 -0.6987  0.5041 -0.4076
11833TIP3    H256915   1.492   2.846   2.648 -0.7195  0.5533 -0.4735
11834TIP3   OH256916   3.790   1.175  17.075 -0.6198 -0.1522  0.1899
11834TIP3    H156917   3.737   1.144  17.148 -2.6225  0.9588 -0.7197
11834TIP3    H256918   3.782   1.105  17.009  0.0261 -0.5108  0.4839
11835TIP3   OH256919   2.490   0.721   3.519 -0.0232 -0.0850  0.4243
11835TIP3    H156920   2.500   0.765   3.603 -1.1355 -1.5245  1.3453
11835TIP3    H256921   2.424   0.653   3.534  0.9063 -1.4363 -1.1798
11836TIP3   OH256922   0.746   5.953   1.560 -0.6252 -0.6546  0.0150
11836TIP3    H156923   0.726   6.003   1.639  0.4488 -3.6571  2.3926
11836TIP3    H256924   0.665   5.955   1.508 -1.3473  1.4199  1.1075
11837TIP3   OH256925   3.778   6.545  15.141 -0.4449 -0.1306 -0.3899
11837TIP3    H156926   3.814   6.500  15.217 -1.3852  2.0907  1.4675
11837TIP3    H256927   3.852   6.554  15.081  0.5279 -1.1553  0.6022
11838TIP3   OH256928   4.971   5.238   0.797  0.2051  0.1447 -0.4915
11838TIP3    H156929   4.999   5.300   0.865 -0.9068 -0.9128  1.0033
11838TIP3    H256930   4.898   5.190   0.837 -1.8282  0.7933 -3.1156
11839TIP3   OH256931   2.314   0.998   4.939  0.1512  0.5724  0.3580
11839TIP3    H156932   2.391   1.049   4.915  0.4652  0.0592  0.2697
11839TIP3    H256933   2.275   1.046   5.012  1.6730 -0.2075  1.7427
11840TIP3   OH256934   2.508   4.830  14.189 -0.2320  0.3388  0.0178
11840TIP3    H156935   2.507   4.797  14.279  0.9760 -0.4761 -0.2439
11840TIP3    H256936   2.564   4.769  14.141  0.7813  1.8716 -0.8588
11841TIP3   OH256937   2.910   0.498  17.067  0.3370 -0.4457  0.1117
11841TIP3    H156938   2.920   0.471  16.976 -1.2567  0.1703 -0.2863
11841TIP3    H256939   2.942   0.588  17.069 -0.6017 -0.0883 -0.1124
11842TIP3   OH256940   3.514   2.479  11.393 -0.0769 -0.0051  0.1069
11842TIP3    H156941   3.487   2.540  11.325  0.2105 -0.3902 -0.3582
11842TIP3    H256942   3.503   2.392  11.353 -1.4966 -0.3241  1.1101
11843TIP3   OH256943   1.472   3.212  17.283 -0.0540 -0.5988  0.4971
11843TIP3    H156944   1.459   3.125  17.322 -0.3196  0.3548  2.7389
11843TIP3    H256945   1.529   3.257  17.346  2.1448  0.1066 -1.8237
11844TIP3   OH256946   6.460   5.938   2.538  0.0334 -0.0127 -0.0792
11844TIP3    H156947   6.521   5.972   2.472 -1.6471 -1.6326 -2.6808
11844TIP3    H256948   6.494   5.851   2.559  1.3592  1.0254  2.4472
11845TIP3   OH256949   0.900   4.767   5.497  0.2109  0.3079 -0.8826
11845TIP3    H156950   0.849   4.763   5.578 -0.4974  0.5726 -1.3075
11845TIP3    H256951   0.835   4.763   5.427  0.7421  0.9501 -1.4343
11846TIP3   OH256952   3.965   2.619  15.467  0.4263 -0.4089  0.3003
11846TIP3    H156953   3.933   2.685  15.406 -1.1959 -2.0436 -0.7329
11846TIP3    H256954   3.909   2.626  15.543  0.6378 -0.2119  0.4387
11847TIP3   OH256955   3.608   2.705   4.590  0.0891  0.1651 -0.0395
11847TIP3    H156956   3.638   2.627   4.543 -2.0823 -0.0717 -1.1675
11847TIP3    H256957   3.685   2.734   4.639  1.5336 -1.5037 -1.1652
11848TIP3   OH256958   6.175   3.594   4.123 -0.4879 -0.1372  0.5768
11848TIP3    H156959   6.128   3.512   4.115 -2.2357  0.8800 -0.1117
11848TIP3    H256960   6.177   3.611   4.217 -1.8404 -0.0490  0.6128
11849TIP3   OH256961   1.007   5.720   2.938 -0.0140  0.2387  0.2244
11849TIP3    H156962   0.949   5.720   2.862 -1.5585  1.5070  1.3272
11849TIP3    H256963   1.018   5.627   2.959 -0.2136 -0.0922 -1.0565
11850TIP3   OH256964   5.080   3.803   0.797 -0.1431  0.1374 -0.2813
11850TIP3    H156965   5.071   3.829   0.888  0.1499 -1.4698  0.2247
11850TIP3    H256966   5.038   3.874   0.748 -0.8138  0.7467  1.1260
11851TIP3   OH256967   1.063   5.138   5.819  0.0070 -0.1435 -0.2159
11851TIP3    H156968   1.064   5.103   5.908  0.0350  0.6930  0.1246
11851TIP3    H256969   1.142   5.191   5.813 -0.8407  1.1935 -0.1461
11852TIP3   OH256970   5.932   3.344  11.235 -0.1859  0.0626  0.1695
11852TIP3    H156971   5.849   3.315  11.198  0.3905 -0.8394 -0.4437
11852TIP3    H256972   5.916   3.349  11.329 -1.5580  1.9948 -0.1029
11853TIP3   OH256973   4.733   1.925   4.440 -0.3096  0.3161 -0.6847
11853TIP3    H156974   4.673   1.971   4.380  0.3584  0.7681 -1.0233
11853TIP3    H256975   4.690   1.842   4.457 -0.5489  0.1970 -1.7550
11854TIP3   OH256976   5.045   3.509   0.761 -0.0006  0.2259 -0.0984
11854TIP3    H156977   5.024   3.489   0.853  3.2753 -1.8630  0.3663
11854TIP3    H256978   5.117   3.572   0.766  2.1673 -2.0159 -1.0066
11855TIP3   OH256979   0.478   1.732  15.751  0.0341  0.1390 -0.4107
11855TIP3    H156980   0.471   1.638  15.769  1.0383  0.1906  0.3587
11855TIP3    H256981   0.405   1.751  15.693 -0.6614 -0.9597  0.0704
11856TIP3   OH256982   2.880   5.538   3.881  0.0476 -0.3092  0.2213
11856TIP3    H156983   2.894   5.469   3.946  1.6480  0.8022  1.1438
11856TIP3    H256984   2.956   5.596   3.891  0.0037  0.2841 -2.1964
11857TIP3   OH256985   3.053   1.467   4.082  0.1846 -0.0389  0.0446
11857TIP3    H156986   3.148   1.477   4.079  0.1408  0.6889  0.7672
11857TIP3    H256987   3.020   1.530   4.018  0.1496  0.5978  0.6705
11858TIP3   OH256988   2.383   5.347  17.060  0.2247  0.1952  0.0188
11858TIP3    H156989   2.445   5.303  17.118 -1.0106 -2.4632 -0.5214
11858TIP3    H256990   2.303   5.355  17.112  0.0535  0.7242 -0.3134
11859TIP3   OH256991   3.883   3.592   0.076  0.0990  0.2598 -0.4132
11859TIP3    H156992   3.935   3.512   0.086  0.5161  0.7083  1.3055
11859TIP3    H256993   3.803   3.575   0.125 -0.3930  0.4163 -1.1490
11860TIP3   OH256994   3.140   1.959  13.808  0.2699  0.8184 -0.3045
11860TIP3    H156995   3.150   1.868  13.780 -0.3630  1.3727 -2.5208
11860TIP3    H256996   3.222   2.001  13.783  1.2187  0.5875  2.1613
11861TIP3   OH256997   6.030   0.794   2.365  0.6796 -0.1896 -0.6976
11861TIP3    H156998   6.119   0.808   2.397  0.8154 -0.2456 -1.0471
11861TIP3    H256999   5.974   0.838   2.429  0.9430 -0.3733 -0.3363
11862TIP3   OH257000   6.714   4.312   3.923  0.3077 -0.4501  0.1612
11862TIP3    H157001   6.712   4.287   4.016 -0.0395 -1.2709 -0.0621
11862TIP3    H257002   6.756   4.398   3.923  0.6375 -0.5964  1.0485
11863TIP3   OH257003   3.454   1.638  11.577 -0.0053  0.3182 -0.2276
11863TIP3    H157004   3.450   1.568  11.512  0.5572  0.6685 -0.6534
11863TIP3    H257005   3.500   1.709  11.532 -0.7354  1.0329  0.1259
11864TIP3   OH257006   3.023   0.430  16.143  0.1014 -0.6660  0.2865
11864TIP3    H157007   3.030   0.460  16.233  0.3946 -0.7665  0.2963
11864TIP3    H257008   3.059   0.502  16.091 -1.1359 -0.1117  0.1647
11865TIP3   OH257009   5.468   0.787   4.187 -0.5444 -0.4899 -0.3428
11865TIP3    H157010   5.373   0.777   4.179 -0.5852 -0.0711 -0.3729
11865TIP3    H257011   5.495   0.713   4.241 -0.9514 -0.3308  0.0794
11866TIP3   OH257012   2.858   1.983  13.000 -0.4096 -0.5352  0.1422
11866TIP3    H157013   2.934   2.011  13.051 -1.2558  0.9142  0.6685
11866TIP3    H257014   2.863   2.033  12.919 -1.5362  0.6523  0.7722
11867TIP3   OH257015   5.403   5.468  12.430 -0.1663 -0.3760  0.2920
11867TIP3    H157016   5.491   5.443  12.401 -0.0762 -1.0544  1.1208
11867TIP3    H257017   5.356   5.385  12.438 -0.5606 -0.0993  0.8904
11868TIP3   OH257018   3.521   0.884  16.722 -0.2463 -0.6153  0.4091
11868TIP3    H157019   3.463   0.955  16.751  0.8478  0.5264 -0.1111
11868TIP3    H257020   3.601   0.897  16.774  0.3816 -0.7696 -0.5106
11869TIP3   OH257021   1.951   4.325   4.628 -0.5861  0.4183  0.4875
11869TIP3    H157022   2.009   4.324   4.552 -0.9562  0.5206  0.1983
11869TIP3    H257023   1.977   4.402   4.678 -0.4048  0.4039  0.4170
11870TIP3   OH257024   1.970   3.879   6.554  0.0861  0.4583 -0.0512
11870TIP3    H157025   2.027   3.887   6.630  1.3599  1.8139 -1.0861
11870TIP3    H257026   1.940   3.788   6.556 -0.0824  0.5246  2.1601
11871TIP3   OH257027   4.914   6.566   3.142 -0.3754  0.2968  0.5445
11871TIP3    H157028   4.958   6.521   3.070  0.6564 -0.0357  1.3487
11871TIP3    H257029   4.881   6.496   3.198 -0.1490  0.5423  0.9922
11872TIP3   OH257030   3.069   5.172  13.354 -0.4347  0.1374 -0.3890
11872TIP3    H157031   3.116   5.101  13.310 -0.6034 -1.0355  1.2321
11872TIP3    H257032   3.087   5.158  13.447 -2.9530  0.4139  0.1979
11873TIP3   OH257033   5.872   4.017   5.607 -0.1410  0.2676  0.5295
11873TIP3    H157034   5.865   4.017   5.703  2.1533  1.5494  0.7871
11873TIP3    H257035   5.864   4.109   5.583  0.7348  0.1384 -0.3377
11874TIP3   OH257036   3.993   4.424  16.821 -0.2330  0.8227  0.5553
11874TIP3    H157037   4.028   4.504  16.861 -0.4033  2.0101 -1.5047
11874TIP3    H257038   4.058   4.357  16.841 -0.2752  1.3276  2.6781
11875TIP3   OH257039   2.847   1.730   4.796 -0.4864 -0.1403  0.7067
11875TIP3    H157040   2.901   1.756   4.722 -1.5634  1.0034  0.2888
11875TIP3    H257041   2.830   1.637   4.781  0.3361 -0.2117  0.1862
11876TIP3   OH257042   2.905   3.726   5.160  0.1777  0.3058  0.0234
11876TIP3    H157043   2.845   3.726   5.085 -0.0215 -2.8181  0.0328
11876TIP3    H257044   2.992   3.719   5.121  0.1869  0.2984  0.0453
11877TIP3   OH257045   5.637   6.664   0.935 -0.0781  0.7706  0.4437
11877TIP3    H157046   5.710   6.649   0.875 -0.5140  0.1509  0.0535
11877TIP3    H257047   5.672   6.723   1.002  0.9183  0.0884  0.5391
11878TIP3   OH257048   5.965   2.488  15.025  0.1658 -0.1714 -0.3900
11878TIP3    H157049   5.924   2.456  15.105  1.3516 -2.2396 -0.5207
11878TIP3    H257050   6.030   2.551  15.055 -1.5606  1.5212 -0.0322
11879TIP3   OH257051   0.875   2.518   5.365  0.1987 -0.1034  0.0205
11879TIP3    H157052   0.932   2.592   5.341 -1.0147  0.6659 -0.5642
11879TIP3    H257053   0.802   2.558   5.412 -0.7579 -0.8413 -0.7904
11880TIP3   OH257054   6.467   4.427  13.094 -0.0405  0.0070  0.2654
11880TIP3    H157055   6.486   4.519  13.075 -0.4282  0.2929  1.2093
11880TIP3    H257056   6.442   4.390  13.009  1.3132  0.4590 -0.3586
11881TIP3   OH257057   1.425   3.330   1.283  0.6318 -0.8601 -0.3418
11881TIP3    H157058   1.505   3.377   1.307  0.2833 -0.5112  0.1616
11881TIP3    H257059   1.420   3.337   1.188  0.3408  0.5472 -0.2505
11882TIP3   OH257060   0.882   3.520   5.227 -0.5034 -0.5796  0.3552
11882TIP3    H157061   0.931   3.578   5.286 -0.3875 -1.1262  0.8176
11882TIP3    H257062   0.889   3.561   5.141  0.3662 -0.3862  0.5021
11883TIP3   OH257063   4.383   2.049  13.402 -0.0728 -0.5462 -0.1261
11883TIP3    H157064   4.393   2.078  13.493 -0.0478  1.0019 -0.5915
11883TIP3    H257065   4.473   2.039  13.370 -0.0389  1.0237 -0.5926
11884TIP3   OH257066   2.604   2.312   5.962  0.0471 -0.0125  0.1540
11884TIP3    H157067   2.528   2.255   5.965  0.8742 -1.1758 -0.0138
11884TIP3    H257068   2.667   2.265   5.908  2.1197 -0.7063  2.9359
11885TIP3   OH257069   6.052   3.870  15.634  0.5949 -0.0938  0.3233
11885TIP3    H157070   5.996   3.947  15.628  1.6628  0.5791 -1.9071
11885TIP3    H257071   6.055   3.851  15.728 -1.6192  1.0981  0.7188
11886TIP3   OH257072   0.420   2.650   5.959 -0.7356  0.1499 -0.1094
11886TIP3    H157073   0.354   2.716   5.935  0.4997  1.0947 -1.0642
11886TIP3    H257074   0.503   2.698   5.957 -0.0278 -0.9581  1.2800
11887TIP3   OH257075   4.182   0.079   5.722  0.8691  0.3972  0.6793
11887TIP3    H157076   4.196   0.150   5.658 -0.4392  0.4572  0.4377
11887TIP3    H257077   4.090   0.086   5.745  1.4111  0.6914  2.9791
11888TIP3   OH257078   6.467   5.638   3.337 -0.4912 -0.1281 -0.4002
11888TIP3    H157079   6.436   5.548   3.325 -1.4269  0.1022  0.1585
11888TIP3    H257080   6.510   5.660   3.255 -0.3256 -1.0583 -0.5732
11889TIP3   OH257081   2.030   0.276   5.762  0.2858 -0.0163  0.1789
11889TIP3    H157082   2.041   0.369   5.744  1.6512 -0.2573 -0.3688
11889TIP3    H257083   1.963   0.272   5.830 -0.6828  1.2803 -0.6491
11890TIP3   OH257084   3.021   2.315   5.017  0.3566 -0.3349  0.2618
11890TIP3    H157085   2.985   2.365   5.091  0.3473  1.2156 -0.7420
11890TIP3    H257086   2.948   2.307   4.956  1.0911  0.8956 -0.8176
11891TIP3   OH257087   2.859   4.607   1.574 -0.6198 -0.3577  0.1239
11891TIP3    H157088   2.814   4.536   1.527 -0.9341 -0.4586  0.5760
11891TIP3    H257089   2.952   4.587   1.564 -0.6947 -0.6178 -0.0810
11892TIP3   OH257090   4.672   5.038   3.552  0.8660 -0.2572  0.3142
11892TIP3    H157091   4.756   5.081   3.542  0.9488  0.3859  3.0680
11892TIP3    H257092   4.679   4.958   3.500  2.7375  0.3180 -0.3782
11893TIP3   OH257093   4.298   4.401  16.169  0.5725 -0.1056  0.3095
11893TIP3    H157094   4.239   4.452  16.224  1.2073 -0.2269  1.1296
11893TIP3    H257095   4.295   4.444  16.084 -1.9722 -1.0779 -0.1822
11894TIP3   OH257096   4.689   2.875  16.147  0.2935 -0.2173  0.4914
11894TIP3    H157097   4.604   2.907  16.178 -0.7621 -2.8657  0.6122
11894TIP3    H257098   4.667   2.798  16.095  2.3880  1.1269 -2.6777
11895TIP3   OH257099   2.954   1.064  13.810  0.5580  0.1568 -0.2219
11895TIP3    H157100   3.037   1.017  13.798  1.8672  1.8877  1.4218
11895TIP3    H257101   2.975   1.155  13.794 -0.6852  0.8002  1.4950
11896TIP3   OH257102   2.335   6.235  11.663 -0.0148  0.2540  0.4277
11896TIP3    H157103   2.409   6.184  11.628  0.5318  0.5638  1.1087
11896TIP3    H257104   2.279   6.251  11.587 -0.0838 -1.1571  0.1587
11897TIP3   OH257105   2.382   6.408  11.898 -0.1320 -0.9019 -0.2815
11897TIP3    H157106   2.357   6.327  11.852 -1.9480 -0.1107 -0.7843
11897TIP3    H257107   2.328   6.406  11.978 -0.7071  0.1311 -0.6353
11898TIP3   OH257108   6.698   6.368  11.443  0.1666  0.1235 -0.2485
11898TIP3    H157109   6.736   6.445  11.402  0.8271 -0.5979 -1.0106
11898TIP3    H257110   6.603   6.381  11.436  0.2768  0.6583 -0.7498
11899TIP3   OH257111   1.496   4.189   6.252 -0.5424 -0.1106 -0.4321
11899TIP3    H157112   1.449   4.209   6.333  0.6831  0.3312  0.1956
11899TIP3    H257113   1.511   4.274   6.212  1.9514  0.0574  0.6855
11900TIP3   OH257114   4.280   3.864  13.071  0.4805 -0.1424  0.0554
11900TIP3    H157115   4.235   3.895  12.993  1.2901 -0.6078 -0.6108
11900TIP3    H257116   4.295   3.943  13.123 -0.5816  0.0906  0.0234
11901TIP3   OH257117   6.032   4.750  16.115  0.0521  1.2055  0.0692
11901TIP3    H157118   6.088   4.733  16.039 -0.9369 -1.8575 -0.1086
11901TIP3    H257119   6.093   4.771  16.185  1.4843 -1.3883 -0.2738
11902TIP3   OH257120   3.586   4.805   1.378 -0.2014 -0.0915  0.4694
11902TIP3    H157121   3.497   4.770   1.381  0.3085 -1.7126 -1.3813
11902TIP3    H257122   3.626   4.763   1.302  2.1350  0.6687  1.1930
11903TIP3   OH257123   3.407   2.444  15.882 -0.5763 -0.2869 -0.3704
11903TIP3    H157124   3.499   2.459  15.904 -0.8814  1.3767 -0.0892
11903TIP3    H257125   3.366   2.418  15.965 -0.5645  0.0345 -0.2636
11904TIP3   OH257126   1.378   3.309   3.056 -0.1770  0.1533  0.2762
11904TIP3    H157127   1.357   3.255   3.132  0.6397  0.4557  0.7199
11904TIP3    H257128   1.303   3.368   3.048  0.1043  0.6772  1.3592
11905TIP3   OH257129   1.018   3.610  11.793 -0.3973  0.5042 -0.5351
11905TIP3    H157130   1.037   3.699  11.763  0.7848  1.1138  1.8238
11905TIP3    H257131   1.098   3.583  11.838 -1.4897 -0.9330  0.6156
11906TIP3   OH257132   1.403   5.958   1.646  0.1610  0.1379 -0.0265
11906TIP3    H157133   1.339   5.893   1.677  0.5724 -0.1947  0.1363
11906TIP3    H257134   1.350   6.026   1.606 -0.2546 -0.5658 -0.7027
11907TIP3   OH257135   4.908   0.535  10.942  0.7545 -0.2985 -0.0036
11907TIP3    H157136   4.868   0.587  11.011 -1.4152 -1.0129 -0.6394
11907TIP3    H257137   4.864   0.563  10.862  3.5590  0.8751 -1.2620
11908TIP3   OH257138   2.287   2.983   5.406 -0.5005  0.0189  0.2375
11908TIP3    H157139   2.347   3.031   5.463  0.1715  0.1436 -0.5478
11908TIP3    H257140   2.233   3.051   5.365 -0.5934 -0.0221  0.2918
11909TIP3   OH257141   5.949   3.577  16.298 -0.2299  0.0308  0.7748
11909TIP3    H157142   5.941   3.525  16.218 -0.2967  1.8747 -0.4516
11909TIP3    H257143   5.859   3.585  16.330 -0.3890  0.5762  0.1928
11910TIP3   OH257144   6.104   2.690   0.382 -0.4293  0.1231  0.0608
11910TIP3    H157145   6.139   2.756   0.322  1.9133 -1.3111 -0.3100
11910TIP3    H257146   6.112   2.608   0.333 -1.3294 -0.6954  1.2436
11911TIP3   OH257147   6.668   3.027   1.338  0.0317  0.1507  0.1772
11911TIP3    H157148   6.651   2.934   1.326 -0.8192  0.0988  1.5622
11911TIP3    H257149   6.587   3.070   1.309  0.3116  0.4357 -0.1813
11912TIP3   OH257150   5.388   2.935  15.026 -0.3505 -0.1855 -0.0263
11912TIP3    H157151   5.477   2.970  15.023  0.9797 -3.3530 -1.2898
11912TIP3    H257152   5.372   2.917  15.119  0.7407 -0.5280  0.1063
11913TIP3   OH257153   1.199   6.300  12.173 -0.6299  0.3075 -0.2228
11913TIP3    H157154   1.189   6.208  12.150  0.1780  0.6573 -2.1665
11913TIP3    H257155   1.120   6.322  12.223 -1.2871 -1.1764 -0.5784
11914TIP3   OH257156   5.101   1.695  15.270 -0.5032  0.4161  0.2147
11914TIP3    H157157   5.044   1.717  15.343  0.6958 -0.4062  1.4430
11914TIP3    H257158   5.189   1.698  15.307  0.1589  0.3351 -1.2921
11915TIP3   OH257159   2.942   1.730  13.832 -0.7067  0.0794  0.1575
11915TIP3    H157160   2.952   1.743  13.738  0.6739 -0.7734  0.1551
11915TIP3    H257161   2.874   1.664  13.841 -0.0093 -0.7336 -0.3229
11916TIP3   OH257162   2.336   4.471  13.985  0.2938  0.0087  0.2652
11916TIP3    H157163   2.250   4.475  13.942  0.6831 -0.3748 -0.5855
11916TIP3    H257164   2.318   4.434  14.071 -0.2266 -1.3571 -0.4072
11917TIP3   OH257165   5.199   2.547  13.068 -0.1054  0.5370  0.4953
11917TIP3    H157166   5.191   2.569  13.161  0.0480 -0.1290  0.6776
11917TIP3    H257167   5.110   2.530  13.039 -0.1985  1.1774  0.4086
11918TIP3   OH257168   2.012   2.852   1.851 -0.1751 -0.2702  0.0622
11918TIP3    H157169   1.975   2.889   1.931 -1.1464 -1.2250  0.0842
11918TIP3    H257170   1.936   2.825   1.800  0.3932  1.1677 -1.6310
11919TIP3   OH257171   0.688   1.120  13.298 -0.1820 -0.5326 -0.3272
11919TIP3    H157172   0.596   1.101  13.279 -0.9322  1.2785  1.1488
11919TIP3    H257173   0.737   1.065  13.237 -2.1810 -3.2571  0.3268
11920TIP3   OH257174   4.297   0.626  12.962  0.2212  0.7874  0.0438
11920TIP3    H157175   4.216   0.652  12.918  0.3290  1.1245  0.0439
11920TIP3    H257176   4.272   0.616  13.054  0.3459  1.6680  0.1851
11921TIP3   OH257177   3.868   6.740  16.442  0.2594  0.6273  0.4253
11921TIP3    H157178   3.789   6.793  16.431 -0.7873 -1.0356 -0.4319
11921TIP3    H257179   3.924   6.765  16.368 -0.1842  0.6167  0.0784
11922TIP3   OH257180   5.806   4.711   1.534  0.0495  0.1668  0.5417
11922TIP3    H157181   5.896   4.715   1.502 -0.8936  0.8578 -2.3168
11922TIP3    H257182   5.776   4.802   1.535 -0.8935 -0.1277  0.5113
11923TIP3   OH257183   0.932   4.040   0.295  0.2403  0.1852  0.1948
11923TIP3    H157184   0.986   4.014   0.370 -0.5347  0.3722  0.8312
11923TIP3    H257185   0.876   3.964   0.278  0.2476  0.2308 -0.0393
11924TIP3   OH257186   5.968   2.094  14.465  0.2470  0.8242  0.0713
11924TIP3    H157187   5.940   2.045  14.542 -0.2686  1.6886  0.4447
11924TIP3    H257188   6.032   2.157  14.498  2.4106 -0.8026 -0.6941
11925TIP3   OH257189   0.249   3.807   3.483  0.5161 -0.3012 -0.2653
11925TIP3    H157190   0.208   3.825   3.399  2.0992 -1.1329 -1.2446
11925TIP3    H257191   0.271   3.893   3.518  0.3887  0.0189 -0.9632
11926TIP3   OH257192   5.779   5.700  13.125 -0.4726 -0.1276 -0.2042
11926TIP3    H157193   5.755   5.658  13.042  3.1714  0.2164 -1.5840
11926TIP3    H257194   5.767   5.793  13.109 -0.8284 -0.1319  0.0406
11927TIP3   OH257195   0.988   2.230   0.497  0.2294 -0.1601 -0.1654
11927TIP3    H157196   0.989   2.263   0.587 -0.1902 -0.2581 -0.1185
11927TIP3    H257197   0.921   2.161   0.498  0.8344 -0.7606 -0.3458
11928TIP3   OH257198   0.767   5.747  15.020  1.0983 -0.0122  0.5201
11928TIP3    H157199   0.715   5.790  14.952  1.7053  0.6270  0.4487
11928TIP3    H257200   0.825   5.816  15.052  0.1070 -0.0082  2.4388
11929TIP3   OH257201   1.037   5.338   0.408  0.1394  0.0522 -0.5520
11929TIP3    H157202   1.071   5.319   0.321  0.6098 -0.3469 -0.2846
11929TIP3    H257203   1.110   5.380   0.454 -0.2702  0.7415 -0.5098
11930TIP3   OH257204   4.300   2.243  15.222  0.3245  0.0724 -0.1054
11930TIP3    H157205   4.362   2.176  15.249  1.6337  1.0912 -0.5020
11930TIP3    H257206   4.336   2.278  15.140 -0.7589  0.7032 -0.3377
11931TIP3   OH257207   6.453   0.645   6.770  0.4494  0.7332  0.2497
11931TIP3    H157208   6.507   0.681   6.840  0.2120 -1.1190  1.4648
11931TIP3    H257209   6.365   0.679   6.787  0.8477  2.3113 -0.6795
11932TIP3   OH257210   3.268   4.174  12.899 -0.1162  0.3113 -0.9563
11932TIP3    H157211   3.228   4.153  12.815  0.1119  1.0600 -1.2686
11932TIP3    H257212   3.347   4.119  12.903 -1.5951 -1.8726  0.0853
11933TIP3   OH257213   5.805   1.294  16.062  0.1378  0.0748 -0.0754
11933TIP3    H157214   5.840   1.382  16.078 -2.3221  0.9318  1.1095
11933TIP3    H257215   5.841   1.240  16.133  0.7007  0.4119 -0.0996
11934TIP3   OH257216   0.826   2.340   1.114 -0.3623  0.3202 -0.1129
11934TIP3    H157217   0.919   2.336   1.092  0.3254  1.4015  2.2731
11934TIP3    H257218   0.805   2.253   1.148 -0.0507  0.2792 -0.0261
11935TIP3   OH257219   3.596   1.413   5.716 -0.5067  0.5264  0.3168
11935TIP3    H157220   3.588   1.505   5.691  0.3596  0.2277 -1.2014
11935TIP3    H257221   3.506   1.381   5.722 -0.8077  0.6292 -2.5901
11936TIP3   OH257222   0.773   5.200   2.730 -0.7471 -0.1406 -0.2211
11936TIP3    H157223   0.748   5.108   2.733  0.5517 -0.5144 -0.2066
11936TIP3    H257224   0.810   5.217   2.817 -0.0667  0.1107 -0.5541
11937TIP3   OH257225   3.829   4.056   6.714 -0.0509 -0.5450  0.1553
11937TIP3    H157226   3.795   4.108   6.787  1.1938  0.9485 -0.2774
11937TIP3    H257227   3.797   3.967   6.731 -0.6478 -0.0340  1.9468
11938TIP3   OH257228   0.952   5.441   1.267  0.0918 -0.6855 -0.0520
11938TIP3    H157229   0.994   5.354   1.262  1.0021 -0.2052 -1.3424
11938TIP3    H257230   0.994   5.483   1.342  1.2828 -0.5655 -0.7582
11939TIP3   OH257231   6.194   1.482  15.447  0.4239  0.7914  0.0409
11939TIP3    H157232   6.209   1.498  15.540  0.5802  3.8125 -0.3992
11939TIP3    H257233   6.244   1.551  15.403 -0.5130  0.0913 -2.2180
11940TIP3   OH257234   1.218   3.424  10.917 -0.7463  0.4202  0.2303
11940TIP3    H157235   1.253   3.503  10.876 -0.4698 -0.4388 -1.2731
11940TIP3    H257236   1.285   3.397  10.979  0.0347  0.3494 -0.6147
11941TIP3   OH257237   5.765   5.810  15.528  0.4604  0.4598  0.6268
11941TIP3    H157238   5.737   5.813  15.436 -0.2182  1.8157  0.8556
11941TIP3    H257239   5.830   5.739  15.531 -1.2824 -1.2707 -0.3887
11942TIP3   OH257240   2.309   2.671   4.278 -0.4228  0.0369 -0.5691
11942TIP3    H157241   2.280   2.597   4.225 -2.2919 -2.5730  3.5155
11942TIP3    H257242   2.232   2.728   4.285 -1.5728 -1.6338  2.1120
11943TIP3   OH257243   0.941   1.236  11.407 -0.5325  0.2595 -0.0675
11943TIP3    H157244   0.906   1.172  11.468 -0.2732 -1.0936 -1.2936
11943TIP3    H257245   1.035   1.237  11.425 -0.5332  0.2908 -0.0648
11944TIP3   OH257246   6.383   3.175  16.816 -0.1110  0.2626 -0.0152
11944TIP3    H157247   6.368   3.268  16.832  0.0497  0.4308 -0.8079
11944TIP3    H257248   6.414   3.141  16.900  1.7431  1.3356 -0.1916
11945TIP3   OH257249   4.490   3.463   1.805 -0.0178  0.1666 -0.2044
11945TIP3    H157250   4.578   3.492   1.829 -0.4950  0.0813  1.7728
11945TIP3    H257251   4.431   3.514   1.860 -1.2748  0.5870 -1.8538
11946TIP3   OH257252   6.259   4.253  12.069 -0.3686 -0.2468  0.3221
11946TIP3    H157253   6.345   4.233  12.107 -0.2371  0.9398  0.7027
11946TIP3    H257254   6.275   4.262  11.975 -0.2007 -0.6738  0.3111
11947TIP3   OH257255   4.416   1.134   4.092 -0.3981  0.5854 -0.1397
11947TIP3    H157256   4.409   1.227   4.112  0.0311  0.5689  0.0962
11947TIP3    H257257   4.473   1.099   4.160  0.5359  0.4001 -1.0010
11948TIP3   OH257258   3.659   6.064   4.077  0.6705 -0.0903  0.2165
11948TIP3    H157259   3.572   6.104   4.081  0.0785 -1.4266  1.4589
11948TIP3    H257260   3.683   6.048   4.168  3.3893  2.5618  0.1249
11949TIP3   OH257261   0.073   4.051   4.376  0.3933 -0.0964 -0.0446
11949TIP3    H157262   0.033   4.082   4.457  0.5799 -0.5414  0.2237
11949TIP3    H257263   0.019   3.976   4.350 -0.7080  1.0797 -1.2670
11950TIP3   OH257264   5.169   6.638   4.292  0.0830  0.3084  0.2297
11950TIP3    H157265   5.237   6.694   4.329 -0.2978  0.8568  0.1024
11950TIP3    H257266   5.090   6.660   4.340 -0.4416  1.1046 -0.9506
11951TIP3   OH257267   5.625   5.521  17.198  0.1131  0.2062 -0.3967
11951TIP3    H157268   5.702   5.535  17.144  0.4763 -0.8931 -0.1865
11951TIP3    H257269   5.551   5.541  17.141  0.5319  0.3835 -0.8808
11952TIP3   OH257270   1.646   2.573  12.123  0.2620 -0.0182  0.0282
11952TIP3    H157271   1.704   2.592  12.050  0.5123  0.4051  0.3353
11952TIP3    H257272   1.558   2.571  12.084  0.4726 -0.6762 -0.4366
11953TIP3   OH257273   2.458   6.541   5.603  0.2735  0.6645 -0.0827
11953TIP3    H157274   2.551   6.562   5.604  0.5297 -0.4231 -0.0711
11953TIP3    H257275   2.454   6.451   5.571 -0.7716  0.6876 -0.0497
11954TIP3   OH257276   3.577   5.673   4.212  0.5138  0.0683 -0.1154
11954TIP3    H157277   3.579   5.699   4.120 -1.1799 -1.7319 -0.7284
11954TIP3    H257278   3.518   5.597   4.215  0.9193 -0.2551  2.3780
11955TIP3   OH257279   0.730   1.849  14.324  0.3609 -0.3298  0.1100
11955TIP3    H157280   0.714   1.936  14.286  2.4352  1.4798  2.9512
11955TIP3    H257281   0.665   1.840  14.393  0.5875 -0.7218  0.2771
11956TIP3   OH257282   5.987   1.603  11.763  0.4397 -0.0015 -0.0169
11956TIP3    H157283   5.994   1.564  11.676 -1.2053  1.1378 -0.7001
11956TIP3    H257284   5.975   1.528  11.822 -2.1463 -0.6653 -1.2394
11957TIP3   OH257285   5.843   0.310  13.715  0.3590  0.8159 -0.1844
11957TIP3    H157286   5.778   0.337  13.650  0.3412 -0.4161 -0.7015
11957TIP3    H257287   5.805   0.334  13.799 -1.1855 -0.6543 -0.4173
11958TIP3   OH257288   0.738   5.283  12.428 -0.1169  0.2434  0.5906
11958TIP3    H157289   0.682   5.242  12.362  1.1655 -0.3413 -0.1724
11958TIP3    H257290   0.728   5.227  12.505  2.0804 -2.0037 -0.6194
11959TIP3   OH257291   2.240   3.457  16.919  0.1555 -0.4593 -0.1989
11959TIP3    H157292   2.282   3.410  16.991 -0.6456 -0.1475  0.4816
11959TIP3    H257293   2.150   3.472  16.949  0.0698  0.4708 -0.8873
11960TIP3   OH257294   6.698   0.411  15.131  0.0831  0.1157 -0.3735
11960TIP3    H157295   6.692   0.325  15.173  0.1827  0.7498  0.9902
11960TIP3    H257296   6.673   0.473  15.199  2.1107  1.3376 -0.6699
11961TIP3   OH257297   3.159   2.468  11.252 -0.0710 -0.2541 -0.3367
11961TIP3    H157298   3.229   2.435  11.196  0.3546  2.0982 -1.3355
11961TIP3    H257299   3.161   2.563  11.238  0.5729  0.6305  4.1899
11962TIP3   OH257300   4.959   4.167   2.539 -0.0984 -0.4364 -0.3959
11962TIP3    H157301   5.031   4.209   2.586 -0.8888  0.5361 -0.0188
11962TIP3    H257302   5.002   4.103   2.482  1.0778  0.2445 -0.3135
11963TIP3   OH257303   6.265   6.434  16.865  0.4457  0.0839  0.1820
11963TIP3    H157304   6.216   6.408  16.943  0.8706  1.0651  0.8071
11963TIP3    H257305   6.343   6.378  16.866  0.3320 -0.0708  0.3272
11964TIP3   OH257306   5.583   1.076  16.146  0.5378 -0.3902 -0.2020
11964TIP3    H157307   5.566   1.144  16.081  0.9871  2.3775  2.3444
11964TIP3    H257308   5.496   1.044  16.171  0.3153 -0.6809 -1.2647
11965TIP3   OH257309   1.460   1.052  12.915  0.5416  0.0420  0.1146
11965TIP3    H157310   1.404   1.018  12.844 -0.5044 -1.5721  1.6249
11965TIP3    H257311   1.476   0.976  12.971  1.6612  1.1825  1.4031
11966TIP3   OH257312   3.562   2.924  16.821  0.0462 -0.0357  0.2451
11966TIP3    H157313   3.605   2.894  16.741  0.6863  1.0482  0.1632
11966TIP3    H257314   3.603   2.872  16.891  1.7265  1.1352  0.1999
11967TIP3   OH257315   4.120   5.492  15.461  0.0020  0.0047  0.3563
11967TIP3    H157316   4.044   5.540  15.491 -0.4713  1.2173 -2.4731
11967TIP3    H257317   4.085   5.426  15.401  1.0593 -0.6936  0.4677
11968TIP3   OH257318   3.250   2.907  16.211 -0.1496 -0.2054 -0.0156
11968TIP3    H157319   3.201   2.833  16.249 -1.5945  0.2142 -0.9602
11968TIP3    H257320   3.203   2.985  16.241  0.3716  0.2452 -0.3543
11969TIP3   OH257321   0.161   5.499  13.601  0.4654  0.2256  0.6761
11969TIP3    H157322   0.146   5.466  13.512  0.7252  1.1569  0.2755
11969TIP3    H257323   0.073   5.502  13.640  0.3533 -0.2096  0.4612
11970TIP3   OH257324   5.417   4.834  11.639 -0.3399  0.2676 -0.3749
11970TIP3    H157325   5.357   4.905  11.615 -2.0625 -1.1509 -0.4608
11970TIP3    H257326   5.461   4.811  11.557 -1.0736  0.1021 -0.7375
11971TIP3   OH257327   5.333   0.676   5.374 -0.0308  0.7471  1.1500
11971TIP3    H157328   5.397   0.696   5.442  2.5612 -1.7445 -0.3261
11971TIP3    H257329   5.364   0.722   5.297  1.2300 -1.9147 -0.0699
11972TIP3   OH257330   3.184   2.168  11.522 -0.1168  0.3435  0.4231
11972TIP3    H157331   3.132   2.248  11.519 -1.7879 -0.6333  1.6952
11972TIP3    H257332   3.270   2.197  11.553 -0.2909  1.8022 -0.3936
11973TIP3   OH257333   2.591   2.943   2.329  0.2814 -0.4558  0.2321
11973TIP3    H157334   2.642   2.992   2.265 -3.1416 -0.3223 -2.7174
11973TIP3    H257335   2.613   2.851   2.312  3.4986 -0.3537  2.8687
11974TIP3   OH257336   3.494   3.807  14.465 -0.6713  0.5692 -0.4673
11974TIP3    H157337   3.575   3.818  14.514 -0.3533  1.1672 -1.1131
11974TIP3    H257338   3.450   3.891  14.471 -1.4422  0.1326  0.2045
11975TIP3   OH257339   3.276   1.791  13.603  0.6027  0.1417 -0.1316
11975TIP3    H157340   3.184   1.781  13.581  0.7232  1.7636 -1.5954
11975TIP3    H257341   3.322   1.776  13.520  1.4880  1.2500  0.1345
11976TIP3   OH257342   1.569   6.100  16.093 -0.3568 -0.1282  0.8029
11976TIP3    H157343   1.525   6.117  16.011 -0.3869  1.3159  1.1045
11976TIP3    H257344   1.499   6.078  16.155 -0.4046 -0.3616  0.6696
11977TIP3   OH257345   2.386   6.567   3.424 -1.0287 -0.1149 -0.0288
11977TIP3    H157346   2.323   6.638   3.437 -0.2340  0.7687 -0.8206
11977TIP3    H257347   2.413   6.543   3.513  0.1507  1.9520  0.2341
11978TIP3   OH257348   3.037   6.479   2.974 -0.0812  0.0434  0.3767
11978TIP3    H157349   3.015   6.572   2.969 -0.9440 -0.0959  1.2112
11978TIP3    H257350   2.952   6.434   2.972  0.2293 -0.6385  1.5770
11979TIP3   OH257351   0.611   5.436   3.334  0.6039  0.0546  0.2517
11979TIP3    H157352   0.613   5.392   3.419 -0.7664 -1.0204 -0.2299
11979TIP3    H257353   0.621   5.365   3.270  2.0341  0.8975 -0.4913
11980TIP3   OH257354   3.113   6.251   6.617  0.2462 -0.4789  0.4919
11980TIP3    H157355   3.193   6.301   6.596  1.0560 -0.6010  2.9408
11980TIP3    H257356   3.042   6.305   6.582  1.3586 -0.5099 -2.0302
11981TIP3   OH257357   4.224   0.149   3.017  0.1367 -0.4023  0.4018
11981TIP3    H157358   4.158   0.215   3.040 -0.6055 -0.8471 -0.3849
11981TIP3    H257359   4.305   0.182   3.056 -0.2778  0.8246  0.2877
11982TIP3   OH257360   6.621   6.412   2.003  0.0686 -0.5397 -0.0528
11982TIP3    H157361   6.547   6.361   2.035  0.3205 -0.1718  1.1891
11982TIP3    H257362   6.682   6.414   2.077  0.5218  0.6736 -0.4373
11983TIP3   OH257363   6.102   1.566   2.709 -0.4419 -0.2831  0.0432
11983TIP3    H157364   6.139   1.631   2.768 -2.8087  1.3163 -0.0902
11983TIP3    H257365   6.064   1.499   2.766  1.6969 -1.4588  0.1839
11984TIP3   OH257366   3.964   1.802   4.889  0.4535 -0.2668 -1.0054
11984TIP3    H157367   4.037   1.741   4.903  0.4627  0.2518  1.7699
11984TIP3    H257368   3.956   1.809   4.794  1.3220 -3.5192 -1.4327
11985TIP3   OH257369   1.459   3.218  13.577  0.4472 -0.3016  0.2910
11985TIP3    H157370   1.521   3.289  13.559  0.3053 -0.4689 -0.9785
11985TIP3    H257371   1.466   3.203  13.671  1.7155  0.2621  0.3065
11986TIP3   OH257372   5.252   4.339   5.547 -0.2404  0.0047 -0.3506
11986TIP3    H157373   5.278   4.431   5.537  1.4506 -0.2206  1.2487
11986TIP3    H257374   5.202   4.337   5.628  2.1788 -0.8169  1.2563
11987TIP3   OH257375   5.848   3.579   5.828 -0.3663 -0.3126 -0.7042
11987TIP3    H157376   5.899   3.510   5.871 -0.1647  0.3586  0.1597
11987TIP3    H257377   5.757   3.556   5.846 -0.2832 -0.0373  0.0849
11988TIP3   OH257378   0.304   2.532   1.310 -0.7152  0.2298  0.3608
11988TIP3    H157379   0.256   2.460   1.270  0.8840 -0.9435  0.4754
11988TIP3    H257380   0.321   2.593   1.238  2.0699 -1.8237 -0.8795
11989TIP3   OH257381   5.784   5.828  16.563 -0.0470 -0.0568  0.1720
11989TIP3    H157382   5.810   5.786  16.645 -1.7071 -1.5318 -0.0099
11989TIP3    H257383   5.866   5.862  16.527  1.2140 -2.1453  0.9095
11990TIP3   OH257384   3.888   2.059  17.234 -0.2822 -0.2791 -1.2299
11990TIP3    H157385   3.941   2.013  17.169 -0.9328 -1.3087 -1.0392
11990TIP3    H257386   3.801   2.020  17.227 -0.2216 -0.8424  0.6853
11991TIP3   OH257387   3.442   0.753   6.113 -0.5370 -0.2943 -0.3330
11991TIP3    H157388   3.405   0.668   6.138 -0.8075 -0.1764 -0.3223
11991TIP3    H257389   3.411   0.767   6.023  0.3757 -0.6865 -0.7201
11992TIP3   OH257390   4.277   6.616   0.382 -0.8559 -0.9428 -0.3417
11992TIP3    H157391   4.191   6.632   0.421  1.1169  3.0224  3.2529
11992TIP3    H257392   4.319   6.553   0.441 -0.1767 -0.1397  0.0677
11993TIP3   OH257393   2.673   4.564  12.699  0.1924 -1.0222 -0.0941
11993TIP3    H157394   2.652   4.514  12.619 -2.9857  0.2491 -0.2278
11993TIP3    H257395   2.607   4.535  12.762  1.9110 -1.1136  1.7381
11994TIP3   OH257396   2.329   4.440  15.248 -0.3478  0.1621  0.2401
11994TIP3    H157397   2.331   4.446  15.343  1.0086 -1.2036  0.3414
11994TIP3    H257398   2.258   4.380  15.229  0.4545 -0.9119  0.5250
11995TIP3   OH257399   5.954   0.423  15.105 -0.9333 -0.0781 -0.1575
11995TIP3    H157400   5.886   0.452  15.166 -0.3524 -1.3962  1.1984
11995TIP3    H257401   5.913   0.429  15.019 -2.4363  0.1016  0.5287
11996TIP3   OH257402   2.745   2.952  11.678  0.3240  0.3214 -1.0353
11996TIP3    H157403   2.711   2.891  11.742  0.5780  0.1709 -1.0416
11996TIP3    H257404   2.670   2.974  11.623 -0.0981  1.0999 -0.1833
11997TIP3   OH257405   0.227   0.374  14.711 -0.6249 -0.2629 -0.4997
11997TIP3    H157406   0.276   0.450  14.741  0.2462 -0.6521 -0.8936
11997TIP3    H257407   0.291   0.322  14.662 -1.6508 -0.3106 -1.8556
11998TIP3   OH257408   5.677   3.133   0.368 -0.6007  0.5130 -0.0565
11998TIP3    H157409   5.603   3.175   0.325 -2.1634 -0.9434  1.1032
11998TIP3    H257410   5.671   3.041   0.342  1.6519  0.5877 -1.0583
11999TIP3   OH257411   5.918   1.674  13.103  0.1151 -0.2945 -0.0167
11999TIP3    H157412   5.899   1.641  13.016  3.5544  0.7318 -1.3309
11999TIP3    H257413   5.922   1.596  13.158 -2.5748 -0.9096 -0.5736
12000TIP3   OH257414   5.054   1.785   5.532 -0.7068 -0.4446 -0.0025
12000TIP3    H157415   5.018   1.764   5.618 -0.7818 -1.8371 -0.3501
12000TIP3    H257416   5.119   1.717   5.516 -1.2892 -0.7008 -1.4070
12001TIP3   OH257417   0.163   3.941  13.967  0.2347 -0.7426 -0.0128
12001TIP3    H157418   0.141   3.984  14.050  2.3389  1.8063 -0.6280
12001TIP3    H257419   0.080   3.937  13.919 -1.2144 -3.0424  2.4086
12002TIP3   OH257420   0.135   1.888  16.626 -0.2726 -0.1138  0.8962
12002TIP3    H157421   0.092   1.957  16.577  0.2181 -1.0533 -0.9508
12002TIP3    H257422   0.150   1.818  16.562 -0.2972 -1.7410  2.5635
12003TIP3   OH257423   4.775   5.773   2.070 -0.0822  0.1706  0.5738
12003TIP3    H157424   4.813   5.777   1.982 -0.0437 -1.8056  0.4615
12003TIP3    H257425   4.682   5.755   2.055 -0.0343 -0.3832  0.9447
12004TIP3   OH257426   1.782   0.026   4.645  0.0111  0.7395 -0.0407
12004TIP3    H157427   1.864   0.028   4.694 -1.0063 -1.5790  1.9346
12004TIP3    H257428   1.716   0.055   4.707 -1.3174 -2.2666  0.1241
12005TIP3   OH257429   5.443   2.453  16.681 -0.2946 -0.6969  0.0251
12005TIP3    H157430   5.409   2.388  16.743  0.5486 -0.7746  0.4143
12005TIP3    H257431   5.417   2.537  16.718 -1.3861 -0.7889 -0.4789
12006TIP3   OH257432   5.708   1.657  15.349 -0.0162  0.0088  0.2300
12006TIP3    H157433   5.739   1.612  15.270  1.2266  1.0409  0.0987
12006TIP3    H257434   5.751   1.611  15.421 -0.1757 -0.1523  0.2237
12007TIP3   OH257435   4.239   1.056   5.346  0.0599 -0.0500  0.0633
12007TIP3    H157436   4.331   1.081   5.362  0.5047 -1.3275 -0.3759
12007TIP3    H257437   4.217   0.999   5.419 -0.6430  0.8125  0.5518
12008TIP3   OH257438   6.284   0.494  16.586  0.0681 -0.5512 -0.0650
12008TIP3    H157439   6.362   0.444  16.609 -0.3924 -1.0942  0.3569
12008TIP3    H257440   6.259   0.462  16.500  1.8810  1.5879 -1.5022
12009TIP3   OH257441   0.732   3.943   4.942  0.0380  0.5182  1.1146
12009TIP3    H157442   0.777   4.027   4.951 -1.4524  1.2597  2.0529
12009TIP3    H257443   0.709   3.937   4.850  1.6018  0.3397  0.7116
12010TIP3   OH257444   5.850   4.029   2.925 -0.3433 -0.1694 -0.4661
12010TIP3    H157445   5.919   3.994   2.982  0.1234  0.6505 -0.5111
12010TIP3    H257446   5.840   4.120   2.953 -0.5275  0.0707 -1.3005
12011TIP3   OH257447   3.903   3.036   3.046  0.5619  0.5401  0.4992
12011TIP3    H157448   3.995   3.028   3.071  0.7354  0.6639 -0.0881
12011TIP3    H257449   3.890   3.129   3.029 -0.2760  0.8998  2.8151
12012TIP3   OH257450   0.494   6.653  16.859 -0.2633 -0.5571  0.3250
12012TIP3    H157451   0.559   6.698  16.912 -0.1154  1.5212 -1.4997
12012TIP3    H257452   0.421   6.714  16.853 -0.5803 -1.0401 -1.2190
12013TIP3   OH257453   5.675   0.803  15.334 -0.6979  0.1827 -0.3038
12013TIP3    H157454   5.651   0.780  15.244 -0.5510 -0.9529 -0.0651
12013TIP3    H257455   5.604   0.768  15.387  0.5705 -1.6930  0.2578
12014TIP3   OH257456   0.588   5.636  13.022  0.5381 -0.6701 -0.2294
12014TIP3    H157457   0.616   5.674  12.939 -0.2125 -0.5946 -0.4601
12014TIP3    H257458   0.585   5.709  13.083 -0.7816 -0.3531 -0.6394
12015TIP3   OH257459   2.121   3.440  16.059  0.0345  0.3309  0.1549
12015TIP3    H157460   2.038   3.461  16.016  0.0215  0.1005  0.0638
12015TIP3    H257461   2.188   3.469  15.997  0.0538  1.9777  0.9118
12016TIP3   OH257462   2.624   6.705  12.867  0.1293  0.2032 -0.4362
12016TIP3    H157463   2.632   6.770  12.937 -2.7096 -1.6966  1.8664
12016TIP3    H257464   2.530   6.687  12.861  0.6554 -2.7062 -1.8716
12017TIP3   OH257465   5.767   1.024   5.634  0.0540  0.1405 -0.0145
12017TIP3    H157466   5.842   0.964   5.636  0.0445  0.1455  0.6552
12017TIP3    H257467   5.703   0.985   5.693  0.3550  1.1973  1.0402
12018TIP3   OH257468   2.465   6.012  11.222  0.4122 -0.4203  0.9226
12018TIP3    H157469   2.411   6.090  11.217 -1.5574 -1.7784 -1.8073
12018TIP3    H257470   2.419   5.948  11.167  2.4329 -3.1862  2.2286
12019TIP3   OH257471   3.636   5.622  16.559  0.5833 -0.4848  0.0037
12019TIP3    H157472   3.573   5.550  16.558 -0.3261  0.3020 -0.7250
12019TIP3    H257473   3.610   5.675  16.634  1.4432 -1.0480  0.7279
12020TIP3   OH257474   3.798   5.203   1.108 -0.2631  0.5866  0.0953
12020TIP3    H157475   3.857   5.278   1.119  1.7334 -1.1284  1.6044
12020TIP3    H257476   3.809   5.178   1.016  3.8708 -1.5548  0.9752
12021TIP3   OH257477   4.813   5.148   4.819 -0.0612 -0.1461 -0.2079
12021TIP3    H157478   4.898   5.136   4.862 -0.8034  0.1012  1.3573
12021TIP3    H257479   4.809   5.077   4.755  1.6340  0.2764 -0.8557
12022TIP3   OH257480   2.418   1.159   1.844 -0.2849 -0.6284 -0.0789
12022TIP3    H157481   2.357   1.085   1.845  0.7376 -1.5065 -0.5257
12022TIP3    H257482   2.464   1.151   1.760  0.8781 -0.3676  0.5092
12023TIP3   OH257483   3.187   3.537  15.097  0.6270 -0.3355 -0.1553
12023TIP3    H157484   3.245   3.535  15.173  0.3325 -2.7354  0.0652
12023TIP3    H257485   3.124   3.606  15.118  1.0014 -0.4245  1.4473
12024TIP3   OH257486   0.511   2.047   4.685  0.0794 -0.3096  0.1937
12024TIP3    H157487   0.527   2.063   4.592  0.7200 -0.7595  0.2151
12024TIP3    H257488   0.482   2.131   4.720  1.3010  0.2568 -0.1051
12025TIP3   OH257489   0.470   3.455  12.065 -0.5519  0.2408 -0.2290
12025TIP3    H157490   0.498   3.403  11.990  1.3994  1.7769 -0.6496
12025TIP3    H257491   0.517   3.417  12.139  1.2195  1.5437 -0.6050
12026TIP3   OH257492   1.991   1.797   0.717  0.2480  0.0046 -0.4079
12026TIP3    H157493   2.024   1.838   0.797  1.9940 -1.3200 -0.3705
12026TIP3    H257494   1.897   1.815   0.717  0.4032  1.0217  1.3287
12027TIP3   OH257495   3.082   1.887  12.635  0.0845  0.1891  0.0556
12027TIP3    H157496   3.153   1.890  12.570  1.7211  1.7572  1.7528
12027TIP3    H257497   3.054   1.796  12.637 -0.0741  0.0882 -2.8175
12028TIP3   OH257498   0.012   1.464   4.901  0.5075  0.1975  0.1621
12028TIP3    H157499  -0.037   1.464   4.984  2.5043  3.8296  1.5792
12028TIP3    H257500  -0.053   1.484   4.834 -0.8417 -0.8722  1.1102
12029TIP3   OH257501   4.681   2.371   2.462  0.2054 -0.2962 -0.0889
12029TIP3    H157502   4.720   2.453   2.494  1.5719 -0.4094 -1.3737
12029TIP3    H257503   4.741   2.303   2.493 -0.6049 -0.7741  0.4592
12030TIP3   OH257504   4.571   4.763   6.003 -0.2534  0.1032  0.1701
12030TIP3    H157505   4.575   4.778   6.098 -0.0331 -0.0055  0.1798
12030TIP3    H257506   4.662   4.773   5.974  0.2365 -2.7247  0.4110
12031TIP3   OH257507   1.633   2.089   4.981 -0.4715  0.0457  0.1333
12031TIP3    H157508   1.669   2.177   4.992  0.8403 -0.5527  0.8334
12031TIP3    H257509   1.648   2.046   5.065 -1.4129 -0.7548 -0.0823
12032TIP3   OH257510   3.226   5.221  15.060  0.5136  0.2245  0.0787
12032TIP3    H157511   3.254   5.303  15.100  0.7035  1.7485 -2.8966
12032TIP3    H257512   3.164   5.247  14.992  1.9765 -1.8337 -2.2262
12033TIP3   OH257513   0.867   1.398  12.217  0.1175  0.3338 -0.0007
12033TIP3    H157514   0.923   1.322  12.225 -0.0819 -0.0659 -1.7916
12033TIP3    H257515   0.829   1.411  12.304  3.2163  0.8630  1.3811
12034TIP3   OH257516   1.594   3.453  12.164 -0.6804 -0.4088  0.2198
12034TIP3    H157517   1.686   3.426  12.157 -0.2229  1.3797 -1.7221
12034TIP3    H257518   1.566   3.420  12.249  1.6328 -1.3475  0.7044
12035TIP3   OH257519   5.964   5.176  17.221  0.0796 -0.6042  0.3055
12035TIP3    H157520   5.909   5.230  17.277  0.8727  0.1030  0.4228
12035TIP3    H257521   5.924   5.089  17.224 -0.0598 -0.5088  1.7417
12036TIP3   OH257522   5.999   0.177   5.306  0.8319  0.1098 -0.1165
12036TIP3    H157523   6.048   0.100   5.335  1.7338  0.2057 -1.3176
12036TIP3    H257524   6.028   0.191   5.216  0.2717  1.5263 -0.0947
12037TIP3   OH257525   3.325   3.046   0.868 -0.1106 -0.0734 -0.5392
12037TIP3    H157526   3.259   3.116   0.862  1.3914  1.9151  2.9988
12037TIP3    H257527   3.404   3.084   0.831 -0.3168 -1.6983 -2.8461
12038TIP3   OH257528   5.598   0.233  14.770 -0.3055  0.0554  0.1708
12038TIP3    H157529   5.598   0.174  14.845 -0.9359 -0.7880 -0.4753
12038TIP3    H257530   5.517   0.283  14.778 -0.5778 -0.3222 -0.1505
12039TIP3   OH257531   3.223   4.866  13.602 -0.1615 -0.0051 -0.0341
12039TIP3    H157532   3.244   4.878  13.510  1.9104  3.1689  0.6828
12039TIP3    H257533   3.187   4.950  13.629  0.9303 -0.2324  2.3947
12040TIP3   OH257534   4.457   1.261  13.475  0.5030  0.1447  0.6417
12040TIP3    H157535   4.447   1.353  13.500 -1.0129  0.0646  0.4407
12040TIP3    H257536   4.537   1.259  13.422  0.2032  1.4656  0.0926
12041TIP3   OH257537   3.302   6.533   3.076 -0.0384  0.1696 -0.4763
12041TIP3    H157538   3.211   6.517   3.053  0.4929 -1.0536 -1.8958
12041TIP3    H257539   3.325   6.463   3.137  0.3062 -0.3087 -1.1463
12042TIP3   OH257540   0.715   1.312  14.808  0.7761 -0.3752  0.1089
12042TIP3    H157541   0.657   1.292  14.882  1.8458 -0.1284  1.0387
12042TIP3    H257542   0.661   1.297  14.731 -0.6220  0.1242  0.9458
12043TIP3   OH257543   3.762   4.139  15.325  0.4433 -0.0746  0.5264
12043TIP3    H157544   3.711   4.209  15.285  2.1011  0.5901 -0.5647
12043TIP3    H257545   3.753   4.065  15.265 -0.9297 -0.6728  1.4373
12044TIP3   OH257546   0.928   6.434  13.000  0.3895 -0.1153  0.2256
12044TIP3    H157547   0.922   6.338  13.000  2.9842 -0.3567  1.1697
12044TIP3    H257548   0.961   6.456  13.087  1.0922  1.5178 -0.4143
12045TIP3   OH257549   4.171   4.228   3.111  0.2288  0.1431  0.0610
12045TIP3    H157550   4.096   4.170   3.096  1.2367 -1.8955  2.4370
12045TIP3    H257551   4.141   4.289   3.179  0.6778 -0.6352  0.9692
12046TIP3   OH257552   6.014   3.400   3.631 -0.4079 -0.3167  0.3587
12046TIP3    H157553   6.034   3.364   3.718 -3.9519  0.6977  1.7560
12046TIP3    H257554   6.064   3.482   3.627 -0.5678 -0.1372  1.6619
12047TIP3   OH257555   2.222   4.664  14.417  0.1234 -0.0017 -0.2795
12047TIP3    H157556   2.211   4.569  14.414  1.4272 -0.2153  0.8415
12047TIP3    H257557   2.304   4.677  14.465 -1.4994  1.7552  2.2545
12048TIP3   OH257558   2.181   6.732   3.943 -0.9151  0.2884 -0.3365
12048TIP3    H157559   2.165   6.823   3.966 -1.3737  0.1639 -0.1535
12048TIP3    H257560   2.233   6.698   4.016 -2.9070 -0.2795  0.8994
12049TIP3   OH257561   1.695   2.004  16.648  0.0723 -0.4629 -0.8374
12049TIP3    H157562   1.703   2.057  16.727 -0.1097 -0.4144 -0.8513
12049TIP3    H257563   1.601   1.993  16.635  0.0923 -0.1672 -1.2508
12050TIP3   OH257564   3.290   6.273   5.025  0.1620  0.1615  0.2581
12050TIP3    H157565   3.247   6.351   5.061  1.6021  1.5029 -0.7967
12050TIP3    H257566   3.264   6.273   4.933 -0.0064 -0.7667  0.2949
12051TIP3   OH257567   6.359   6.476  13.390  0.1534  0.1554  0.2764
12051TIP3    H157568   6.384   6.505  13.478 -2.0913 -0.5660  1.2189
12051TIP3    H257569   6.396   6.542  13.331  0.0258  1.7645  1.9170
12052TIP3   OH257570   4.743   1.122   6.349 -0.1422  0.0424  0.4514
12052TIP3    H157571   4.835   1.112   6.376 -0.4952 -1.4992  1.2365
12052TIP3    H257572   4.695   1.130   6.431 -0.5856  2.6487  0.0027
12053TIP3   OH257573   3.710   6.023  11.674 -0.6508 -0.4119 -0.4254
12053TIP3    H157574   3.657   6.097  11.643 -0.5054 -0.3389 -0.4987
12053TIP3    H257575   3.688   5.951  11.616 -0.1353 -0.1898 -0.9136
12054TIP3   OH257576   6.252   4.410   3.457  0.2604 -0.5062 -0.0061
12054TIP3    H157577   6.248   4.334   3.516  0.7645 -0.2808  0.3206
12054TIP3    H257578   6.188   4.471   3.493 -0.4120 -0.9136 -0.4787
12055TIP3   OH257579   5.941   1.628   5.416 -0.4801  0.0123  0.0368
12055TIP3    H157580   5.856   1.583   5.419 -0.2243 -0.4315  1.2160
12055TIP3    H257581   5.937   1.689   5.490  0.3460 -0.2355  0.2907
12056TIP3   OH257582   5.854   1.717   2.089  0.2881  0.6421  0.5121
12056TIP3    H157583   5.788   1.761   2.035  0.0424  2.1844  2.0008
12056TIP3    H257584   5.839   1.749   2.178  2.0819 -0.1480  1.1608
12057TIP3   OH257585   1.047   3.974  17.250  0.4763  0.2648 -0.4798
12057TIP3    H157586   1.066   4.043  17.314 -2.4080  1.5070 -0.8322
12057TIP3    H257587   1.133   3.949  17.217  1.9656  0.7110  2.6501
12058TIP3   OH257588   1.601   4.402   3.060  0.8309  0.7149 -0.1345
12058TIP3    H157589   1.631   4.483   3.100  0.6727  0.3418  0.7520
12058TIP3    H257590   1.658   4.390   2.984 -0.1452  2.4724 -1.2125
12059TIP3   OH257591   0.698   5.556  11.040  0.5013  0.5313 -0.2854
12059TIP3    H157592   0.729   5.565  11.130  0.1664  2.2885 -0.3184
12059TIP3    H257593   0.776   5.568  10.986  0.4535  0.9253 -0.2664
12060TIP3   OH257594   0.435   5.687  12.478  0.3338  0.2282  0.2887
12060TIP3    H157595   0.460   5.757  12.417  2.1066 -0.7684 -0.1854
12060TIP3    H257596   0.354   5.652  12.441 -0.7032  2.0872  0.6336
12061TIP3   OH257597   4.292   1.128   3.861  0.8408 -0.0649 -0.3438
12061TIP3    H157598   4.301   1.045   3.815  1.5810  0.0951 -0.4920
12061TIP3    H257599   4.338   1.115   3.944 -1.2309 -0.6499  0.7876
12062TIP3   OH257600   2.623   1.946  11.601  0.2714  0.2370 -0.2300
12062TIP3    H157601   2.647   1.884  11.670  0.1134  0.1124 -0.2866
12062TIP3    H257602   2.704   1.963  11.554  0.1916 -0.4278 -0.6201
12063TIP3   OH257603   0.356   5.149  14.769  0.1697 -0.0709 -0.0916
12063TIP3    H157604   0.283   5.087  14.774 -0.9372  1.2397  1.5079
12063TIP3    H257605   0.348   5.200  14.850  2.4730  0.5749 -0.2250
12064TIP3   OH257606   6.302   2.892  15.976  0.6312  0.7200  0.0331
12064TIP3    H157607   6.303   2.801  16.004 -1.2275  0.3193 -1.1100
12064TIP3    H257608   6.252   2.937  16.044  0.5769  0.6901  0.0136
12065TIP3   OH257609   3.084   4.025  12.375  0.2375 -0.0047  0.0991
12065TIP3    H157610   3.115   3.944  12.418  1.1067  0.2062 -0.1132
12065TIP3    H257611   3.161   4.058  12.329 -0.3078  0.5679 -0.4035
12066TIP3   OH257612   1.670   3.520  14.026  0.1449 -0.2505  0.1085
12066TIP3    H157613   1.576   3.526  14.039  0.0264 -2.5435  0.7295
12066TIP3    H257614   1.707   3.559  14.105 -0.3254 -0.7067  0.5610
12067TIP3   OH257615   3.106   2.947   4.580  0.0008 -0.6393 -0.6711
12067TIP3    H157616   3.186   2.990   4.550  0.5466 -1.1991 -0.0441
12067TIP3    H257617   3.039   2.978   4.519  0.9645 -1.3034 -2.1419
12068TIP3   OH257618   6.708   4.517   5.181 -0.4280 -0.0038 -0.0159
12068TIP3    H157619   6.687   4.565   5.101  1.5808  1.4289  0.2411
12068TIP3    H257620   6.722   4.427   5.152 -0.1008  0.4176 -1.2355
12069TIP3   OH257621   6.318   6.457   4.293 -0.3379  0.5473 -0.0428
12069TIP3    H157622   6.303   6.390   4.225  0.7341  2.0129 -1.8224
12069TIP3    H257623   6.275   6.535   4.260  1.2424  1.6305  0.3534
12070TIP3   OH257624   6.419   2.663  16.738  0.5198  0.5842 -0.3537
12070TIP3    H157625   6.380   2.722  16.802  0.2983 -0.5321  0.5802
12070TIP3    H257626   6.344   2.623  16.693  0.6124 -0.2813  0.2443
12071TIP3   OH257627   5.739   5.639   5.817 -0.0029  0.1107  0.1404
12071TIP3    H157628   5.740   5.717   5.872 -0.3889  0.0571  0.2254
12071TIP3    H257629   5.807   5.655   5.751  0.4081  0.2080  0.5822
12072TIP3   OH257630   5.445   1.129  13.560  0.4056 -0.8031 -0.5330
12072TIP3    H157631   5.374   1.192  13.545  2.0357  0.9863 -1.0777
12072TIP3    H257632   5.408   1.045  13.532 -1.7455 -0.0715 -0.0628
12073TIP3   OH257633   4.429   4.511   2.205  0.5624 -0.6998  0.1967
12073TIP3    H157634   4.433   4.597   2.246  1.5834 -0.2332 -0.8535
12073TIP3    H257635   4.514   4.500   2.163 -0.0598 -1.6327 -0.8658
12074TIP3   OH257636   4.820   3.670   1.374 -0.3121  0.3552  0.4626
12074TIP3    H157637   4.773   3.751   1.391 -0.6572  0.6559 -1.6600
12074TIP3    H257638   4.767   3.624   1.309  0.2047 -1.2974  1.1501
12075TIP3   OH257639   2.015   3.209  13.151 -0.1252  0.6462 -0.0994
12075TIP3    H157640   2.028   3.186  13.059  0.3585 -0.6364  0.2757
12075TIP3    H257641   2.025   3.305  13.153  1.4146  0.5478 -1.1466
12076TIP3   OH257642   1.456   4.245  12.854 -0.8885  0.2548  0.3362
12076TIP3    H157643   1.508   4.285  12.784 -1.9649 -2.4150 -2.1565
12076TIP3    H257644   1.412   4.319  12.896  0.5853  2.0553 -1.1086
12077TIP3   OH257645   6.268   0.557   2.843  0.1483 -0.3891 -0.7556
12077TIP3    H157646   6.239   0.472   2.808  0.6561 -1.1990  0.6949
12077TIP3    H257647   6.363   0.555   2.833  0.1952 -0.1591 -0.3434
12078TIP3   OH257648   2.360   6.107  11.942 -0.3956 -0.5423  0.4326
12078TIP3    H157649   2.331   6.058  11.866 -0.2010 -1.4534  0.9310
12078TIP3    H257650   2.455   6.116  11.930 -0.5363  0.4043 -0.0425
12079TIP3   OH257651   5.651   6.573  10.457  0.2826  0.6766  0.5272
12079TIP3    H157652   5.731   6.525  10.436  0.6472  1.8956 -1.0926
12079TIP3    H257653   5.604   6.516  10.517  0.1927 -2.2458 -2.0691
12080TIP3   OH257654   2.997   3.787  14.085 -0.0767 -0.3494  0.0826
12080TIP3    H157655   3.018   3.838  14.007  1.0622  0.7456  1.0692
12080TIP3    H257656   2.947   3.846  14.140  0.8456 -0.4277  1.0346
12081TIP3   OH257657   6.085   6.183  14.988 -0.4054 -0.1353 -0.6194
12081TIP3    H157658   6.169   6.137  14.985 -1.1385 -1.4590 -1.8662
12081TIP3    H257659   6.109   6.276  14.993  1.1124 -0.5430  0.8183
12082TIP3   OH257660   4.542   0.812  16.633 -0.9363  0.4083 -0.2581
12082TIP3    H157661   4.566   0.887  16.687 -0.3870 -0.3570  0.5706
12082TIP3    H257662   4.527   0.741  16.695 -2.1056 -0.0075 -0.9877
12083TIP3   OH257663   1.376   0.360  14.482 -0.3655  0.1763 -0.1534
12083TIP3    H157664   1.403   0.304  14.409 -0.2090  0.1260 -0.0561
12083TIP3    H257665   1.452   0.363  14.540 -1.0948 -1.2364  0.9075
12084TIP3   OH257666   3.800   6.352  13.079  0.2179 -0.2443 -0.7041
12084TIP3    H157667   3.757   6.383  12.999  1.1114 -1.0695 -1.5307
12084TIP3    H257668   3.826   6.432  13.125  0.9427  0.2506 -1.9404
12085TIP3   OH257669   5.177   6.395   4.164 -0.1039  0.3203 -0.2966
12085TIP3    H157670   5.182   6.480   4.209 -1.0320  0.0408  0.3581
12085TIP3    H257671   5.087   6.366   4.178 -0.7728  0.6818 -3.2226
12086TIP3   OH257672   1.671   4.516   4.251  0.2327 -0.0260  0.5578
12086TIP3    H157673   1.592   4.474   4.286 -2.3314  3.4241 -0.5210
12086TIP3    H257674   1.674   4.488   4.159  0.0373  0.1762  0.4910
12087TIP3   OH257675   3.621   6.184   2.770  0.9134  0.3345  0.9206
12087TIP3    H157676   3.630   6.272   2.735  2.0933  0.9113  2.5848
12087TIP3    H257677   3.562   6.194   2.845 -1.3179 -0.8235 -0.5655
12088TIP3   OH257678   3.019   4.013  17.005 -0.2795 -0.5571  0.1696
12088TIP3    H157679   3.100   3.967  16.983  0.1273 -0.0545  0.6114
12088TIP3    H257680   3.044   4.105  17.012 -1.0193 -0.3103 -0.3368
12089TIP3   OH257681   5.816   3.541   4.536  0.0775 -0.3027 -0.5161
12089TIP3    H157682   5.846   3.489   4.610 -2.0275  0.8411  1.2724
12089TIP3    H257683   5.743   3.491   4.499 -0.3113  0.1770 -0.4058
12090TIP3   OH257684   6.482   2.868   6.350 -0.7461 -0.0435 -0.8889
12090TIP3    H157685   6.476   2.955   6.391 -0.5487  0.4459 -1.8654
12090TIP3    H257686   6.567   2.835   6.379 -1.1628 -0.2557  0.1264
12091TIP3   OH257687   1.615   2.475  16.258 -0.2762  0.5073 -0.1418
12091TIP3    H157688   1.583   2.385  16.268  0.1617  0.2365 -1.0525
12091TIP3    H257689   1.552   2.529  16.305 -0.0335 -0.3618  1.2473
12092TIP3   OH257690   4.557   5.371  11.406 -0.4136 -0.4069  0.3143
12092TIP3    H157691   4.624   5.418  11.355  0.8921 -0.9602  1.4549
12092TIP3    H257692   4.486   5.357  11.344  0.6524 -0.0659 -1.0487
12093TIP3   OH257693   0.931   6.025  15.393  0.1724 -0.6697  0.0894
12093TIP3    H157694   1.003   5.963  15.378  0.6872 -0.5592  1.8532
12093TIP3    H257695   0.942   6.091  15.325  1.3182 -1.0321 -0.1024
12094TIP3   OH257696   2.190   2.774   4.641  0.8062 -0.4613  0.0662
12094TIP3    H157697   2.223   2.862   4.658  0.1239  0.3718 -2.4382
12094TIP3    H257698   2.207   2.725   4.721  2.1868  1.6549  1.1332
12095TIP3   OH257699   4.791   6.243  15.359 -0.1103 -0.4512 -0.1248
12095TIP3    H157700   4.735   6.180  15.313 -0.2983 -0.8511  0.6369
12095TIP3    H257701   4.864   6.259  15.299 -1.0502  0.1139 -1.1587
12096TIP3   OH257702   4.772   2.308   1.986  0.2211  0.3924 -0.2189
12096TIP3    H157703   4.718   2.312   1.907 -1.0790  1.5220  0.6712
12096TIP3    H257704   4.718   2.261   2.050  1.1231 -0.2258  0.1148
12097TIP3   OH257705   1.832   2.458   5.491 -0.1770  0.2521 -0.9042
12097TIP3    H157706   1.901   2.493   5.435  1.9744 -4.4038 -1.6342
12097TIP3    H257707   1.819   2.368   5.459 -1.8757 -1.2844  3.4013
12098TIP3   OH257708   0.061   4.304   0.417 -0.3075 -0.1429  0.3617
12098TIP3    H157709  -0.000   4.261   0.358 -2.4918  1.7584  1.0798
12098TIP3    H257710   0.056   4.254   0.499 -1.5124  0.4039  0.6449
12099TIP3   OH257711   3.288   6.127   6.377  0.3802  0.2047 -0.1844
12099TIP3    H157712   3.359   6.150   6.438  0.0969 -0.3083  0.3563
12099TIP3    H257713   3.246   6.210   6.356  1.3319  0.5495 -0.7504
12100TIP3   OH257714   2.083   4.099   6.122  0.1953 -0.1239  0.1517
12100TIP3    H157715   2.092   4.007   6.146  0.1687 -0.0650  0.3992
12100TIP3    H257716   2.045   4.140   6.200  0.6023  0.1709  0.2013
12101TIP3   OH257717   3.708   0.128   5.581  0.5401  0.0749  0.9287
12101TIP3    H157718   3.764   0.053   5.557 -0.5321 -1.2700  2.4398
12101TIP3    H257719   3.754   0.170   5.653 -0.1310 -0.7543  1.8616
12102TIP3   OH257720   4.532   6.450  16.165 -0.1848 -0.1675 -0.2843
12102TIP3    H157721   4.611   6.504  16.171  1.6050 -2.5504 -0.9556
12102TIP3    H257722   4.514   6.445  16.071 -1.9901  1.4418 -0.0655
12103TIP3   OH257723   0.459   3.899   6.183  0.5424 -0.1509  0.5133
12103TIP3    H157724   0.457   3.804   6.193 -0.3979 -0.5021 -2.1077
12103TIP3    H257725   0.369   3.926   6.203  0.4123 -0.0326 -0.2047
12104TIP3   OH257726   0.892   4.227  11.816 -0.8452  0.5790 -0.2210
12104TIP3    H157727   0.933   4.295  11.762 -0.1136  0.0932 -0.2953
12104TIP3    H257728   0.857   4.164  11.754  0.2649 -0.1379 -0.1608
12105TIP3   OH257729   1.523   5.478  16.513 -0.3734 -0.0232 -0.1316
12105TIP3    H157730   1.567   5.562  16.502 -1.2263  0.5381  0.5307
12105TIP3    H257731   1.549   5.426  16.437  1.2400  0.3448  0.1413
12106TIP3   OH257732   2.338   3.023  16.333 -0.2089 -0.3187  0.3993
12106TIP3    H157733   2.315   3.075  16.256  0.7455  0.4559  0.6117
12106TIP3    H257734   2.315   2.933  16.309  2.7515 -0.6051 -1.9910
12107TIP3   OH257735   2.712   1.133  13.221  0.0995 -0.5221  0.3863
12107TIP3    H157736   2.639   1.104  13.166  0.9954  0.4012 -1.3407
12107TIP3    H257737   2.690   1.223  13.243 -0.1432 -0.8134  1.4316
12108TIP3   OH257738   5.175   0.391   0.073 -0.3095 -0.1940  0.0075
12108TIP3    H157739   5.128   0.325   0.125 -0.6314 -0.6224 -0.8000
12108TIP3    H257740   5.156   0.474   0.117 -0.2937 -0.5800  0.7622
12109TIP3   OH257741   5.128   5.048   2.154 -0.2499  0.0401  0.3041
12109TIP3    H157742   5.136   4.991   2.231 -1.8847 -2.6467 -1.3391
12109TIP3    H257743   5.197   5.017   2.095  0.8200  1.9006  0.5043
12110TIP3   OH257744   5.252   4.003  15.972 -0.0766 -0.2364 -0.1902
12110TIP3    H157745   5.291   3.921  15.944 -1.0061 -1.0099  0.7058
12110TIP3    H257746   5.188   4.024  15.903  0.8064  0.2448 -0.8888
12111TIP3   OH257747   0.763   6.621   1.860  0.3295 -0.2636  0.4078
12111TIP3    H157748   0.821   6.545   1.864 -0.2313 -0.6743  0.9227
12111TIP3    H257749   0.675   6.584   1.863 -0.0022  0.2757 -1.3744
12112TIP3   OH257750   1.842   6.743  12.980  0.1697  0.5967  0.0442
12112TIP3    H157751   1.839   6.647  12.975 -0.4647  0.6788 -2.0614
12112TIP3    H257752   1.771   6.766  13.040 -1.4615 -0.1764 -1.5041
12113TIP3   OH257753   4.942   4.273   2.936  0.1056  0.0341 -0.2449
12113TIP3    H157754   4.887   4.232   2.870 -0.3758 -0.1360  0.2566
12113TIP3    H257755   4.986   4.200   2.980  1.7736  0.2158 -1.5129
12114TIP3   OH257756   3.014   3.845   2.157 -0.0776  0.1164  0.4352
12114TIP3    H157757   2.923   3.841   2.186  0.0709  0.5163  0.9729
12114TIP3    H257758   3.035   3.939   2.155  0.2390  0.0435  0.0383
12115TIP3   OH257759   2.811   1.456  11.752  0.1991 -0.1424  0.1201
12115TIP3    H157760   2.877   1.477  11.686  0.1601  0.6030  0.3124
12115TIP3    H257761   2.834   1.511  11.827  0.3871 -1.1477  0.8274
12116TIP3   OH257762   3.873   6.032  13.841 -0.6765  0.8212  0.3524
12116TIP3    H157763   3.870   5.945  13.883 -1.1272  1.2545  1.2640
12116TIP3    H257764   3.873   6.014  13.747 -0.2529 -0.1772  0.5323
12117TIP3   OH257765   3.652   2.019  15.432 -0.1367  0.5409 -0.1661
12117TIP3    H157766   3.734   1.972  15.412  0.4971  0.6334  1.9959
12117TIP3    H257767   3.604   1.959  15.489 -0.3236  1.5983  0.8177
12118TIP3   OH257768   5.392   3.156   5.099 -0.1302 -0.0033  0.5658
12118TIP3    H157769   5.350   3.221   5.042 -2.0282 -0.1975  1.6623
12118TIP3    H257770   5.485   3.179   5.097 -0.5875  2.0195 -0.0236
12119TIP3   OH257771   3.105   0.157   6.303  0.4923 -0.2272 -0.2247
12119TIP3    H157772   3.130   0.179   6.392 -0.3744 -0.3845  0.0652
12119TIP3    H257773   3.036   0.219   6.281 -0.9410 -1.6340  0.0764
12120TIP3   OH257774   1.079   1.866  12.398  0.7400 -0.2507 -0.1387
12120TIP3    H157775   0.994   1.824  12.408 -0.0356  0.7942 -1.9236
12120TIP3    H257776   1.124   1.815  12.330  0.1895  1.1217 -1.5866
12121TIP3   OH257777   0.632   1.754   1.268 -0.1468  0.2535 -0.3593
12121TIP3    H157778   0.569   1.769   1.338  0.5268 -1.6022  0.7166
12121TIP3    H257779   0.715   1.740   1.313  0.4838 -0.1307 -1.5802
12122TIP3   OH257780   0.623   6.057  16.895 -0.7164  0.2817 -0.3584
12122TIP3    H157781   0.656   5.974  16.927 -0.6012 -0.0285 -1.2404
12122TIP3    H257782   0.563   6.033  16.824 -3.3833  0.7969  1.5967
12123TIP3   OH257783   5.382   1.856  17.333 -0.3821 -0.0366  0.7071
12123TIP3    H157784   5.438   1.908  17.276 -0.1626 -0.8236  0.1855
12123TIP3    H257785   5.443   1.807  17.389 -0.4879 -1.4644 -0.3686
12124TIP3   OH257786   6.611   1.054   2.171  0.1311 -0.4531 -0.0989
12124TIP3    H157787   6.529   1.088   2.135  0.8049 -0.9493 -2.2463
12124TIP3    H257788   6.656   1.016   2.096  2.5219  0.1404  0.9569
12125TIP3   OH257789   3.318   0.871   2.193  0.0975 -0.6560 -0.6338
12125TIP3    H157790   3.335   0.890   2.101 -1.7869  0.0874 -0.8855
12125TIP3    H257791   3.322   0.956   2.236  1.0018 -1.0083 -0.0036
12126TIP3   OH257792   1.409   5.357  11.651 -0.3815  0.0905 -0.6736
12126TIP3    H157793   1.469   5.330  11.581  0.9901 -0.0869  0.5435
12126TIP3    H257794   1.361   5.431  11.614  2.5242  2.0955 -0.7814
12127TIP3   OH257795   3.960   1.444   5.154 -0.2254  0.2023  0.0153
12127TIP3    H157796   3.892   1.392   5.111  0.1112 -0.3752  0.1726
12127TIP3    H257797   4.040   1.423   5.106  0.0332  0.0531  0.5055
12128TIP3   OH257798   6.003   4.964   1.488 -0.1787 -0.1709  0.5070
12128TIP3    H157799   6.067   4.914   1.540  0.0261  0.7271  1.1453
12128TIP3    H257800   5.997   5.048   1.533 -1.5210 -0.0941  0.2213
12129TIP3   OH257801   2.660   4.303   2.241 -0.4399  0.1435 -0.3184
12129TIP3    H157802   2.579   4.281   2.288  1.0293 -2.6476  1.1627
12129TIP3    H257803   2.684   4.390   2.273 -0.8373 -0.6193  2.2776
12130TIP3   OH257804   0.763   3.773  15.554  0.0603  0.3692 -1.0623
12130TIP3    H157805   0.799   3.850  15.510  1.5986  0.6190  0.5179
12130TIP3    H257806   0.839   3.730  15.593 -1.2528  1.2006  2.9276
12131TIP3   OH257807   2.583   1.645   3.495  0.4186 -0.3525  0.6619
12131TIP3    H157808   2.530   1.702   3.551 -0.9289  0.6137 -1.4902
12131TIP3    H257809   2.673   1.660   3.524 -0.1751  0.5515  2.1546
12132TIP3   OH257810   2.297   2.816  11.196 -0.0190  0.6432 -0.3134
12132TIP3    H157811   2.352   2.892  11.179 -0.7527  1.4169  0.5983
12132TIP3    H257812   2.286   2.773  11.111  1.2414  0.9690 -0.6509
12133TIP3   OH257813   4.253   1.413   0.699 -0.3254  0.2013  0.0448
12133TIP3    H157814   4.180   1.441   0.754 -0.5201  0.2311 -0.2277
12133TIP3    H257815   4.267   1.485   0.638  1.5014  1.2658  1.5941
12134TIP3   OH257816   2.000   2.639   4.825  0.7457 -0.3785  0.2489
12134TIP3    H157817   1.954   2.560   4.797  0.2682 -0.4907  1.3036
12134TIP3    H257818   1.964   2.708   4.769 -1.8973 -0.1702  1.9981
12135TIP3   OH257819   3.407   4.731   4.084 -0.2015  0.1030  0.5306
12135TIP3    H157820   3.353   4.669   4.034  0.2411 -0.2458  0.4795
12135TIP3    H257821   3.490   4.686   4.095  0.6163  1.2270 -0.7111
12136TIP3   OH257822   4.610   1.702  11.677 -0.1192  0.4768  0.6496
12136TIP3    H157823   4.564   1.636  11.730 -0.7893 -0.3335 -0.8994
12136TIP3    H257824   4.646   1.653  11.603  0.9143  1.5726  0.3913
12137TIP3   OH257825   5.105   3.275  15.765 -0.3666 -0.2745  0.4409
12137TIP3    H157826   5.160   3.303  15.692  0.1992 -0.3386  0.8281
12137TIP3    H257827   5.016   3.289  15.735 -0.1297  0.4407  0.0253
12138TIP3   OH257828   6.527   6.291  14.821  0.2727  0.0847 -0.3913
12138TIP3    H157829   6.439   6.301  14.784  0.1261 -0.5030 -0.2036
12138TIP3    H257830   6.583   6.343  14.763 -0.0282 -0.4280 -1.1621
12139TIP3   OH257831   2.798   3.651   6.098  0.5256  0.1546  0.3187
12139TIP3    H157832   2.776   3.566   6.136  0.2280  0.0593 -0.0614
12139TIP3    H257833   2.804   3.710   6.173  1.4905 -0.3563  0.6594
12140TIP3   OH257834   1.702   2.738   4.496  0.1446  0.5381 -0.2552
12140TIP3    H157835   1.746   2.660   4.463 -1.3291 -0.1635 -0.6541
12140TIP3    H257836   1.762   2.774   4.562  2.2194  0.7879 -2.1416
12141TIP3   OH257837   5.420   5.404  12.989  0.1707 -0.3740 -0.2196
12141TIP3    H157838   5.347   5.455  12.956  0.5561  0.9215  0.8220
12141TIP3    H257839   5.498   5.451  12.960  0.5242  0.1606  1.4930
12142TIP3   OH257840   1.951   1.452  16.408 -0.6418 -0.2710  0.7931
12142TIP3    H157841   1.865   1.492  16.399 -0.5021  0.5932  2.6410
12142TIP3    H257842   2.010   1.526  16.427  0.5088 -0.8430 -0.4041
12143TIP3   OH257843   0.114   6.315   6.036 -0.0047 -0.0819  0.3352
12143TIP3    H157844   0.137   6.237   6.086 -0.7772 -0.8520 -0.4629
12143TIP3    H257845   0.198   6.356   6.016  0.4320 -0.8208  0.5996
12144TIP3   OH257846   3.804   5.676  13.512  0.0128  0.2584 -0.4452
12144TIP3    H157847   3.750   5.610  13.554  0.0823 -0.1618 -0.9968
12144TIP3    H257848   3.832   5.635  13.430  1.8191  0.1448  0.1690
12145TIP3   OH257849   4.036   1.133   4.831 -0.0085 -0.3939 -0.1486
12145TIP3    H157850   3.982   1.060   4.802  0.0985 -0.4345 -0.2479
12145TIP3    H257851   4.053   1.115   4.924 -0.0189 -0.4715 -0.1620
12146TIP3   OH257852   2.450   2.150  17.172  0.2467 -0.7922  0.1067
12146TIP3    H157853   2.526   2.164  17.230  3.1240  1.3233 -3.6616
12146TIP3    H257854   2.465   2.064  17.133  0.8180 -0.3610 -0.6614
12147TIP3   OH257855   3.830   1.833   4.414 -0.4050 -0.0892  0.1800
12147TIP3    H157856   3.798   1.764   4.357 -0.7452 -0.6602  1.0525
12147TIP3    H257857   3.757   1.895   4.421 -0.8124 -0.6490  0.9868
12148TIP3   OH257858   0.271   3.779   5.062 -0.0897  0.0149 -0.3881
12148TIP3    H157859   0.283   3.755   5.154 -0.2443 -0.7086 -0.5523
12148TIP3    H257860   0.359   3.796   5.029 -0.1218  1.5313  0.2136
12149TIP3   OH257861   3.974   3.994   5.709  0.5194 -0.5448  0.3922
12149TIP3    H157862   4.022   4.077   5.715 -0.7962  0.4343 -1.5495
12149TIP3    H257863   4.010   3.951   5.631  0.4980 -1.3581  0.8129
12150TIP3   OH257864   3.367   1.326  12.909  0.1205  0.0236 -0.1489
12150TIP3    H157865   3.411   1.402  12.871 -0.7686  0.3038 -0.6385
12150TIP3    H257866   3.392   1.253  12.853 -1.3124  0.4584 -1.4474
12151TIP3   OH257867   3.029   5.423  14.607 -0.2509  0.2655  0.7877
12151TIP3    H157868   3.071   5.508  14.620 -0.1753  0.0782  1.8927
12151TIP3    H257869   3.088   5.360  14.648  0.8841 -0.6642 -2.0918
12152TIP3   OH257870   0.148   1.032  17.371 -0.0407  0.4728  0.6491
12152TIP3    H157871   0.065   1.034  17.419 -0.9487 -0.6082 -0.8125
12152TIP3    H257872   0.156   1.120  17.334 -0.9913  0.3232  0.0676
12153TIP3   OH257873   5.744   0.244  11.879 -0.2876  0.0504  0.3660
12153TIP3    H157874   5.738   0.332  11.915 -1.2115  0.0119  0.3305
12153TIP3    H257875   5.793   0.254  11.798 -2.3661  0.9571 -0.8727
12154TIP3   OH257876   1.488   0.802   2.621 -0.3702  0.2240  0.6697
12154TIP3    H157877   1.530   0.729   2.667 -0.1949  1.3249  2.3379
12154TIP3    H257878   1.394   0.789   2.638 -0.7895 -1.6855 -2.2469
12155TIP3   OH257879   5.057   5.552   2.381  0.3260  0.2424  0.0147
12155TIP3    H157880   5.049   5.548   2.476 -1.2268  0.3046 -0.0905
12155TIP3    H257881   5.121   5.484   2.360 -1.4861 -1.8674  0.8967
12156TIP3   OH257882   6.714   5.332  14.102 -0.4209 -0.5852  0.0160
12156TIP3    H157883   6.730   5.385  14.179  1.0300 -1.1897  0.1545
12156TIP3    H257884   6.798   5.328  14.057 -1.3247  0.0794 -1.8195
12157TIP3   OH257885   1.656   6.577  11.627  0.1938  0.0327  0.2370
12157TIP3    H157886   1.747   6.549  11.613 -0.4446 -2.8244  1.0294
12157TIP3    H257887   1.647   6.580  11.723 -0.1202  2.1243  0.1870
12158TIP3   OH257888   6.665   0.203   4.336 -0.7850 -0.1612 -0.0461
12158TIP3    H157889   6.740   0.181   4.390 -0.7156  1.0641  0.3946
12158TIP3    H257890   6.597   0.229   4.398 -1.5649 -1.1943 -0.4398
12159TIP3   OH257891   5.910   2.938   1.461  0.1825 -0.2455  0.8168
12159TIP3    H157892   5.974   2.999   1.496 -1.1626  2.3310 -0.8553
12159TIP3    H257893   5.958   2.888   1.395  0.7345  1.0104  0.2297
12160TIP3   OH257894   1.474   4.704   2.242  0.0295 -0.2866 -0.5298
12160TIP3    H157895   1.401   4.716   2.181 -0.2925 -0.1132 -0.1193
12160TIP3    H257896   1.461   4.617   2.278 -0.1121 -0.1649 -0.2823
12161TIP3   OH257897   2.007   6.488  12.624  0.2263  0.3610 -0.2629
12161TIP3    H157898   2.083   6.433  12.603 -0.5247 -0.2489 -1.4756
12161TIP3    H257899   2.043   6.559  12.677  1.4940 -0.3851 -0.0790
12162TIP3   OH257900   5.093   3.996   0.291 -0.5654 -0.4412 -0.0455
12162TIP3    H157901   5.150   3.946   0.350 -0.3848  1.2185  1.2626
12162TIP3    H257902   5.143   4.075   0.270 -0.0785 -1.4886 -3.5289
12163TIP3   OH257903   0.980   2.859  12.359 -0.4069 -0.2933  0.6597
12163TIP3    H157904   1.041   2.924  12.391  0.5984 -0.4909 -0.7595
12163TIP3    H257905   1.034   2.785  12.333 -1.3054 -0.7735  0.0760
12164TIP3   OH257906   0.724   4.037   3.343  0.3259  0.2604  0.5125
12164TIP3    H157907   0.800   3.983   3.367 -0.2776 -1.1402 -0.5746
12164TIP3    H257908   0.649   3.980   3.356 -0.2043  0.2062 -2.2650
12165TIP3   OH257909   0.315   2.275  12.063  0.2317  0.2350 -0.5859
12165TIP3    H157910   0.239   2.255  12.009 -1.1909  1.3265  0.9414
12165TIP3    H257911   0.377   2.317  12.003 -1.5644  2.0320 -1.2774
12166TIP3   OH257912   3.380   2.328   6.175  0.4300 -0.1016 -0.2385
12166TIP3    H157913   3.364   2.407   6.125 -1.5117 -1.0424 -1.2157
12166TIP3    H257914   3.367   2.354   6.267  0.3720  0.8144 -0.4992
12167TIP3   OH257915   2.205   1.793  12.034 -0.1710  0.4101 -0.1804
12167TIP3    H157916   2.146   1.865  12.055 -1.2314 -0.7982  1.1629
12167TIP3    H257917   2.292   1.824  12.061 -0.9267  0.3927  2.5252
12168TIP3   OH257918   2.266   0.041   0.794  0.1642 -0.5471  0.1726
12168TIP3    H157919   2.275  -0.010   0.714  0.3756 -0.8450  0.3824
12168TIP3    H257920   2.231   0.125   0.766 -1.5553 -1.2825 -0.0354
12169TIP3   OH257921   5.108   1.476  16.842 -0.0055  0.0356 -0.1648
12169TIP3    H157922   5.160   1.555  16.831  0.7563 -0.4627 -0.2568
12169TIP3    H257923   5.159   1.407  16.799 -0.2207 -0.6678  0.6694
12170TIP3   OH257924   4.951   1.387  12.947  0.4592 -0.4142 -0.0037
12170TIP3    H157925   4.960   1.356  13.037  1.3069 -0.1065  0.0203
12170TIP3    H257926   4.920   1.310  12.899 -1.3055 -0.2471  0.7660
12171TIP3   OH257927   0.935   4.049   1.225  0.5868  0.0843 -0.4119
12171TIP3    H157928   0.964   4.139   1.214  0.6526  0.2302  0.7684
12171TIP3    H257929   0.840   4.055   1.231  0.5837  0.0675 -0.4474
12172TIP3   OH257930   3.232   0.446  15.281  0.1313  0.0657  0.1159
12172TIP3    H157931   3.267   0.389  15.212  0.7407  1.4722 -0.7902
12172TIP3    H257932   3.150   0.405  15.307 -0.8815  0.2193 -2.4954
12173TIP3   OH257933   0.866   6.699  17.222  0.3667 -0.6570 -0.1132
12173TIP3    H157934   0.950   6.740  17.242  0.6195 -1.4114  0.4020
12173TIP3    H257935   0.887   6.606  17.212 -0.3475 -0.7946 -0.3575
12174TIP3   OH257936   1.675   3.118   3.014  0.4886 -0.3372  0.0729
12174TIP3    H157937   1.699   3.119   3.107 -2.2759 -1.1617  0.8853
12174TIP3    H257938   1.754   3.085   2.970  1.7217 -0.3950  2.1643
12175TIP3   OH257939   1.202   2.131  16.277  0.2185 -0.6618  0.3055
12175TIP3    H157940   1.152   2.179  16.343  1.6494  0.9994  0.2605
12175TIP3    H257941   1.225   2.048  16.320 -1.3613 -0.8858  0.7891
12176TIP3   OH257942   4.573   4.348  11.329 -0.1898  0.0136  0.3314
12176TIP3    H157943   4.575   4.426  11.273 -2.1215  0.8015  1.2512
12176TIP3    H257944   4.504   4.366  11.392 -0.6161 -2.4283  0.6556
12177TIP3   OH257945   5.399   1.285  13.841 -0.4251 -0.2865 -0.7526
12177TIP3    H157946   5.415   1.208  13.786  3.1430  0.9472 -1.7090
12177TIP3    H257947   5.413   1.360  13.783  1.0839  1.0803  1.2270
12178TIP3   OH257948   6.383   4.465  15.975 -0.3125  0.6881  0.1057
12178TIP3    H157949   6.450   4.397  15.972  0.1669  1.1510  0.2461
12178TIP3    H257950   6.304   4.419  16.002 -0.3047 -0.0432 -1.0627
12179TIP3   OH257951   3.623   4.172   2.112 -0.2856 -0.0504 -0.3801
12179TIP3    H157952   3.542   4.203   2.152 -0.1668 -0.0852 -0.1093
12179TIP3    H257953   3.675   4.141   2.186 -0.2739 -0.5918 -0.6113
12180TIP3   OH257954   5.866   6.501   6.420 -0.3909  0.6823 -0.0938
12180TIP3    H157955   5.922   6.574   6.398  1.6385 -1.0271 -0.9427
12180TIP3    H257956   5.869   6.496   6.516 -0.7987  1.8600 -0.0128
12181TIP3   OH257957   0.381   0.676   0.155 -0.0698  0.2306  0.1734
12181TIP3    H157958   0.313   0.643   0.096  0.5677  1.3997 -1.2849
12181TIP3    H257959   0.463   0.662   0.106  0.6876 -0.5152  1.5956
12182TIP3   OH257960   6.504   0.817   3.376 -0.7545 -0.5594  0.0342
12182TIP3    H157961   6.436   0.750   3.384 -1.3106  0.0116  0.0979
12182TIP3    H257962   6.582   0.768   3.350 -1.8171 -0.9247 -2.8099
12183TIP3   OH257963   4.408   3.785   6.265  0.2367  0.0863  0.5121
12183TIP3    H157964   4.418   3.866   6.315 -0.2327 -0.0128  0.7829
12183TIP3    H257965   4.412   3.716   6.332  0.5019 -0.1043  0.2991
12184TIP3   OH257966   2.981   5.765   0.315 -0.3022 -0.2143  1.1752
12184TIP3    H157967   2.966   5.673   0.294  0.9288 -0.1515 -0.0399
12184TIP3    H257968   2.934   5.778   0.398 -0.1073 -2.0410  1.6131
12185TIP3   OH257969   6.747   0.942   4.774 -0.2793 -0.4814 -0.1131
12185TIP3    H157970   6.678   0.892   4.818 -0.8862  0.0107 -0.4888
12185TIP3    H257971   6.704   1.023   4.746  0.4826 -0.1126 -0.2521
12186TIP3   OH257972   0.658   2.471   5.757 -0.1907 -0.4160  0.0923
12186TIP3    H157973   0.715   2.548   5.760  1.5173 -1.5470 -1.3917
12186TIP3    H257974   0.659   2.436   5.847  0.6508  0.1423  0.3040
12187TIP3   OH257975   3.302   0.218   1.500 -0.1361 -0.3969  0.1749
12187TIP3    H157976   3.218   0.256   1.522  0.5120  0.9180  0.5034
12187TIP3    H257977   3.333   0.177   1.580 -0.2898 -0.5221  0.1682
12188TIP3   OH257978   6.216   0.994   3.523 -0.0996  0.6127 -0.1152
12188TIP3    H157979   6.183   0.938   3.453 -0.5642  0.1705  0.4444
12188TIP3    H257980   6.296   1.033   3.488 -1.5172  2.2294 -1.7722
12189TIP3   OH257981   3.586   1.393   1.199  0.0057  0.4286  0.1479
12189TIP3    H157982   3.537   1.411   1.279  0.5991 -1.3803  0.9548
12189TIP3    H257983   3.654   1.331   1.225  1.8844  1.7749 -1.2329
12190TIP3   OH257984   0.714   3.398  11.353  0.1842 -0.7831 -0.3661
12190TIP3    H157985   0.675   3.484  11.366 -0.5443 -0.9964 -1.0735
12190TIP3    H257986   0.780   3.412  11.284  3.6478  0.2280  2.7850
12191TIP3   OH257987   0.303   6.575  12.102 -0.7453 -0.4002  0.6467
12191TIP3    H157988   0.309   6.664  12.134  0.0426 -0.4571  0.6761
12191TIP3    H257989   0.244   6.531  12.163 -0.1729 -0.2119  1.3429
12192TIP3   OH257990   4.587   5.271  17.216  0.4547 -0.2825  0.5126
12192TIP3    H157991   4.613   5.194  17.165  0.6142 -0.9247  1.5398
12192TIP3    H257992   4.544   5.236  17.294 -0.6099  0.6996  0.3997
12193TIP3   OH257993   3.956   3.674  16.172  0.0488  0.1613 -0.0174
12193TIP3    H157994   3.892   3.720  16.117 -1.0622 -1.1954  0.0951
12193TIP3    H257995   3.948   3.582  16.147  0.5024 -0.3065  1.4497
12194TIP3   OH257996   0.562   3.194   4.697 -0.2416 -0.0084 -0.3177
12194TIP3    H157997   0.629   3.195   4.766 -0.4382 -1.0401 -0.0992
12194TIP3    H257998   0.479   3.196   4.743 -0.3848 -1.3614 -0.4783
12195TIP3   OH257999   2.102   3.653  15.206 -0.2485  0.3507  0.7845
12195TIP3    H158000   2.008   3.664  15.191 -0.1652  1.9985  1.3215
12195TIP3    H258001   2.140   3.646  15.118 -0.9468 -1.3335  0.5784
12196TIP3   OH258002   1.906   1.872   5.902 -0.2248 -0.6820  0.3346
12196TIP3    H158003   2.001   1.872   5.888 -0.3993 -1.7974 -1.1495
12196TIP3    H258004   1.887   1.957   5.942  1.1567  0.3843 -1.1554
12197TIP3   OH258005   0.319   6.579  11.811  0.2796 -0.0269  0.0609
12197TIP3    H158006   0.327   6.586  11.906  1.4680 -2.0709  0.1687
12197TIP3    H258007   0.226   6.593  11.794  0.2723  1.8477  1.3281
12198TIP3   OH258008   1.273   4.094   5.778 -0.1574  0.1308  0.3165
12198TIP3    H158009   1.212   4.036   5.732  1.4001 -0.3316 -1.2875
12198TIP3    H258010   1.282   4.170   5.720  1.1545 -0.0535  0.2353
12199TIP3   OH258011   2.538   2.945  13.546  0.4573 -0.3070  0.0505
12199TIP3    H158012   2.487   2.923  13.468 -1.0501  2.1329  0.2230
12199TIP3    H258013   2.625   2.966  13.512  0.0974 -0.2374 -0.8706
12200TIP3   OH258014   3.034   6.214  15.965  0.4677  0.0929 -0.5297
12200TIP3    H158015   3.027   6.125  15.930  0.2266 -0.4462  0.8387
12200TIP3    H258016   3.059   6.202  16.056  0.8670  1.4551 -0.4429
12201TIP3   OH258017   3.535   3.387   4.612  0.3136  1.1182  0.1937
12201TIP3    H158018   3.486   3.314   4.649  1.3063  1.1096  1.5620
12201TIP3    H258019   3.603   3.405   4.676  0.5258  2.7944 -0.4605
12202TIP3   OH258020   0.181   1.740   2.387 -0.0460  0.1277  1.3587
12202TIP3    H158021   0.091   1.769   2.373  0.2989  0.6558  0.1527
12202TIP3    H258022   0.196   1.755   2.481 -0.9321  0.8087  1.4073
12203TIP3   OH258023   4.937   6.584   1.931 -0.0040 -0.2479  0.0894
12203TIP3    H158024   4.954   6.570   2.024 -0.2906  0.2700  0.2223
12203TIP3    H258025   4.843   6.601   1.925  0.3515  2.0197  0.0240
12204TIP3   OH258026   5.772   6.138  11.604  0.6092 -0.0371  0.6385
12204TIP3    H158027   5.680   6.147  11.579  0.7338  1.5050  0.6039
12204TIP3    H258028   5.808   6.073  11.544 -0.0383  0.6801 -0.5498
12205TIP3   OH258029   0.870   5.163   1.672  0.7681  0.2877 -0.8159
12205TIP3    H158030   0.962   5.152   1.697  0.7811  0.1808 -0.9089
12205TIP3    H258031   0.867   5.247   1.626  0.0998  2.4153  2.7046
12206TIP3   OH258032   4.118   2.597   3.948  0.6425  0.3077 -0.5184
12206TIP3    H158033   4.074   2.574   3.867 -0.6180 -1.5517  0.6103
12206TIP3    H258034   4.066   2.669   3.984  0.6527  0.5105 -0.9060
12207TIP3   OH258035   3.672   2.671   3.689 -0.6246  0.2409  0.2032
12207TIP3    H158036   3.609   2.738   3.662 -0.0153  1.2372  1.1417
12207TIP3    H258037   3.753   2.697   3.645  0.0174  1.0625  1.8002
12208TIP3   OH258038   2.356   6.226  16.643 -0.2874 -0.0225 -0.1279
12208TIP3    H158039   2.417   6.227  16.717 -1.3320 -0.8471  0.7738
12208TIP3    H258040   2.354   6.135  16.615 -1.1837 -0.0319 -0.0631
12209TIP3   OH258041   3.905   5.838   0.684  0.5091  0.2752  0.0975
12209TIP3    H158042   3.922   5.896   0.610  1.3688 -0.7043 -0.5026
12209TIP3    H258043   3.924   5.892   0.762 -0.7777  1.4330 -0.3413
12210TIP3   OH258044   6.222   3.177   4.869  0.2620 -0.0092 -0.0129
12210TIP3    H158045   6.219   3.218   4.782  0.4146  0.8665  0.3813
12210TIP3    H258046   6.285   3.106   4.860  0.5166  0.2748 -0.5484
12211TIP3   OH258047   0.727   2.344  11.736  0.0535 -0.1098 -0.6104
12211TIP3    H158048   0.716   2.282  11.664 -0.5328 -1.6526  0.7367
12211TIP3    H258049   0.640   2.349  11.777  0.7988 -0.7822  1.1475
12212TIP3   OH258050   4.364   2.265  17.380  0.1632 -0.0344  0.1009
12212TIP3    H158051   4.298   2.201  17.405  0.4475 -0.1249  0.6513
12212TIP3    H258052   4.419   2.220  17.316 -0.4996  0.1543 -0.6053
12213TIP3   OH258053   5.068   6.279  16.013  0.1049 -0.3340 -0.2051
12213TIP3    H158054   5.022   6.197  15.998  0.4893 -0.5213 -0.3918
12213TIP3    H258055   5.007   6.347  15.984 -0.3071 -0.5398  0.1788
12214TIP3   OH258056   2.981   3.968   1.819  0.1184  0.3657 -0.0191
12214TIP3    H158057   3.055   3.909   1.805 -1.0162 -0.9462 -0.8609
12214TIP3    H258058   2.906   3.910   1.831 -1.2343  1.5832 -1.8781
12215TIP3   OH258059   0.191   5.155   0.473 -0.6225 -0.1245 -0.2953
12215TIP3    H158060   0.166   5.201   0.393 -0.8079  0.6636  0.2070
12215TIP3    H258061   0.110   5.149   0.523 -0.4903 -0.5421 -0.1284
12216TIP3   OH258062   6.068   3.686  13.876 -0.1822 -0.1235  0.1542
12216TIP3    H158063   6.096   3.732  13.955  0.1791  1.6414 -0.9501
12216TIP3    H258064   5.976   3.710  13.866  0.3719  1.6270 -1.2108
12217TIP3   OH258065   5.367   4.841  12.517 -0.1049  0.8264 -0.7628
12217TIP3    H158066   5.432   4.817  12.451  0.6333 -1.5431  0.6871
12217TIP3    H258067   5.287   4.797  12.489  1.3523 -4.6910  2.1354
12218TIP3   OH258068   0.450   2.031  14.051  0.1659  0.7125 -0.0446
12218TIP3    H158069   0.409   1.945  14.048  2.5027 -0.4336 -1.4375
12218TIP3    H258070   0.449   2.062  13.961 -1.1799  2.4785  0.5175
12219TIP3   OH258071   1.959   4.701  14.064 -0.1678  0.1758 -0.2924
12219TIP3    H158072   2.020   4.753  14.117 -0.2742  2.0520 -1.8701
12219TIP3    H258073   1.894   4.765  14.033 -1.2684 -1.2377 -0.9939
12220TIP3   OH258074   3.996   3.257   0.672  0.7148  0.2736 -0.0563
12220TIP3    H158075   4.034   3.258   0.584  1.0565 -0.0206  0.0846
12220TIP3    H258076   4.028   3.176   0.711  0.1309  0.1372  0.1513
12221TIP3   OH258077   4.864   0.710   0.850  0.3887 -0.6148 -0.4829
12221TIP3    H158078   4.868   0.772   0.923  2.1169 -0.5588 -0.5776
12221TIP3    H258079   4.771   0.692   0.839 -0.0036  0.3842  0.8788
12222TIP3   OH258080   6.715   1.756  12.919 -0.6140 -0.8426  0.0714
12222TIP3    H158081   6.751   1.738  12.832 -2.2904 -1.0323 -0.6314
12222TIP3    H258082   6.785   1.801  12.966 -0.2597  0.9877 -2.0221
12223TIP3   OH258083   0.347   6.556   0.396 -0.4639  0.5147  0.1762
12223TIP3    H158084   0.332   6.650   0.387 -1.0660  0.3688 -0.4684
12223TIP3    H258085   0.259   6.519   0.405 -0.1852  0.0907  1.3185
12224TIP3   OH258086   4.226   0.234   1.032 -0.5662 -0.0519 -0.6217
12224TIP3    H158087   4.236   0.327   1.050  0.8167 -0.4274  0.7075
12224TIP3    H258088   4.210   0.230   0.938  4.2562  1.2794 -1.7376
12225TIP3   OH258089   0.244   3.574  11.900 -0.4579  0.4732 -0.5541
12225TIP3    H158090   0.307   3.551  11.968  0.4583  1.4035 -1.0556
12225TIP3    H258091   0.249   3.501  11.838 -0.3779  0.2107 -0.2421
12226TIP3   OH258092   6.535   4.120  14.662 -0.5597  0.0060 -0.2380
12226TIP3    H158093   6.610   4.179  14.653  0.6458 -1.5499 -0.7374
12226TIP3    H258094   6.572   4.033  14.654 -2.4104 -0.8163 -0.2433
12227TIP3   OH258095   2.186   3.831   4.985 -0.1319 -0.0075 -0.2616
12227TIP3    H158096   2.128   3.764   5.022 -0.3052  0.1478 -0.2500
12227TIP3    H258097   2.126   3.899   4.953  0.0283 -0.0007 -0.5537
12228TIP3   OH258098   0.450   3.268  16.655  0.0201  0.0396  0.0733
12228TIP3    H158099   0.451   3.234  16.565  1.2691 -1.4143  0.5909
12228TIP3    H258100   0.492   3.353  16.648  1.7145 -0.7996 -0.4982
12229TIP3   OH258101   4.163   6.483   6.308 -0.2377 -0.1010 -0.4051
12229TIP3    H158102   4.081   6.532   6.318  0.2186  0.7944 -0.9685
12229TIP3    H258103   4.151   6.406   6.364 -0.9041  0.7264  0.6366
12230TIP3   OH258104   2.368   6.296   4.957 -0.8059 -0.2214 -0.6206
12230TIP3    H158105   2.429   6.369   4.947 -0.8910 -0.2416 -1.3370
12230TIP3    H258106   2.399   6.230   4.895 -1.8705 -0.0162 -1.3956
12231TIP3   OH258107   6.302   5.841  12.783  0.6277 -0.1428  0.3678
12231TIP3    H158108   6.341   5.828  12.869  2.9622  0.0043 -0.6113
12231TIP3    H258109   6.208   5.852  12.801  1.3339  3.3342  3.2735
12232TIP3   OH258110   6.763   2.109  14.382  0.1390  0.4933  0.3071
12232TIP3    H158111   6.708   2.038  14.414 -1.4246  1.2282 -0.6370
12232TIP3    H258112   6.841   2.064  14.348 -0.5700 -0.7362  0.2149
12233TIP3   OH258113   1.373   5.655   5.546  0.2259 -0.4431  0.2875
12233TIP3    H158114   1.298   5.600   5.568  1.4097 -1.9344  0.7692
12233TIP3    H258115   1.352   5.741   5.584 -1.3321 -0.7507  0.1790
12234TIP3   OH258116   3.672   3.352   2.329  0.8856  0.3043 -0.4231
12234TIP3    H158117   3.617   3.400   2.391  1.9196  0.0842  0.6969
12234TIP3    H258118   3.621   3.352   2.247 -0.9349 -0.2152  0.6540
12235TIP3   OH258119   2.735   4.916   1.087  0.5094  0.1432  0.0748
12235TIP3    H158120   2.745   4.914   0.991  1.2290  1.3157  0.1155
12235TIP3    H258121   2.678   4.991   1.104  0.2455 -0.1618  0.5624
12236TIP3   OH258122   1.233   2.236  13.007 -0.6406  0.9046  0.6838
12236TIP3    H158123   1.230   2.244  12.912  0.9871  0.2494  0.5581
12236TIP3    H258124   1.208   2.145  13.024 -1.3429  1.1330  0.9345
12237TIP3   OH258125   5.980   0.883  13.648 -0.1729 -0.5671 -0.0663
12237TIP3    H158126   6.074   0.866  13.658 -0.3314 -1.3535  0.1030
12237TIP3    H258127   5.939   0.797  13.651 -1.1705 -0.0802  2.6060
12238TIP3   OH258128   5.545   3.393   4.584  0.2792 -0.0135  0.8254
12238TIP3    H158129   5.561   3.406   4.490 -2.2521 -1.2539  0.1460
12238TIP3    H258130   5.463   3.440   4.601 -0.0493 -0.9963  2.1015
12239TIP3   OH258131   5.856   6.047   5.399  0.3546 -0.1706  0.2903
12239TIP3    H158132   5.796   6.014   5.465  1.1862 -1.1605  0.5736
12239TIP3    H258133   5.942   6.047   5.442  0.4886  1.8638  0.1227
12240TIP3   OH258134   3.798   5.135   4.244 -0.4336  0.3794  0.2199
12240TIP3    H158135   3.731   5.200   4.218  0.4114  0.6939 -1.3246
12240TIP3    H258136   3.812   5.083   4.165  2.0628  1.1506  0.0804
12241TIP3   OH258137   0.470   5.726   0.363 -0.2192  0.5348  0.1387
12241TIP3    H158138   0.421   5.745   0.283 -1.3699 -0.0188  0.6925
12241TIP3    H258139   0.532   5.658   0.337 -2.3932 -1.6378  0.2745
12242TIP3   OH258140   6.100   1.700  10.569  1.0666  0.4153 -0.2068
12242TIP3    H158141   6.177   1.646  10.584 -0.4073 -2.0997 -1.0964
12242TIP3    H258142   6.087   1.747  10.651  2.6004 -0.3572  0.5154
12243TIP3   OH258143   5.414   2.897  15.295 -0.0353 -0.6818 -0.3951
12243TIP3    H158144   5.359   2.952  15.350 -0.0674  0.4133 -1.4780
12243TIP3    H258145   5.502   2.904  15.333  0.1366  0.8550 -1.0282
12244TIP3   OH258146   4.226   2.689  16.254 -0.0186 -0.4778 -0.5244
12244TIP3    H158147   4.231   2.608  16.204 -2.5126 -0.1387 -1.4334
12244TIP3    H258148   4.134   2.713  16.252  0.5262  1.9651  0.4236
12245TIP3   OH258149   1.609   6.318   0.969 -0.5250  0.3056  0.1388
12245TIP3    H158150   1.565   6.244   1.012 -0.6386 -0.4682 -1.2705
12245TIP3    H258151   1.700   6.309   0.995 -0.5163 -0.4027 -0.1033
12246TIP3   OH258152   5.767   6.154  16.762  0.0716  0.1990 -0.0410
12246TIP3    H158153   5.755   6.135  16.669  0.1933  1.2117 -0.2792
12246TIP3    H258154   5.846   6.208  16.765 -0.8617  1.5679  0.4552
12247TIP3   OH258155   3.895   6.641  16.878  0.1062  0.0766  0.0214
12247TIP3    H158156   3.826   6.645  16.945  0.1099 -0.9060  0.1046
12247TIP3    H258157   3.916   6.548  16.872  0.2546  0.1786 -1.2052
12248TIP3   OH258158   3.021   2.305   6.122 -0.4982  0.5794  0.1273
12248TIP3    H158159   3.033   2.217   6.085 -1.1713  0.8347 -0.7556
12248TIP3    H258160   3.049   2.364   6.053 -2.3144  1.0846 -0.2439
12249TIP3   OH258161   4.516   4.751  15.715 -0.1852  0.0717  0.1419
12249TIP3    H158162   4.476   4.704  15.787  0.4667  1.0200  1.1523
12249TIP3    H258163   4.588   4.694  15.686 -0.7510 -0.5314 -0.1051
12250TIP3   OH258164   0.356   3.280  13.333 -0.1143 -0.6376  0.1821
12250TIP3    H158165   0.395   3.356  13.376 -0.6437  1.2958 -2.4430
12250TIP3    H258166   0.261   3.293  13.342 -0.2150 -0.7912 -0.5576
12251TIP3   OH258167   3.762   5.917   3.448 -0.0151  0.2900  0.6149
12251TIP3    H158168   3.811   5.929   3.367  2.3382 -0.0473  1.8981
12251TIP3    H258169   3.675   5.950   3.428  1.0097  2.0272 -1.4802
12252TIP3   OH258170   5.524   5.599  15.051 -0.0661  0.0105 -0.6614
12252TIP3    H158171   5.442   5.632  15.087  0.0889  0.1134 -0.3965
12252TIP3    H258172   5.502   5.513  15.016  0.1318 -0.8810  1.2739
12253TIP3   OH258173   3.620   1.587   4.396 -0.6784 -0.0894 -0.0388
12253TIP3    H158174   3.640   1.574   4.304  0.7827  2.2866 -0.1473
12253TIP3    H258175   3.530   1.619   4.397 -2.0098 -3.4772 -0.2432
12254TIP3   OH258176   6.286   5.399  13.189 -0.3301 -0.9418 -0.1223
12254TIP3    H158177   6.369   5.386  13.144 -0.3909 -0.1166 -0.4984
12254TIP3    H258178   6.221   5.404  13.119 -0.2284  2.0017 -0.1646
12255TIP3   OH258179   3.514   2.694   3.181  0.1659 -0.4239  0.5548
12255TIP3    H158180   3.569   2.616   3.172 -1.6942 -1.8102  0.5662
12255TIP3    H258181   3.516   2.736   3.095  0.1485 -1.2187  0.1616
12256TIP3   OH258182   1.790   3.872  13.733 -0.7048  0.0351 -0.3297
12256TIP3    H158183   1.698   3.851  13.749 -0.2755 -0.2466  2.1398
12256TIP3    H258184   1.839   3.809  13.786  0.7589  3.2159  2.4525
12257TIP3   OH258185   4.231   5.368   3.146 -0.6173  0.2554 -0.3115
12257TIP3    H158186   4.179   5.295   3.181 -1.4824  1.2664  0.6079
12257TIP3    H258187   4.311   5.327   3.114 -2.1736 -1.4838 -2.3545
12258TIP3   OH258188   6.387   3.219   4.289  0.0814  0.4385 -0.3041
12258TIP3    H158189   6.369   3.192   4.199 -2.1955  0.4362  0.1042
12258TIP3    H258190   6.342   3.303   4.298  2.4718  1.7786  0.1066
12259TIP3   OH258191   2.451   4.438  12.834  0.1081 -0.0539  0.1960
12259TIP3    H158192   2.372   4.488  12.855 -0.4772 -1.3029  1.1165
12259TIP3    H258193   2.426   4.385  12.759  0.1830 -0.1822  0.2615
12260TIP3   OH258194   5.200   6.020  16.669 -0.4826  1.0250 -0.1196
12260TIP3    H158195   5.205   5.997  16.576 -0.7458 -2.5959  0.6122
12260TIP3    H258196   5.289   6.044  16.693 -0.3054  1.4801 -1.1898
12261TIP3   OH258197   5.624   4.951   1.257  0.4327  0.3234 -0.1229
12261TIP3    H158198   5.690   4.890   1.223  1.4052  1.9572 -1.2741
12261TIP3    H258199   5.675   5.023   1.295 -0.6621  1.4496 -0.7161
12262TIP3   OH258200   5.825   0.465  14.213  0.2173 -0.7546  0.5382
12262TIP3    H158201   5.871   0.391  14.251  0.3976 -1.6938 -1.3785
12262TIP3    H258202   5.777   0.505  14.287  2.4276 -0.9618  2.1658
12263TIP3   OH258203   1.331   6.727  12.861  0.1660 -1.1125  0.2868
12263TIP3    H158204   1.403   6.665  12.868 -0.5013 -1.9040  0.2861
12263TIP3    H258205   1.254   6.673  12.844 -0.5938 -0.3708  1.2355
12264TIP3   OH258206   4.341   5.206  15.112  0.2129 -0.6114  0.3229
12264TIP3    H158207   4.306   5.194  15.200  0.0154  0.7407  0.4453
12264TIP3    H258208   4.282   5.269  15.071 -0.1280 -1.7539 -1.0437
12265TIP3   OH258209   3.329   6.243  12.356  0.1835  0.2225 -0.1328
12265TIP3    H158210   3.371   6.329  12.355 -0.0698  0.3666  0.8004
12265TIP3    H258211   3.280   6.241  12.438 -2.0441  0.2274 -1.3936
12266TIP3   OH258212   5.899   0.028  13.477  0.2001 -0.0458 -0.1012
12266TIP3    H158213   5.817   0.019  13.527 -0.4761  4.0862 -0.1509
12266TIP3    H258214   5.968   0.021  13.543 -0.3835  0.0430  0.5343
12267TIP3   OH258215   3.466   2.460  14.862 -0.1367 -0.1396 -0.2944
12267TIP3    H158216   3.378   2.442  14.831  0.1522  0.0463 -1.2717
12267TIP3    H258217   3.523   2.424  14.794  0.5200  0.5129 -0.1053
12268TIP3   OH258218   0.944   2.124   1.550 -0.9207 -0.4095 -0.0138
12268TIP3    H158219   1.021   2.171   1.583 -1.4287  1.0477 -0.7954
12268TIP3    H258220   0.907   2.081   1.626 -0.4721  0.5540  0.7703
12269TIP3   OH258221   5.589   5.230  16.603  0.0767 -0.1212  0.5588
12269TIP3    H158222   5.582   5.258  16.512  0.1373  1.2442  0.9529
12269TIP3    H258223   5.513   5.174  16.617  0.7366 -1.3938 -0.6671
12270TIP3   OH258224   0.589   3.161   3.454  0.7314 -0.0046  0.5379
12270TIP3    H158225   0.530   3.226   3.492  0.1046 -0.0775 -0.2914
12270TIP3    H258226   0.608   3.100   3.527 -0.6910 -0.3194  0.6732
12271TIP3   OH258227   5.457   5.403  13.423  0.1114  0.2068 -0.0162
12271TIP3    H158228   5.470   5.325  13.477 -0.2563  0.3972  0.3445
12271TIP3    H258229   5.546   5.434  13.406  0.2558 -0.2158 -0.0563
12272TIP3   OH258230   1.402   1.761  11.748  0.2797 -0.8836  0.4551
12272TIP3    H158231   1.374   1.845  11.784  2.3175  0.0532  0.0427
12272TIP3    H258232   1.384   1.697  11.817  2.2415  0.5406  2.4330
12273TIP3   OH258233   0.613   1.113   3.065  0.3687 -0.0420  0.3467
12273TIP3    H158234   0.691   1.068   3.034  0.0358 -0.1178 -0.4028
12273TIP3    H258235   0.540   1.059   3.034 -0.0625  1.2300 -0.9530
12274TIP3   OH258236   5.371   0.316  16.870  0.2872 -0.0553 -0.2447
12274TIP3    H158237   5.447   0.374  16.864 -0.0762  0.3879 -0.6555
12274TIP3    H258238   5.296   0.375  16.868 -0.0601 -0.4249  0.9962
12275TIP3   OH258239   0.214   3.304   5.856  0.2706 -0.2420  0.5069
12275TIP3    H158240   0.164   3.380   5.885 -0.5839 -0.8535  0.6690
12275TIP3    H258241   0.217   3.247   5.932  2.9656  0.6199  1.1683
12276TIP3   OH258242   2.926   0.768   4.395 -0.0671  0.2721 -0.4108
12276TIP3    H158243   2.983   0.838   4.364  0.8441 -0.5936 -0.7391
12276TIP3    H258244   2.869   0.810   4.459  0.7165  1.2247 -0.3215
12277TIP3   OH258245   4.131   3.206   0.961 -0.2827  0.4963 -0.2935
12277TIP3    H158246   4.095   3.122   0.933  2.5684 -0.8916 -0.1463
12277TIP3    H258247   4.171   3.243   0.882 -0.2054  0.9823 -0.0323
12278TIP3   OH258248   2.828   6.399  14.123 -0.1246  0.7539 -0.8703
12278TIP3    H158249   2.850   6.467  14.059  0.6432  1.8329  0.4918
12278TIP3    H258250   2.890   6.329  14.106  0.1422  1.0773 -1.2569
12279TIP3   OH258251   0.159   4.370  16.902 -0.1046  0.1909  0.8527
12279TIP3    H158252   0.203   4.450  16.873 -1.1025 -0.1828 -1.9935
12279TIP3    H258253   0.067   4.386  16.882 -0.5225 -1.1499  1.6155
12280TIP3   OH258254   6.494   1.895   2.105 -0.3432  0.1097  0.1522
12280TIP3    H158255   6.493   1.903   2.201  1.5167  1.5425  0.1126
12280TIP3    H258256   6.479   1.983   2.073  0.0104 -0.1852 -0.8623
12281TIP3   OH258257   1.728   3.883   5.076  0.4231  0.0386 -0.3612
12281TIP3    H158258   1.795   3.814   5.073  0.7325  0.3769 -1.6804
12281TIP3    H258259   1.772   3.961   5.041 -0.5332  0.3627 -0.8613
12282TIP3   OH258260   4.077   0.282  15.529  1.4417  0.1011 -0.0225
12282TIP3    H158261   4.097   0.189  15.527  2.5977  0.3514 -0.8662
12282TIP3    H258262   4.136   0.317  15.596  1.4152  0.3179 -0.1128
12283TIP3   OH258263   2.432   2.166   4.087 -0.2025 -1.0403 -0.1768
12283TIP3    H158264   2.427   2.070   4.085  0.3082 -1.1025  1.0369
12283TIP3    H258265   2.501   2.187   4.024  1.6095 -1.6592  1.5100
12284TIP3   OH258266   2.095   5.225  13.818  0.1137  0.0116 -0.4730
12284TIP3    H158267   2.073   5.291  13.883  1.3950 -0.0102  0.0106
12284TIP3    H258268   2.176   5.257  13.778 -1.0980  0.4890 -2.7179
12285TIP3   OH258269   3.894   0.885   0.837  0.4627  0.0681 -0.7522
12285TIP3    H158270   3.950   0.808   0.829 -0.1115 -0.4230 -0.1696
12285TIP3    H258271   3.950   0.958   0.813  1.2305 -0.4613 -0.5979
12286TIP3   OH258272   1.634   4.506   1.288  0.2332  0.3171 -0.0028
12286TIP3    H158273   1.635   4.456   1.207 -1.4638  0.5597 -0.2165
12286TIP3    H258274   1.718   4.487   1.329  0.0307 -1.9968 -0.5019
12287TIP3   OH258275   4.584   5.419   4.928  0.5019 -0.6703 -0.5337
12287TIP3    H158276   4.625   5.500   4.896 -0.7821 -0.1349 -0.9279
12287TIP3    H258277   4.656   5.364   4.957  1.3690  0.9063  0.3974
12288TIP3   OH258278   1.459   2.860  10.723  0.1548 -0.4414  0.2185
12288TIP3    H158279   1.370   2.825  10.729  0.2240 -0.9190 -1.1760
12288TIP3    H258280   1.514   2.783  10.706  0.8393 -0.1479  1.0445
12289TIP3   OH258281   6.230   6.419   0.524 -0.2103 -0.3666 -0.4287
12289TIP3    H158282   6.176   6.480   0.472 -2.6311  0.0273  2.3004
12289TIP3    H258283   6.316   6.461   0.529 -0.2680  0.2092 -2.9004
12290TIP3   OH258284   3.892   1.796  11.459  0.1955  0.4407 -0.0172
12290TIP3    H158285   3.818   1.832  11.507  0.6325 -1.6792  2.5130
12290TIP3    H258286   3.853   1.737  11.395 -0.3338  1.3222 -0.5241
12291TIP3   OH258287   5.155   3.130  11.745  0.5072  0.1962  0.1112
12291TIP3    H158288   5.096   3.158  11.675 -0.8629 -0.2394  1.0594
12291TIP3    H258289   5.196   3.211  11.776 -0.0873  0.5859 -0.1203
12292TIP3   OH258290   3.225   5.954   4.977 -0.1154 -0.8128 -0.8407
12292TIP3    H158291   3.295   5.915   4.926 -1.6121  0.0461 -3.7953
12292TIP3    H258292   3.151   5.958   4.917 -1.6234  1.5938  0.9804
12293TIP3   OH258293   0.370   5.491   1.486  0.0529  0.6444 -0.3106
12293TIP3    H158294   0.280   5.458   1.488  0.3431 -0.1435  1.1228
12293TIP3    H258295   0.423   5.419   1.523  1.4568  0.5882 -2.2724
12294TIP3   OH258296   2.721   6.023   3.380 -0.2461  0.1673  0.6805
12294TIP3    H158297   2.793   5.981   3.333 -0.9930 -1.1254  0.6405
12294TIP3    H258298   2.726   5.988   3.469 -0.1243  0.9775  1.0026
12295TIP3   OH258299   3.534   3.573  14.757  0.2052  0.4311  0.2209
12295TIP3    H158300   3.470   3.528  14.812  0.8794  1.6927  2.0978
12295TIP3    H258301   3.595   3.504  14.731 -1.1283 -0.5251 -0.4920
12296TIP3   OH258302   5.456   3.667   2.142  0.2602  0.0504 -0.4045
12296TIP3    H158303   5.491   3.712   2.066  0.4910  1.1138  0.3055
12296TIP3    H258304   5.531   3.654   2.200  0.0996 -0.7827 -0.3667
12297TIP3   OH258305   0.983   4.731  13.091 -0.0306 -0.0088  0.1015
12297TIP3    H158306   1.078   4.741  13.099  0.0709  0.5601 -1.4444
12297TIP3    H258307   0.953   4.714  13.180  1.6689 -1.6401  0.4184
12298TIP3   OH258308   1.783   1.690  13.394  0.3743  0.1395  0.1655
12298TIP3    H158309   1.737   1.606  13.403 -1.1138  0.8008 -0.8519
12298TIP3    H258310   1.874   1.666  13.377  0.6924 -1.2162  3.1173
12299TIP3   OH258311   5.239   3.355  12.231  0.6251  0.0809  0.4166
12299TIP3    H158312   5.295   3.354  12.309  0.6059 -1.3499  0.4407
12299TIP3    H258313   5.152   3.336  12.264  0.8238 -1.8274 -0.0651
12300TIP3   OH258314   6.723   6.733  11.030 -0.1143 -0.6652 -0.1459
12300TIP3    H158315   6.795   6.713  10.970  1.1865  0.9271  0.7915
12300TIP3    H258316   6.682   6.648  11.046  1.0916 -1.5155 -1.3001
12301TIP3   OH258317   3.765   4.779  17.013  0.5841  0.7323  0.0702
12301TIP3    H158318   3.686   4.814  16.972 -0.8943 -0.6186  1.6342
12301TIP3    H258319   3.808   4.728  16.944 -1.0762 -0.3159 -0.2374
12302TIP3   OH258320   2.609   1.411  12.723  0.9384  0.2041 -0.4141
12302TIP3    H158321   2.642   1.361  12.798  0.0722 -0.9039 -0.7490
12302TIP3    H258322   2.530   1.453  12.756  0.8919  0.2063 -0.5268
12303TIP3   OH258323   5.219   5.661   3.244  0.2080  0.7330  0.5934
12303TIP3    H158324   5.244   5.569   3.251 -1.4133  0.3148  1.2101
12303TIP3    H258325   5.227   5.695   3.333 -1.7252  0.4736  0.9028
12304TIP3   OH258326   1.415   2.425   4.916 -0.1320 -0.4593  0.4260
12304TIP3    H158327   1.423   2.342   4.869  1.7934  0.8958 -1.9282
12304TIP3    H258328   1.349   2.474   4.867 -0.5929 -0.2395  1.2447
12305TIP3   OH258329   1.426   3.557  13.299 -0.2824 -0.0575  0.3518
12305TIP3    H158330   1.376   3.489  13.344  0.7927 -1.5075 -0.5392
12305TIP3    H258331   1.457   3.615  13.369 -1.7981 -0.0717  1.0621
12306TIP3   OH258332   3.477   3.921  17.182  0.6553  0.2877 -0.1254
12306TIP3    H158333   3.462   3.892  17.272  1.6532 -0.3705 -0.1426
12306TIP3    H258334   3.439   4.008  17.177  0.9134  0.4811  1.0476
12307TIP3   OH258335   0.975   6.404   1.932 -0.0633  0.3588  0.0131
12307TIP3    H158336   0.941   6.353   2.005 -1.2544  2.6214  1.1318
12307TIP3    H258337   0.992   6.339   1.864 -2.1851 -1.4645  1.0814
12308TIP3   OH258338   5.491   5.013   4.237 -0.8052 -0.0380 -0.3649
12308TIP3    H158339   5.473   5.072   4.310  0.1539 -1.7217  1.3005
12308TIP3    H258340   5.586   5.012   4.229 -0.8618 -0.5084 -1.1321
12309TIP3   OH258341   0.158   3.511   2.637 -0.5845 -0.6364 -0.7695
12309TIP3    H158342   0.143   3.430   2.685 -0.1421  1.1836  2.7827
12309TIP3    H258343   0.074   3.556   2.637 -0.2725 -0.0388 -0.5273
12310TIP3   OH258344   3.100   5.392   2.494  1.0954 -0.0376  0.7206
12310TIP3    H158345   3.059   5.477   2.479  1.4636 -0.0465 -0.4504
12310TIP3    H258346   3.049   5.353   2.565  0.0553  0.5944  0.3483
12311TIP3   OH258347   5.927   0.869  15.276  0.2864  0.2347  0.4484
12311TIP3    H158348   5.990   0.805  15.243 -0.0795 -0.4042  0.9396
12311TIP3    H258349   5.856   0.815  15.313 -0.1870  0.9297  0.5800
12312TIP3   OH258350   2.916   1.358   0.992 -0.1458  0.4730  0.5144
12312TIP3    H158351   2.978   1.377   0.922 -0.6276  0.6163  0.1224
12312TIP3    H258352   2.963   1.297   1.050  0.2265  0.2947  0.0269
12313TIP3   OH258353   5.263   3.387  16.898  0.0737 -0.2545  0.2027
12313TIP3    H158354   5.322   3.330  16.850 -1.1654 -0.3760 -1.2454
12313TIP3    H258355   5.210   3.328  16.951  2.2857 -0.0511  2.8567
12314TIP3   OH258356   2.662   2.254  15.829  0.4105 -0.3109  0.2342
12314TIP3    H158357   2.577   2.248  15.874 -0.1492  1.2274 -0.5595
12314TIP3    H258358   2.640   2.278  15.739  1.6338 -1.2703 -0.3500
12315TIP3   OH258359   4.566   1.660  12.472  0.5192  0.2076 -0.0178
12315TIP3    H158360   4.654   1.638  12.501  0.4762 -1.8955 -1.2671
12315TIP3    H258361   4.524   1.697  12.550  2.0284 -0.2091  1.0431
12316TIP3   OH258362   3.890   1.014  14.329 -0.2670 -0.9063 -0.1496
12316TIP3    H158363   3.844   1.013  14.414  0.1781 -2.9346  0.1308
12316TIP3    H258364   3.833   1.065  14.272 -1.0433 -0.2751  1.1293
12317TIP3   OH258365   4.082   1.774  13.116  0.9563  0.0055 -0.4550
12317TIP3    H158366   4.073   1.869  13.128  1.0173 -0.1236  0.7585
12317TIP3    H258367   3.994   1.745  13.093  0.2673  0.0246  1.8892
12318TIP3   OH258368   2.414   6.750   1.032 -0.3650 -0.0019  0.2252
12318TIP3    H158369   2.365   6.762   0.951  0.0323 -0.6697 -0.1237
12318TIP3    H258370   2.369   6.805   1.096 -1.3525 -0.3249 -0.1690
12319TIP3   OH258371   3.544   5.608   6.100  0.2781  0.1194 -0.2721
12319TIP3    H158372   3.625   5.605   6.150 -1.0483  1.4205  2.1297
12319TIP3    H258373   3.559   5.676   6.034  1.5194 -0.5419 -0.7132
12320TIP3   OH258374   3.119   6.216  11.848 -0.3066  0.1451  0.4501
12320TIP3    H158375   3.093   6.303  11.819  0.8640  0.2383 -0.3852
12320TIP3    H258376   3.202   6.231  11.895  0.4921 -0.6141 -0.6545
12321TIP3   OH258377   1.192   2.111   2.340 -0.5153  0.1444 -0.5523
12321TIP3    H158378   1.247   2.049   2.387  0.5795  2.3040  1.2140
12321TIP3    H258379   1.135   2.056   2.285  0.2170 -2.3738  1.0314
12322TIP3   OH258380   0.427   3.881   1.489  0.4375  0.0362  0.0787
12322TIP3    H158381   0.340   3.841   1.497 -0.2518  1.2860 -0.6844
12322TIP3    H258382   0.430   3.913   1.399  1.9482 -0.5153 -0.0865
12323TIP3   OH258383   5.147   6.375  12.765  0.0412  0.5819 -0.5781
12323TIP3    H158384   5.078   6.313  12.741  1.0385 -1.9235  2.3105
12323TIP3    H258385   5.113   6.419  12.843  1.3718 -0.3007  0.5579
12324TIP3   OH258386   5.639   0.822  13.056 -0.4967  0.5456  0.3353
12324TIP3    H158387   5.668   0.912  13.043 -0.6561  0.6927  0.9528
12324TIP3    H258388   5.580   0.826  13.131  1.0063 -0.3449  1.6388
12325TIP3   OH258389   0.865   1.885   5.569 -0.0766  0.2867  0.3729
12325TIP3    H158390   0.807   1.836   5.627  0.9096 -0.6542  0.5861
12325TIP3    H258391   0.827   1.875   5.482 -0.4711  0.0532  0.5717
12326TIP3   OH258392   0.070   1.374  12.903  0.2344 -0.4970 -0.1230
12326TIP3    H158393   0.034   1.413  12.824 -1.8083  0.2894  1.1367
12326TIP3    H258394   0.165   1.385  12.894  0.0123  0.1111 -2.1539
12327TIP3   OH258395   6.112   0.773   2.798 -0.0741  0.0534  0.3437
12327TIP3    H158396   6.105   0.809   2.710  0.0369 -1.2712 -0.2265
12327TIP3    H258397   6.182   0.708   2.792 -1.5148 -1.6158  0.8323
12328TIP3   OH258398   0.255   5.248   0.163 -0.5239 -0.2295  0.5884
12328TIP3    H158399   0.301   5.192   0.101 -0.9370 -0.2304  0.2766
12328TIP3    H258400   0.321   5.312   0.190 -0.4887  0.1325 -0.3039
12329TIP3   OH258401   3.886   2.064   1.902  0.5175  0.0083  0.2117
12329TIP3    H158402   3.862   2.137   1.959  0.1111 -0.0486  0.1172
12329TIP3    H258403   3.815   2.059   1.839 -0.2052 -1.3977  1.1007
12330TIP3   OH258404   0.605   3.328   0.281  0.1609  0.4898 -0.1370
12330TIP3    H158405   0.661   3.267   0.329 -1.7356  0.2203  1.9195
12330TIP3    H258406   0.576   3.391   0.347 -1.2166  1.1456 -1.3002
12331TIP3   OH258407   5.995   2.455  11.315 -0.0758  0.0275 -0.0205
12331TIP3    H158408   5.918   2.503  11.344 -0.1051 -0.4433  0.7016
12331TIP3    H258409   5.970   2.419  11.230 -1.0509 -1.0527  0.7066
12332TIP3   OH258410   4.910   2.459  14.502  0.4725  0.1356 -0.3669
12332TIP3    H158411   4.894   2.434  14.594  2.6764  0.5750  0.1915
12332TIP3    H258412   4.926   2.376  14.458 -1.0513 -0.1224 -0.5005
12333TIP3   OH258413   2.757   2.982   0.216 -0.3957  0.4043 -0.5183
12333TIP3    H158414   2.780   3.067   0.255 -1.0485 -0.0895  1.0471
12333TIP3    H258415   2.755   2.998   0.122  2.6336  1.3482 -0.5240
12334TIP3   OH258416   4.554   0.099  15.297  0.1009 -0.2555  0.4735
12334TIP3    H158417   4.605   0.093  15.379 -1.8728  0.0509  1.7891
12334TIP3    H258418   4.476   0.046  15.314 -1.7663  2.1683 -0.0859
12335TIP3   OH258419   0.912   4.449  14.757  0.1700 -0.6650 -0.0616
12335TIP3    H158420   0.940   4.474  14.669 -1.7348 -0.8787 -0.7625
12335TIP3    H258421   0.973   4.495  14.815 -0.4283  2.0508 -1.3984
12336TIP3   OH258422   2.347   5.931   3.337  0.2565  0.6676  0.1630
12336TIP3    H158423   2.256   5.958   3.323  0.2782  1.6634  1.7477
12336TIP3    H258424   2.399   6.002   3.299  0.3677  0.4017 -0.1826
12337TIP3   OH258425   5.976   2.304   3.186  0.2799  0.0132  0.3620
12337TIP3    H158426   5.886   2.271   3.186  0.4448 -0.5705  2.2672
12337TIP3    H258427   6.019   2.258   3.114 -0.0554 -2.3977  1.6138
12338TIP3   OH258428   0.461   1.836  17.090  0.7665  0.5241 -0.2630
12338TIP3    H158429   0.477   1.770  17.023 -2.2832  0.3665 -1.0125
12338TIP3    H258430   0.416   1.790  17.160  0.3954  1.4134  0.1071
12339TIP3   OH258431   2.384   2.557  11.358  0.7167 -0.6908  0.0948
12339TIP3    H158432   2.429   2.630  11.316 -1.4199  0.2227 -0.7681
12339TIP3    H258433   2.314   2.598  11.409 -0.6350 -2.1016 -0.5357
12340TIP3   OH258434   3.797   1.495   2.923  0.1345 -0.4820  0.1652
12340TIP3    H158435   3.753   1.424   2.969 -0.4007 -0.5268 -0.3975
12340TIP3    H258436   3.728   1.536   2.871  1.3565 -3.0376 -3.9081
12341TIP3   OH258437   5.968   5.393  13.327  0.3678  0.1711  0.0157
12341TIP3    H158438   5.987   5.470  13.273 -0.1896  0.5813  0.3911
12341TIP3    H258439   6.017   5.409  13.408 -0.3852  0.5186  0.4061
12342TIP3   OH258440   5.609   6.286   5.209  0.7456 -0.4391 -0.4343
12342TIP3    H158441   5.585   6.255   5.296  1.9214  0.7437  0.3324
12342TIP3    H258442   5.701   6.311   5.216 -0.0480  3.1692 -0.9698
12343TIP3   OH258443   6.723   1.089   1.575  0.0031  0.0996  0.3613
12343TIP3    H158444   6.748   0.999   1.556 -1.8288 -0.5554  0.8035
12343TIP3    H258445   6.674   1.117   1.498  1.3270  1.0781 -0.1710
12344TIP3   OH258446   1.291   0.557  10.898  0.1828  0.1134 -0.1769
12344TIP3    H158447   1.236   0.618  10.848 -1.3406 -0.8115  0.2883
12344TIP3    H258448   1.324   0.608  10.971  1.1904  1.0817 -1.2630
12345TIP3   OH258449   4.065   2.871   5.257  0.1195 -0.3884 -0.3044
12345TIP3    H158450   4.112   2.789   5.243  1.9378  0.5274  0.1448
12345TIP3    H258451   4.134   2.936   5.273 -1.3001  1.0774  0.1341
12346TIP3   OH258452   5.719   5.983   4.535  0.4700  0.0727  0.4162
12346TIP3    H158453   5.657   5.960   4.604 -0.2848 -0.2213 -0.3449
12346TIP3    H258454   5.665   6.009   4.461  1.2827  2.4490  0.5950
12347TIP3   OH258455   1.630   1.296   6.521 -0.2053  0.0191 -0.1752
12347TIP3    H158456   1.583   1.218   6.492 -0.4851  0.0331  0.2227
12347TIP3    H258457   1.562   1.364   6.527  0.2563  0.6636 -1.8174
12348TIP3   OH258458   1.627   6.290   3.070 -0.3332  0.0997 -0.5120
12348TIP3    H158459   1.709   6.310   3.025 -1.0293  0.1165 -1.8138
12348TIP3    H258460   1.596   6.209   3.030 -1.4683  0.6422 -0.7765
12349TIP3   OH258461   6.283   5.673   2.437 -0.2955  0.1170  0.3386
12349TIP3    H158462   6.370   5.681   2.398  1.3882  2.0013  3.9558
12349TIP3    H258463   6.239   5.755   2.414  0.2758  0.7279  1.3322
12350TIP3   OH258464   0.072   3.281  13.337 -0.3769 -0.1003 -0.1776
12350TIP3    H158465  -0.014   3.286  13.295 -0.8053 -1.5778  0.4827
12350TIP3    H258466   0.082   3.189  13.362  0.9864  0.2364  0.6231
12351TIP3   OH258467   5.817   3.264   5.994 -0.3543 -0.0977  0.2673
12351TIP3    H158468   5.842   3.171   5.990  0.2420  0.0840 -2.5428
12351TIP3    H258469   5.722   3.263   5.978 -0.2219 -0.2246 -0.5898
12352TIP3   OH258470   3.544   2.928   0.347 -0.2474 -0.2929 -0.2698
12352TIP3    H158471   3.604   2.891   0.412 -1.7838 -0.4639  1.1311
12352TIP3    H258472   3.561   3.023   0.351 -1.9664 -0.0034  2.2484
12353TIP3   OH258473   2.083   0.178   3.685  0.0912 -0.6871  0.2053
12353TIP3    H158474   1.993   0.145   3.685 -0.8792  1.7284  0.3933
12353TIP3    H258475   2.099   0.204   3.776  1.4084 -2.0260  0.3985
12354TIP3   OH258476   1.295   5.364   5.713  0.0730  0.2679 -1.0898
12354TIP3    H158477   1.363   5.299   5.698  0.0939 -0.5147  1.6967
12354TIP3    H258478   1.294   5.375   5.808 -1.6147  2.5560 -1.2897
12355TIP3   OH258479   5.603   0.781  15.877  0.2878  0.1910 -0.1168
12355TIP3    H158480   5.517   0.741  15.863  0.4133 -0.1115 -0.0269
12355TIP3    H258481   5.611   0.844  15.806  0.2531 -0.2176 -0.4909
12356TIP3   OH258482   5.716   6.100  16.502  0.0457  0.3074  0.1323
12356TIP3    H158483   5.771   6.133  16.432 -0.7285 -0.4268 -0.8444
12356TIP3    H258484   5.722   6.005  16.496 -0.8834  0.2232  0.3591
12357TIP3   OH258485   2.798   1.554  13.982  0.1740  0.0250 -0.1926
12357TIP3    H158486   2.703   1.541  13.977  0.2550 -0.6382 -0.1206
12357TIP3    H258487   2.809   1.637  14.028 -0.3657 -0.0562  0.0878
12358TIP3   OH258488   3.816   0.969  13.349 -0.2526  0.1405 -0.1413
12358TIP3    H158489   3.805   1.002  13.438 -2.2131  0.3344 -0.3998
12358TIP3    H258490   3.904   0.997  13.324 -0.4879  2.0690  0.9484
12359TIP3   OH258491   1.025   3.220   0.978 -0.7159  0.3265  0.2118
12359TIP3    H158492   1.025   3.198   1.071 -0.1038  0.4543  0.2479
12359TIP3    H258493   1.038   3.315   0.977  0.3501  0.1891 -0.0222
12360TIP3   OH258494   2.856   6.185  12.043  0.4448  0.2185 -0.3269
12360TIP3    H158495   2.896   6.111  12.088 -0.1835 -0.0715 -0.2406
12360TIP3    H258496   2.929   6.225  11.995  0.6030 -1.0938 -1.2410
12361TIP3   OH258497   5.064   3.646  14.283  0.0972  0.6262  0.3118
12361TIP3    H158498   5.008   3.646  14.361 -0.8319  0.3868 -0.3277
12361TIP3    H258499   5.009   3.606  14.215  1.5840 -0.9899  0.0152
12362TIP3   OH258500   5.162   5.996   4.254  0.1636  0.4153  0.3955
12362TIP3    H158501   5.084   6.012   4.308  0.5668  2.2175  0.5324
12362TIP3    H258502   5.214   5.934   4.305 -0.2482  0.7760  1.2798
12363TIP3   OH258503   0.831   0.643   3.618 -0.1674 -0.2055  0.0533
12363TIP3    H158504   0.880   0.666   3.697  0.0781 -2.6883  0.7067
12363TIP3    H258505   0.870   0.697   3.549 -0.6847  2.3717  1.6415
12364TIP3   OH258506   5.031   4.716  16.892  0.1649  0.1263  0.0321
12364TIP3    H158507   4.945   4.748  16.865  0.4948  0.9997 -0.0372
12364TIP3    H258508   5.036   4.739  16.985  1.1820  2.1608 -0.4561
12365TIP3   OH258509   2.594   2.827  12.066 -0.3365  0.1736 -0.5891
12365TIP3    H158510   2.597   2.856  11.975  0.8167 -0.0924 -0.6496
12365TIP3    H258511   2.686   2.819  12.092 -0.6448  0.9462  0.8258
12366TIP3   OH258512   6.074   2.769  15.392  0.3221 -0.0256 -0.2060
12366TIP3    H158513   6.059   2.856  15.428  1.0775 -0.2763  0.7458
12366TIP3    H258514   6.014   2.764  15.317  1.5676  1.9940 -1.4284
12367TIP3   OH258515   2.685   0.359   4.849  0.1903 -0.1086 -0.2377
12367TIP3    H158516   2.780   0.352   4.865  0.1269 -0.8318 -0.1293
12367TIP3    H258517   2.650   0.274   4.877 -0.3548 -0.2358 -1.2600
12368TIP3   OH258518   1.230   1.182   0.801 -0.5271  0.1191 -0.2571
12368TIP3    H158519   1.189   1.102   0.833 -0.8677 -0.2509 -1.5738
12368TIP3    H258520   1.174   1.211   0.730  0.1453  0.9834 -0.4498
12369TIP3   OH258521   5.125   5.418   1.715  0.5113 -0.2332  0.0523
12369TIP3    H158522   5.142   5.385   1.627 -0.1917 -1.3652  0.3243
12369TIP3    H258523   5.168   5.503   1.717  0.1919  0.0030 -1.5230
12370TIP3   OH258524   2.735   0.220  11.520 -0.7854 -0.0366  0.5468
12370TIP3    H158525   2.765   0.130  11.532 -1.9559 -0.4598  0.4631
12370TIP3    H258526   2.763   0.243  11.431 -0.0823 -0.1477  0.7376
12371TIP3   OH258527   6.349   3.602  16.415  0.5265  0.6848  0.1766
12371TIP3    H158528   6.359   3.511  16.440 -1.5196 -0.1263 -1.6905
12371TIP3    H258529   6.270   3.631  16.460 -0.0237  0.8816 -0.8989
12372TIP3   OH258530   0.465   3.553  16.626 -0.1832  0.0595  0.2945
12372TIP3    H158531   0.496   3.644  16.630 -1.1089  0.4518 -0.9247
12372TIP3    H258532   0.413   3.543  16.706 -0.6033  0.8268  0.1361
12373TIP3   OH258533   3.867   2.746  11.889  0.0142 -0.1341  0.4874
12373TIP3    H158534   3.879   2.838  11.869 -2.0930  0.1594  0.3774
12373TIP3    H258535   3.944   2.703  11.851  1.1645  1.5692  0.7778
12374TIP3   OH258536   2.333   1.002  14.427 -0.1981  0.5922 -0.6497
12374TIP3    H158537   2.336   0.934  14.360 -0.1020  0.8834 -0.9485
12374TIP3    H258538   2.265   1.062  14.396  0.5190  1.2410 -0.9921
12375TIP3   OH258539   5.544   0.733  12.552  0.0511  0.6026 -0.3640
12375TIP3    H158540   5.551   0.701  12.642 -0.4739  0.6332 -0.3090
12375TIP3    H258541   5.450   0.734  12.535 -0.0616  3.1356  0.0133
12376TIP3   OH258542   2.856   2.378  14.082  0.1086 -0.7435 -0.4819
12376TIP3    H158543   2.941   2.382  14.038 -0.1964  0.5339 -0.9814
12376TIP3    H258544   2.877   2.351  14.172  0.8848 -1.8402 -0.9784
12377TIP3   OH258545   4.208   1.587   2.100 -0.5316 -0.1118 -0.2542
12377TIP3    H158546   4.292   1.602   2.056  0.1417 -2.2824  0.1630
12377TIP3    H258547   4.153   1.661   2.073  1.2386  0.9339 -1.1930
12378TIP3   OH258548   3.999   1.893   4.031  0.1064 -0.4899  0.2694
12378TIP3    H158549   4.076   1.885   4.086 -0.0636 -0.3357  0.5325
12378TIP3    H258550   4.025   1.857   3.946  0.9190  0.8583 -0.0817
12379TIP3   OH258551   2.423   6.727  13.245 -0.0430  0.7629 -0.4316
12379TIP3    H158552   2.430   6.667  13.170 -0.1511 -0.5981  0.6226
12379TIP3    H258553   2.480   6.800  13.221  0.2543  0.1692 -1.6708
12380TIP3   OH258554   4.359   1.887   5.879 -0.5176  0.3344 -0.1367
12380TIP3    H158555   4.267   1.885   5.854 -0.1671  0.5273 -1.4930
12380TIP3    H258556   4.400   1.818   5.827  0.4094  1.3975 -0.8667
12381TIP3   OH258557   0.821   4.303   5.350  0.1204  0.7611 -0.9091
12381TIP3    H158558   0.766   4.357   5.407 -1.7449  0.2714 -2.1488
12381TIP3    H258559   0.871   4.366   5.298 -1.0272  1.2767 -1.4016
12382TIP3   OH258560   2.817   3.140   4.936  0.2631 -0.2669  0.0994
12382TIP3    H158561   2.864   3.057   4.927  2.7456  0.6547  2.9729
12382TIP3    H258562   2.733   3.115   4.975 -0.2356 -1.6001 -1.6612
12383TIP3   OH258563   1.118   1.000  12.844 -0.1531 -0.3490 -0.0776
12383TIP3    H158564   1.068   1.082  12.844 -0.2714 -0.4070  0.7113
12383TIP3    H258565   1.184   1.012  12.777 -0.4400  0.2290 -0.2668
12384TIP3   OH258566   1.742   4.867   5.577 -0.3325 -0.7777 -0.2726
12384TIP3    H158567   1.807   4.926   5.538 -0.8217  0.0248  0.0930
12384TIP3    H258568   1.793   4.793   5.610  0.5328  0.3496  0.9979
12385TIP3   OH258569   2.955   2.775  12.685 -0.0919  0.9084 -0.2007
12385TIP3    H158570   2.859   2.776  12.680 -0.1759  0.8990  1.0859
12385TIP3    H258571   2.974   2.783  12.778  1.1769  1.2217 -0.4700
12386TIP3   OH258572   0.213   6.488  11.176 -0.8091  0.9083 -0.2528
12386TIP3    H158573   0.160   6.422  11.132 -0.4770  0.9372 -0.7010
12386TIP3    H258574   0.152   6.530  11.238 -0.6623 -0.8047  1.1318
12387TIP3   OH258575   0.301   4.219  16.212 -0.1864  0.3158 -0.3490
12387TIP3    H158576   0.342   4.247  16.294  0.6845  0.0545 -0.6832
12387TIP3    H258577   0.287   4.125  16.223  2.8883 -0.4212 -1.6556
12388TIP3   OH258578   6.571   3.546   0.967  0.6497  0.0582  0.2188
12388TIP3    H158579   6.556   3.614   1.032 -1.0972  0.3121 -0.4100
12388TIP3    H258580   6.591   3.594   0.886  0.0090 -0.1768 -0.0843
12389TIP3   OH258581   5.892   3.964   1.239  0.2007  0.1203 -0.0950
12389TIP3    H158582   5.868   4.051   1.208  0.0829 -0.7659 -2.7613
12389TIP3    H258583   5.985   3.970   1.259 -0.2134  1.3137  1.6624
12390TIP3   OH258584   6.496   1.465  16.774  0.4025  0.1857 -0.5945
12390TIP3    H158585   6.432   1.414  16.825 -0.5018  0.4195 -1.4713
12390TIP3    H258586   6.561   1.400  16.747 -0.5466 -0.4596 -1.3942
12391TIP3   OH258587   5.702   6.075  12.309  0.3173 -0.1112  0.0354
12391TIP3    H158588   5.661   6.153  12.348  1.0194 -0.1445  0.8633
12391TIP3    H258589   5.628   6.019  12.286 -0.1443 -0.6842  2.5885
12392TIP3   OH258590   3.663   2.481   3.171  0.4713  0.2613  0.6719
12392TIP3    H158591   3.734   2.422   3.195 -2.0328 -3.6623 -0.6497
12392TIP3    H258592   3.653   2.471   3.076 -1.1072  1.5923  0.6362
12393TIP3   OH258593   3.289   4.435   2.154  0.1616  0.5185 -0.7673
12393TIP3    H158594   3.196   4.433   2.133  0.1161 -1.5298 -0.5664
12393TIP3    H258595   3.294   4.474   2.241 -0.5780  0.0650 -0.5153
12394TIP3   OH258596   1.095   4.583   3.655  0.0947 -0.0354  0.6170
12394TIP3    H158597   1.040   4.532   3.595  1.6360 -0.7794 -0.2282
12394TIP3    H258598   1.182   4.580   3.615  0.9441  0.3404  2.3634
12395TIP3   OH258599   2.001   3.585   1.599  0.5982  0.3716 -0.6602
12395TIP3    H158600   1.906   3.580   1.594  0.6467  0.3404 -1.7370
12395TIP3    H258601   2.020   3.577   1.692 -0.3981 -0.4780 -0.5119
12396TIP3   OH258602   0.823   6.057  12.290  0.3791  0.5384 -0.0724
12396TIP3    H158603   0.852   5.993  12.225  3.4154  2.1207 -0.4476
12396TIP3    H258604   0.816   6.007  12.371  2.9276 -0.3261 -0.2949
12397TIP3   OH258605   1.563   2.294  13.644  0.3574  0.0554 -0.7148
12397TIP3    H158606   1.500   2.311  13.714  1.5212 -0.5360  0.5164
12397TIP3    H258607   1.631   2.360  13.656  0.8701 -0.4248 -0.8963
12398TIP3   OH258608   0.105   2.670  16.622  0.2695  0.1864 -0.0260
12398TIP3    H158609   0.046   2.624  16.682 -1.0738  1.8650  0.0339
12398TIP3    H258610   0.047   2.728  16.572  1.6455  0.4298 -1.4098
12399TIP3   OH258611   1.847   0.174  12.408  0.4111 -0.7407 -0.7281
12399TIP3    H158612   1.900   0.097  12.428  2.9538  0.6432 -1.7124
12399TIP3    H258613   1.770   0.167  12.465  1.6689 -2.8190  0.8081
12400TIP3   OH258614   1.907   6.215  11.023 -0.1258 -0.1296 -0.1596
12400TIP3    H158615   1.956   6.164  11.087 -0.8377 -1.6577 -0.7636
12400TIP3    H258616   1.909   6.305  11.055  1.3998 -0.4930  0.8197
12401TIP3   OH258617   1.838   2.587  15.838  0.2369  0.6320 -0.4439
12401TIP3    H158618   1.870   2.554  15.754 -0.6627  0.4161 -0.7135
12401TIP3    H258619   1.882   2.533  15.904  0.8552  0.7222 -0.7789
12402TIP3   OH258620   5.394   5.359   4.152  0.0833  0.0777  0.3988
12402TIP3    H158621   5.387   5.391   4.062 -0.3186  0.4703  0.5671
12402TIP3    H258622   5.466   5.410   4.190  1.1117 -0.9780 -0.0679
12403TIP3   OH258623   0.147   0.099  16.369 -0.4364  0.2812  0.7013
12403TIP3    H158624   0.156   0.144  16.453 -1.4126  0.5853  0.6646
12403TIP3    H258625   0.123   0.169  16.307 -0.6081 -0.0760  0.3579
12404TIP3   OH258626   2.990   6.194   2.768 -0.1920  0.4410  0.1143
12404TIP3    H158627   2.903   6.224   2.741 -0.1578  1.1286  0.7281
12404TIP3    H258628   3.026   6.152   2.690 -0.4887  1.4794 -0.6022
12405TIP3   OH258629   1.797   3.845  10.950  0.1119  0.5060  0.2013
12405TIP3    H158630   1.799   3.902  11.026  0.0394 -0.9035  1.2968
12405TIP3    H258631   1.741   3.891  10.887 -0.9725  1.0660  1.5233
12406TIP3   OH258632   3.251   1.776  14.428  0.3468  0.4489  0.2742
12406TIP3    H158633   3.198   1.809  14.501  2.3209  1.1059  1.4665
12406TIP3    H258634   3.200   1.702  14.394 -0.8302  0.3851  2.0300
12407TIP3   OH258635   5.415   5.067   2.356  0.0221  0.3881 -0.2437
12407TIP3    H158636   5.488   5.072   2.417  0.5545  0.2865 -0.8639
12407TIP3    H258637   5.414   4.976   2.326  1.0395  0.8715 -1.8985
12408TIP3   OH258638   4.685   3.845   4.412 -0.0045 -0.5987 -0.0567
12408TIP3    H158639   4.773   3.873   4.386 -0.6241  0.8090 -0.7410
12408TIP3    H258640   4.646   3.924   4.451 -0.8239 -1.3247  0.6230
12409TIP3   OH258641   3.373   0.029   0.140  0.3880  0.0931  0.0576
12409TIP3    H158642   3.317  -0.030   0.089  1.9924  0.5047 -2.3380
12409TIP3    H258643   3.321   0.108   0.151 -0.8879 -0.8632  1.2377
12410TIP3   OH258644   4.596   3.186   4.989 -0.2304  0.6374  0.2718
12410TIP3    H158645   4.612   3.280   4.993 -0.2475  0.5891  1.9305
12410TIP3    H258646   4.683   3.148   4.973  0.2814  0.7959  2.4300
12411TIP3   OH258647   2.544   3.538   4.477 -0.1621  0.6357 -0.4305
12411TIP3    H158648   2.481   3.472   4.507  1.6092 -1.4886 -1.0723
12411TIP3    H258649   2.615   3.487   4.437  0.3461  3.0110 -2.9322
12412TIP3   OH258650   0.954   0.470   6.101 -0.0249 -0.4901 -0.1583
12412TIP3    H158651   0.937   0.401   6.165  1.0372  0.3100  1.0299
12412TIP3    H258652   1.038   0.446   6.062  1.4397  1.1397  1.7704
12413TIP3   OH258653   1.083   3.329  13.796  0.3506 -0.3301 -0.5243
12413TIP3    H158654   1.056   3.305  13.708  2.0599 -0.8107 -0.9547
12413TIP3    H258655   1.160   3.385  13.784  2.1956 -2.4523  0.6573
12414TIP3   OH258656   0.178   6.321  15.339  0.2649  0.1203 -0.1268
12414TIP3    H158657   0.262   6.277  15.350 -0.0130 -1.0932 -2.3913
12414TIP3    H258658   0.150   6.341  15.428  1.6180 -1.9855  0.8430
12415TIP3   OH258659   3.066   6.157   3.395  0.3969  0.0355 -0.3771
12415TIP3    H158660   3.102   6.070   3.380  0.9792  0.4297 -1.3136
12415TIP3    H258661   3.022   6.150   3.480 -1.0452 -1.6385 -1.1993
12416TIP3   OH258662   5.491   2.766   5.445 -0.0556  0.0322  0.1090
12416TIP3    H158663   5.551   2.693   5.432  1.3120  0.9432  1.0174
12416TIP3    H258664   5.441   2.742   5.523  1.3527  0.6108  1.2473
12417TIP3   OH258665   3.655   6.655  11.355 -0.0256  0.2768  0.4571
12417TIP3    H158666   3.652   6.680  11.263 -0.4781 -0.4205  0.2738
12417TIP3    H258667   3.570   6.683  11.390 -0.2696 -0.3772  0.4065
12418TIP3   OH258668   0.749   1.906   4.064  0.2125  0.3469  0.1850
12418TIP3    H158669   0.817   1.964   4.029 -0.3618  1.0917  0.2867
12418TIP3    H258670   0.767   1.901   4.158  0.6447 -0.1644  0.0805
12419TIP3   OH258671   6.723   5.112   0.630 -0.0765  0.2122 -0.5636
12419TIP3    H158672   6.688   5.032   0.591 -0.0688 -0.0078 -0.1160
12419TIP3    H258673   6.650   5.149   0.680  0.7888 -1.2174  1.9252
12420TIP3   OH258674   2.240   3.645  14.685 -0.4787  0.1996 -0.3090
12420TIP3    H158675   2.264   3.667  14.595 -0.6295  0.2006 -0.3494
12420TIP3    H258676   2.165   3.586  14.676 -0.1713 -0.2174 -0.1990
12421TIP3   OH258677   3.267   2.910   1.807 -0.1082 -0.3797  1.0649
12421TIP3    H158678   3.175   2.911   1.780 -0.0347  1.2129  0.7707
12421TIP3    H258679   3.272   2.840   1.872 -1.2556 -1.3025  0.2091
12422TIP3   OH258680   1.441   1.871   4.739 -0.1573  0.1342  0.4292
12422TIP3    H158681   1.382   1.844   4.669 -0.1541  2.1186 -0.4045
12422TIP3    H258682   1.383   1.910   4.805  0.0340  0.2318  0.5414
12423TIP3   OH258683   0.869   6.745  16.908  0.0403  0.4048  0.0578
12423TIP3    H158684   0.833   6.832  16.892  0.7701  0.6158 -0.4780
12423TIP3    H258685   0.830   6.718  16.991 -3.0501 -0.2996 -1.4923
12424TIP3   OH258686   1.137   2.605   4.517  0.3961 -0.1114  0.0213
12424TIP3    H158687   1.085   2.618   4.597 -0.3123  1.2790 -0.6359
12424TIP3    H258688   1.227   2.615   4.546  0.1496  0.3237  0.6639
12425TIP3   OH258689   0.538   4.846   6.112 -0.0033 -0.0540 -0.3422
12425TIP3    H158690   0.503   4.760   6.137 -0.3509 -0.0167 -0.6903
12425TIP3    H258691   0.630   4.843   6.139 -0.0262 -0.5127 -0.3001
12426TIP3   OH258692   1.659   3.716  11.765 -0.1079  0.2012  0.0590
12426TIP3    H158693   1.714   3.752  11.834  0.7959 -0.7826 -0.1285
12426TIP3    H258694   1.699   3.746  11.683  0.3628 -0.7810 -0.0855
12427TIP3   OH258695   6.497   1.008   2.420 -0.4072 -0.6134  0.6768
12427TIP3    H158696   6.508   1.087   2.473  2.8143 -1.4499  1.4048
12427TIP3    H258697   6.577   1.001   2.369 -1.4421 -2.4009 -0.8470
12428TIP3   OH258698   0.782   4.053  10.205  0.7323  0.0410 -0.5255
12428TIP3    H158699   0.773   3.990  10.277 -0.1077  1.0634  0.3013
12428TIP3    H258700   0.771   4.000  10.126 -1.5874 -0.6609  0.1749
12429TIP3   OH258701   0.943   1.771  12.980  0.0888 -0.6146 -0.5359
12429TIP3    H158702   0.948   1.816  12.896  0.6224 -1.5304 -1.0128
12429TIP3    H258703   0.995   1.691  12.968  0.7120 -0.4563  0.8712
12430TIP3   OH258704   3.101   1.182  12.024 -0.4047 -0.1847 -0.3886
12430TIP3    H158705   3.180   1.162  11.973  0.3617  0.4199  0.5222
12430TIP3    H258706   3.032   1.191  11.959  0.3994 -0.1671 -1.2587
12431TIP3   OH258707   1.735   1.956  14.925 -0.2860  0.9827  0.0431
12431TIP3    H158708   1.772   1.976  15.010 -0.3941 -0.5420  0.4834
12431TIP3    H258709   1.798   1.897  14.884 -0.2745  1.6304 -0.9012
12432TIP3   OH258710   5.343   6.175   0.165  0.3036 -0.3310  0.0844
12432TIP3    H158711   5.337   6.105   0.231 -1.4387 -0.3281 -0.0029
12432TIP3    H258712   5.317   6.132   0.084  0.5559  0.1136 -0.2309
12433TIP3   OH258713   1.704   6.632  12.186 -0.1691 -0.3259  0.3425
12433TIP3    H158714   1.688   6.710  12.133  1.0946 -0.2491  0.0393
12433TIP3    H258715   1.791   6.646  12.223  0.4214 -1.9204 -0.3345
12434TIP3   OH258716   0.187   4.699   1.143 -0.2716 -0.3847  0.3253
12434TIP3    H158717   0.100   4.739   1.138 -0.7450 -1.4300  0.0562
12434TIP3    H258718   0.210   4.702   1.236 -0.1550  0.7747  0.2821
12435TIP3   OH258719   1.694   1.117  12.407 -0.2428  0.0020  0.6792
12435TIP3    H158720   1.641   1.072  12.340  0.1834  0.9127 -0.2986
12435TIP3    H258721   1.636   1.186  12.441  0.2511  0.9474 -0.3343
12436TIP3   OH258722   2.564   2.110  14.287 -0.1725  0.4538 -0.3587
12436TIP3    H158723   2.593   2.200  14.299  1.0828 -0.1985  2.3534
12436TIP3    H258724   2.614   2.078  14.212  0.1732  1.6916 -0.6689
12437TIP3   OH258725   3.115   3.535  13.215  0.3904  0.2834 -0.0213
12437TIP3    H158726   3.102   3.550  13.122  2.1890 -0.5571 -0.4421
12437TIP3    H258727   3.090   3.444  13.229  1.0334  0.1245  0.1250
12438TIP3   OH258728   2.075   0.202   2.772 -0.1604  0.5863 -0.4188
12438TIP3    H158729   2.139   0.228   2.839  0.5636 -0.3934 -0.6957
12438TIP3    H258730   2.052   0.283   2.727  1.2722  0.9082 -0.6245
12439TIP3   OH258731   3.677   1.753   1.530  0.4164 -0.1535  0.4164
12439TIP3    H158732   3.602   1.725   1.477  0.5091  0.3160  0.0290
12439TIP3    H258733   3.650   1.737   1.620 -0.3907  0.5665  0.3119
12440TIP3   OH258734   2.594   3.079  15.552 -0.2044 -0.7697  0.0394
12440TIP3    H158735   2.618   3.120  15.636 -1.6731 -1.1573  0.6785
12440TIP3    H258736   2.518   3.129  15.522  0.4050 -0.5290 -1.1769
12441TIP3   OH258737   4.543   3.549  13.327 -0.8833  0.0077  0.1764
12441TIP3    H158738   4.517   3.478  13.385  3.7392 -1.0848  1.3359
12441TIP3    H258739   4.530   3.514  13.239  0.1647 -1.9312  0.7223
12442TIP3   OH258740   2.463   6.586  14.054 -0.0828  0.4405 -0.2583
12442TIP3    H158741   2.374   6.557  14.073  0.2814 -0.0912  0.6726
12442TIP3    H258742   2.453   6.678  14.028 -0.9374  0.2767 -0.5518
12443TIP3   OH258743   5.115   0.927   0.859 -0.3569 -0.0003  0.1019
12443TIP3    H158744   5.087   0.929   0.768 -0.0664 -1.0480 -0.0142
12443TIP3    H258745   5.036   0.947   0.909 -0.3110  1.5980 -0.3953
12444TIP3   OH258746   2.838   4.697   5.565  0.2901 -0.2033  0.1261
12444TIP3    H158747   2.750   4.671   5.538  1.0316 -3.8034  0.7357
12444TIP3    H258748   2.892   4.685   5.487  0.7088 -0.8092  0.5004
12445TIP3   OH258749   4.016   1.591  16.946 -0.3397 -0.5867 -0.1821
12445TIP3    H158750   3.973   1.513  16.912 -0.6498  0.0646 -1.3328
12445TIP3    H258751   4.109   1.571  16.942 -0.4107 -2.3726  3.2108
12446TIP3   OH258752   3.026   1.902  16.782  0.1325  0.1688 -0.4413
12446TIP3    H158753   3.106   1.953  16.794  0.2846  0.2968 -1.8029
12446TIP3    H258754   2.986   1.898  16.869  0.4304  2.0695 -0.1734
12447TIP3   OH258755   3.255   1.463   4.840 -0.0481  0.5001 -0.0777
12447TIP3    H158756   3.294   1.392   4.891  0.6848  1.3900  0.6601
12447TIP3    H258757   3.185   1.497   4.896  1.1343  1.8553  0.6480
12448TIP3   OH258758   1.008   6.101  11.010  0.6870 -0.3626 -0.3746
12448TIP3    H158759   1.002   6.187  11.051 -3.9640 -0.4016 -0.4486
12448TIP3    H258760   1.102   6.086  10.999  1.9743  2.5516  3.9832
12449TIP3   OH258761   6.175   5.901   4.780 -0.6991  0.0213  0.2393
12449TIP3    H158762   6.183   5.863   4.867 -1.9402  0.5276  0.5875
12449TIP3    H258763   6.085   5.932   4.775 -0.4241  0.6937 -0.9480
12450TIP3   OH258764   2.684   4.611  16.811  0.6445 -0.4750 -0.1841
12450TIP3    H158765   2.686   4.589  16.904 -3.0729  0.2651  0.2326
12450TIP3    H258766   2.746   4.683  16.802  0.3779  0.1010  1.9632
12451TIP3   OH258767   4.403   3.500  16.314 -0.2134  0.8967 -0.6823
12451TIP3    H158768   4.435   3.590  16.320  0.8256  0.4599  1.1751
12451TIP3    H258769   4.317   3.502  16.355 -1.0200  1.3534 -2.3079
12452TIP3   OH258770   0.182   5.093  16.821 -0.5668  0.3048  0.1323
12452TIP3    H158771   0.267   5.103  16.865 -0.6357 -1.7208  0.8267
12452TIP3    H258772   0.147   5.011  16.855 -3.0677  1.3130  0.2379
12453TIP3   OH258773   2.357   6.723   2.145  0.0044  0.1305  0.2733
12453TIP3    H158774   2.447   6.702   2.169  0.0635 -0.8374 -0.7256
12453TIP3    H258775   2.318   6.639   2.121 -0.3714  0.8643 -1.8787
12454TIP3   OH258776   5.680   0.866   0.225  0.3707  0.1297  0.2136
12454TIP3    H158777   5.676   0.771   0.212  2.0007  0.0413  0.1741
12454TIP3    H258778   5.681   0.877   0.320 -0.8244  0.1745  0.2289
12455TIP3   OH258779   0.219   0.653   0.958  0.1773  0.1209  0.5337
12455TIP3    H158780   0.256   0.615   0.878  0.9957 -0.8530  1.3468
12455TIP3    H258781   0.138   0.695   0.929  1.7862  2.2217 -1.2935
12456TIP3   OH258782   2.148   3.819  12.612 -0.3491  0.0915  0.1873
12456TIP3    H158783   2.164   3.727  12.635  0.0568  0.3484  0.9540
12456TIP3    H258784   2.157   3.866  12.695 -2.4902  0.6046  0.1856
12457TIP3   OH258785   1.802   6.256  13.599 -0.0522 -0.0149  0.0420
12457TIP3    H158786   1.813   6.174  13.648 -1.0088  0.3472  0.8986
12457TIP3    H258787   1.874   6.255  13.536 -0.7615 -2.0988 -0.8308
12458TIP3   OH258788   3.409   1.551  11.842 -0.6905  0.5815  0.6390
12458TIP3    H158789   3.488   1.502  11.869 -0.7028  1.2907  2.1027
12458TIP3    H258790   3.434   1.593  11.760  0.3230  0.4376  0.8501
12459TIP3   OH258791   4.010   2.345  12.986 -0.1723 -0.4304  0.4383
12459TIP3    H158792   3.958   2.388  12.918  0.2263  0.0252  0.4123
12459TIP3    H258793   4.083   2.305  12.939  0.2213  0.0665  0.6088
12460TIP3   OH258794   1.220   0.327   0.185 -0.2276  0.1956  0.2262
12460TIP3    H158795   1.215   0.286   0.271  1.0307  0.8868  0.6595
12460TIP3    H258796   1.309   0.310   0.154 -0.9211 -0.8164 -1.3735
12461TIP3   OH258797   4.393   2.929   0.306 -0.4926 -0.0956 -0.3338
12461TIP3    H158798   4.452   2.967   0.370  1.7200 -1.5343 -1.3973
12461TIP3    H258799   4.309   2.972   0.322  1.2002  3.3451  0.0988
12462TIP3   OH258800   0.667   5.687  12.217 -0.0142 -0.3821 -0.3569
12462TIP3    H158801   0.622   5.685  12.301  0.3974 -0.0488 -0.1264
12462TIP3    H258802   0.635   5.609  12.171 -0.8647 -0.1133 -0.2276
12463TIP3   OH258803   0.918   2.847  17.276 -0.6028  0.1382  0.0730
12463TIP3    H158804   0.928   2.942  17.281 -1.1502  0.2160 -0.2594
12463TIP3    H258805   1.008   2.814  17.274 -0.4061  0.6806 -0.3358
12464TIP3   OH258806   1.191   1.704  14.389 -0.2874  0.3517 -0.1112
12464TIP3    H158807   1.137   1.628  14.411 -0.2140  0.2320 -0.3427
12464TIP3    H258808   1.132   1.779  14.398 -0.4164  0.2476 -0.0839
12465TIP3   OH258809   3.460   2.571  12.513 -0.1926 -0.2373  0.1322
12465TIP3    H158810   3.422   2.659  12.510 -1.4709 -0.7801 -0.5112
12465TIP3    H258811   3.530   2.572  12.447 -0.4436  0.2058 -0.1319
12466TIP3   OH258812   5.322   3.913   2.249 -0.1751  0.5793 -0.0918
12466TIP3    H158813   5.394   3.851   2.254 -0.5388  0.2147  0.6459
12466TIP3    H258814   5.344   3.969   2.174  0.3941 -0.1238 -0.4568
12467TIP3   OH258815   1.728   1.450  14.076  0.0588  0.2374 -0.2891
12467TIP3    H158816   1.652   1.487  14.120 -1.0599 -0.1581 -1.8206
12467TIP3    H258817   1.749   1.513  14.006 -0.1262 -0.6312 -1.1456
12468TIP3   OH258818   5.478   4.556   5.837  0.6313 -0.0338  0.0861
12468TIP3    H158819   5.552   4.577   5.894 -0.1852 -0.0797  1.1987
12468TIP3    H258820   5.402   4.595   5.881 -0.3953 -2.1943  0.3722
12469TIP3   OH258821   6.604   4.564   4.140  0.2545 -0.0545 -0.0507
12469TIP3    H158822   6.690   4.598   4.112  0.5970 -2.1453 -1.7880
12469TIP3    H258823   6.622   4.519   4.223  1.5928 -3.0612 -1.8199
12470TIP3   OH258824   1.870   1.953  10.893 -0.0499 -0.7051 -0.1143
12470TIP3    H158825   1.965   1.952  10.886  0.4202  0.5987  3.7446
12470TIP3    H258826   1.847   1.864  10.918  0.2402 -0.8356 -0.3084
12471TIP3   OH258827   4.014   3.422  14.724  0.0765 -0.0273  0.6745
12471TIP3    H158828   4.008   3.329  14.700 -1.8547  0.1502  0.3379
12471TIP3    H258829   4.054   3.422  14.811  0.1771 -1.1636  0.6392
12472TIP3   OH258830   2.384   0.605   5.908  0.2396 -0.2837  0.0633
12472TIP3    H158831   2.459   0.640   5.956  0.3183  0.2337 -0.4223
12472TIP3    H258832   2.310   0.660   5.934  0.3152  0.1040 -0.5208
12473TIP3   OH258833   6.611   4.462  16.512 -0.5517  0.8598  0.5369
12473TIP3    H158834   6.661   4.453  16.431 -0.4418  0.3520  0.6526
12473TIP3    H258835   6.618   4.554  16.536 -1.2034  1.1757 -0.4277
12474TIP3   OH258836   0.563   3.389   2.885  0.0088  0.1673 -0.2182
12474TIP3    H158837   0.489   3.364   2.940  0.4254  0.0955  0.3190
12474TIP3    H258838   0.526   3.450   2.822 -0.9509 -1.4766 -1.3220
12475TIP3   OH258839   2.848   4.127   3.720  0.1522  0.6086 -0.1336
12475TIP3    H158840   2.762   4.151   3.687  0.4756  0.5721 -1.0198
12475TIP3    H258841   2.905   4.200   3.695  0.5235  0.3071 -0.1733
12476TIP3   OH258842   0.464   1.699  12.167 -0.1669 -0.8476  0.1125
12476TIP3    H158843   0.389   1.687  12.225  0.8035 -0.5369  1.4851
12476TIP3    H258844   0.509   1.615  12.168  0.9094 -0.3042  1.4124
12477TIP3   OH258845   5.518   1.530   4.902  0.3340 -0.0400  0.0671
12477TIP3    H158846   5.429   1.565   4.899  0.4241  0.3223  1.1285
12477TIP3    H258847   5.513   1.458   4.965  0.6422 -0.4614 -0.3894
12478TIP3   OH258848   0.457   4.530  12.948 -0.1659  0.1846  0.3760
12478TIP3    H158849   0.442   4.534  13.042 -1.0046  1.0852  0.2204
12478TIP3    H258850   0.374   4.557  12.909 -0.9956 -3.3770 -0.7091
12479TIP3   OH258851   6.252   0.999  16.049  0.2825 -0.5371 -0.1840
12479TIP3    H158852   6.329   1.038  16.009 -0.1778 -1.0932 -1.6577
12479TIP3    H258853   6.271   0.906  16.054 -0.4137 -0.7268 -0.8793
12480TIP3   OH258854   1.564   1.331  12.522  0.7982  0.0241 -0.4935
12480TIP3    H158855   1.618   1.322  12.600  0.8596  0.8903 -0.4275
12480TIP3    H258856   1.603   1.404  12.474  0.2644  0.0348 -0.9229
12481TIP3   OH258857   3.944   6.061   1.420  0.4552  0.2117 -0.2076
12481TIP3    H158858   3.999   5.988   1.450  0.0986 -0.4629 -1.1404
12481TIP3    H258859   3.855   6.034   1.442  0.4051  0.8604  0.4068
12482TIP3   OH258860   0.758   4.084  12.629 -0.0901  0.6888  0.0959
12482TIP3    H158861   0.742   3.990  12.638 -0.1923  0.6864 -0.1044
12482TIP3    H258862   0.822   4.104  12.697  1.2916  0.1417 -0.9849
12483TIP3   OH258863   4.566   3.714   1.572 -0.0204  0.0168  0.2237
12483TIP3    H158864   4.557   3.770   1.495  1.8119 -0.1958 -0.2076
12483TIP3    H258865   4.496   3.650   1.564 -1.9796  1.9930  0.5564
12484TIP3   OH258866   5.597   2.968   3.717  0.0398 -0.6127 -0.5195
12484TIP3    H158867   5.651   2.955   3.639  0.1164  1.8032 -0.9623
12484TIP3    H258868   5.647   3.030   3.770 -0.5348 -1.3586  0.9395
12485TIP3   OH258869   6.644   4.185   0.241 -0.2849  0.2648 -0.6172
12485TIP3    H158870   6.580   4.242   0.198  0.3716  1.2388 -0.3141
12485TIP3    H258871   6.654   4.111   0.181 -2.0766 -0.1755 -0.4298
12486TIP3   OH258872   6.430   2.111  13.892 -0.2433 -0.1749  0.2251
12486TIP3    H158873   6.498   2.175  13.872 -2.0554  1.7063 -0.2430
12486TIP3    H258874   6.422   2.059  13.812  0.6711 -0.5030  0.3272
12487TIP3   OH258875   5.840   4.308   5.588  0.4721  0.3891  0.2801
12487TIP3    H158876   5.754   4.351   5.582 -0.0375 -0.5790  0.3503
12487TIP3    H258877   5.895   4.370   5.634  0.4593  1.9874 -1.7125
12488TIP3   OH258878   5.337   2.102   4.148  0.2047 -0.3284 -0.0291
12488TIP3    H158879   5.428   2.108   4.178  0.0330  0.5247  0.3687
12488TIP3    H258880   5.288   2.076   4.227 -0.1713  1.3483  0.3378
12489TIP3   OH258881   5.374   0.484  12.176  0.8158 -0.1129  0.0101
12489TIP3    H158882   5.382   0.471  12.270  0.7117 -1.1889 -0.1153
12489TIP3    H258883   5.301   0.546  12.166  1.4172  0.7234  0.6529
12490TIP3   OH258884   2.908   5.844   2.300  0.5216  0.5079  0.1165
12490TIP3    H158885   2.988   5.886   2.332 -0.7882  3.2720  0.0173
12490TIP3    H258886   2.878   5.900   2.229 -0.6727 -1.3922 -0.9579
12491TIP3   OH258887   5.967   6.043  17.176 -0.1471 -0.4357  0.0819
12491TIP3    H158888   6.051   6.016  17.212  0.1202  1.1291  0.7189
12491TIP3    H258889   5.979   6.134  17.151 -1.4744 -0.3625 -0.3984
12492TIP3   OH258890   2.261   0.484   1.769 -0.1124  0.3436  0.1678
12492TIP3    H158891   2.267   0.509   1.677  1.4921 -0.1857  0.0953
12492TIP3    H258892   2.209   0.404   1.769  0.8596 -0.3004 -0.4257
12493TIP3   OH258893   3.312   2.543  13.831  0.0352 -0.2717  0.0898
12493TIP3    H158894   3.249   2.611  13.805  1.1382  0.6832 -0.1899
12493TIP3    H258895   3.360   2.582  13.904 -1.0503 -1.7944  1.7005
12494TIP3   OH258896   1.741   5.826   4.798  0.7782 -0.6778  0.2621
12494TIP3    H158897   1.815   5.864   4.750 -1.1411 -0.2605 -2.6331
12494TIP3    H258898   1.665   5.878   4.771 -0.6463 -1.0691  3.1189
12495TIP3   OH258899   1.167   3.563  13.492 -0.3466  0.1729  0.2864
12495TIP3    H158900   1.183   3.497  13.424 -0.7687 -0.4254  0.7616
12495TIP3    H258901   1.112   3.628  13.449 -0.5287 -0.1540  0.0180
12496TIP3   OH258902   5.412   0.282   1.287 -0.3307  0.0481 -0.5408
12496TIP3    H158903   5.396   0.369   1.251 -1.0437  0.4263  0.6601
12496TIP3    H258904   5.386   0.222   1.216  0.4063  0.7954 -1.4661
12497TIP3   OH258905   0.016   4.377  12.143  0.0041  0.0176  0.3578
12497TIP3    H158906  -0.029   4.403  12.223 -0.9103  0.2592 -0.2198
12497TIP3    H258907  -0.013   4.287  12.128 -1.5700  0.6771 -0.8533
12498TIP3   OH258908   0.770   1.862   0.165  0.2900 -0.1237  0.3996
12498TIP3    H158909   0.801   1.783   0.120  0.6753  1.9610 -3.3653
12498TIP3    H258910   0.831   1.872   0.239  1.2727 -2.4059 -0.0109
12499TIP3   OH258911   5.235   4.244   2.198 -0.0761 -0.3358  0.4414
12499TIP3    H158912   5.268   4.176   2.256  0.4899 -0.7745 -0.3665
12499TIP3    H258913   5.141   4.249   2.217  0.3683  0.7061  2.5438
12500TIP3   OH258914   1.503   5.203  11.938  0.0307  0.1124 -0.5257
12500TIP3    H158915   1.475   5.122  11.981  2.1307 -0.6003 -0.3767
12500TIP3    H258916   1.495   5.184  11.845  1.1878 -0.5600 -0.5066
12501TIP3   OH258917   2.124   4.437  11.271 -0.1862 -0.0610 -0.5211
12501TIP3    H158918   2.072   4.512  11.239  1.8106  1.0092 -1.4140
12501TIP3    H258919   2.127   4.376  11.197  1.9515  1.0817 -1.4658
12502TIP3   OH258920   0.860   3.938   0.945 -0.4989 -0.1874  0.1195
12502TIP3    H158921   0.876   4.004   1.012 -1.0536 -2.3539  2.5409
12502TIP3    H258922   0.776   3.899   0.969  0.4446 -2.6850 -0.3556
12503TIP3   OH258923   3.712   6.624   6.518 -0.0262 -0.2429  0.6053
12503TIP3    H158924   3.680   6.542   6.555 -0.9726  0.8384  2.3775
12503TIP3    H258925   3.800   6.634   6.555 -0.3155  0.0089  1.2564
12504TIP3   OH258926   0.578   3.645  12.828 -0.4827 -0.2612 -0.3450
12504TIP3    H158927   0.607   3.555  12.837 -0.1262 -0.0894  0.2875
12504TIP3    H258928   0.503   3.652  12.887 -0.9721 -0.3381 -0.9495
12505TIP3   OH258929   1.212   0.956   3.885 -0.1361  1.0279 -0.1824
12505TIP3    H158930   1.216   1.051   3.871 -1.5623  1.2403  0.6718
12505TIP3    H258931   1.152   0.924   3.817  0.3910  0.7195 -0.5083
12506TIP3   OH258932   4.669   1.786   1.610  0.1027 -0.0185  0.3697
12506TIP3    H158933   4.586   1.773   1.565  1.3053  0.4582 -2.1714
12506TIP3    H258934   4.691   1.700   1.645 -1.6928 -0.0163  1.5953
12507TIP3   OH258935   0.636   6.041  15.129  0.0858 -0.4680  0.0779
12507TIP3    H158936   0.697   6.105  15.092 -0.4610  0.7648  1.2354
12507TIP3    H258937   0.610   5.988  15.054  0.4000  0.7981 -0.9811
12508TIP3   OH258938   2.499   3.374  17.094 -0.9270  0.8157 -0.2807
12508TIP3    H158939   2.516   3.280  17.096 -1.5315  0.7113 -0.1165
12508TIP3    H258940   2.578   3.411  17.055  0.3217  0.4635  1.7424
12509TIP3   OH258941   0.532   2.155   3.982 -0.5475  0.1611 -0.3880
12509TIP3    H158942   0.482   2.075   3.969  0.7458 -0.7298 -0.1379
12509TIP3    H258943   0.614   2.139   3.935  0.8478  0.1964  1.8672
12510TIP3   OH258944   4.020   4.943   0.033 -0.0160 -0.2809  0.0677
12510TIP3    H158945   3.969   4.887   0.091  1.2484 -1.1637  0.3727
12510TIP3    H258946   3.962   4.960  -0.042 -1.1169 -0.3660  0.8779
12511TIP3   OH258947   3.687   2.378   1.009  0.4157 -0.6874  0.0339
12511TIP3    H158948   3.751   2.429   1.059  0.4541 -1.1402  0.4539
12511TIP3    H258949   3.604   2.421   1.026  0.4780 -0.6372  0.2155
12512TIP3   OH258950   1.070   6.335  15.588 -0.2565  0.5775  0.4406
12512TIP3    H158951   1.065   6.284  15.668 -1.0466  0.5634  0.3849
12512TIP3    H258952   0.982   6.370  15.575 -0.0321  0.9416 -0.1842
12513TIP3   OH258953   4.727   5.423   4.461 -0.5617 -0.2739 -0.3701
12513TIP3    H158954   4.792   5.354   4.474 -0.9462 -0.8405 -1.3329
12513TIP3    H258955   4.650   5.392   4.510 -1.0236 -0.9794 -1.4884
12514TIP3   OH258956   1.701   0.086  11.233 -0.5173 -0.0899 -0.0468
12514TIP3    H158957   1.779   0.032  11.220 -1.0483 -0.8757 -0.0798
12514TIP3    H258958   1.725   0.149  11.300  0.2150 -0.1748 -0.2213
12515TIP3   OH258959   3.269   4.071   6.455 -0.4408 -0.3431 -0.4115
12515TIP3    H158960   3.201   4.119   6.503  0.7479 -0.1455  1.1428
12515TIP3    H258961   3.348   4.085   6.506  0.4366 -1.9431 -1.2850
12516TIP3   OH258962   4.134   6.197  14.558 -0.4408  0.4387  0.3658
12516TIP3    H158963   4.104   6.117  14.602 -0.5859  0.3792  0.1637
12516TIP3    H258964   4.060   6.258  14.567 -0.2128  0.6592  0.7879
12517TIP3   OH258965   1.274   6.007  12.229  0.3407 -0.5833 -0.4937
12517TIP3    H158966   1.213   5.949  12.184 -2.8557  1.8905  0.2799
12517TIP3    H258967   1.235   6.022  12.314  1.6942  1.6611 -0.1809
12518TIP3   OH258968   5.382   2.019   4.694  0.0058  0.6308 -0.4380
12518TIP3    H158969   5.346   2.106   4.708 -0.0831  0.3879  0.9806
12518TIP3    H258970   5.337   1.964   4.758  1.6206 -0.0297  0.1850
12519TIP3   OH258971   0.382   0.116   4.579 -0.5476  0.5057 -0.0045
12519TIP3    H158972   0.401   0.143   4.490  2.2330  1.9057  0.8931
12519TIP3    H258973   0.450   0.052   4.600 -0.9559  0.4385  1.2226
12520TIP3   OH258974   6.221   5.777   0.265 -0.6334 -0.0511  0.0601
12520TIP3    H158975   6.144   5.794   0.211 -0.4040 -0.3728 -0.3688
12520TIP3    H258976   6.232   5.682   0.263 -1.5401 -0.2458  1.9400
12521TIP3   OH258977   2.029   3.794   1.405  0.0506  0.6179  0.1366
12521TIP3    H158978   2.080   3.871   1.381 -0.2416  0.4253 -1.1697
12521TIP3    H258979   2.076   3.756   1.479  1.1717  1.0728 -0.3197
12522TIP3   OH258980   5.766   3.192   0.644 -0.6585  0.3725  0.9032
12522TIP3    H158981   5.721   3.131   0.702  0.9340 -2.2977 -0.4621
12522TIP3    H258982   5.752   3.157   0.556  1.8042  0.9056  0.2143
12523TIP3   OH258983   1.371   0.358  10.730  0.2766  0.3611  0.4545
12523TIP3    H158984   1.369   0.431  10.792  0.4998  2.1390 -1.5274
12523TIP3    H258985   1.280   0.329  10.724  0.0345  1.0678  0.5915
12524TIP3   OH258986   4.311   0.181  15.626 -0.4836 -0.1350  0.1740
12524TIP3    H158987   4.308   0.119  15.553 -1.6736 -0.1651  0.2151
12524TIP3    H258988   4.403   0.205  15.635 -0.4342  0.7558 -2.0782
12525TIP3   OH258989   5.821   0.965   1.107  0.5884  0.1632 -0.7346
12525TIP3    H158990   5.905   0.975   1.153  0.0854 -0.2209  0.2998
12525TIP3    H258991   5.757   0.951   1.177 -0.3666  0.5744 -1.5023
12526TIP3   OH258992   3.475   2.103  16.266  0.3727 -0.1963 -0.3239
12526TIP3    H158993   3.544   2.064  16.320  0.5667  1.6897  0.8551
12526TIP3    H258994   3.409   2.132  16.329 -1.4253 -1.7143 -1.4111
12527TIP3   OH258995   0.359   3.329   3.032 -0.2066  0.9754 -0.1708
12527TIP3    H158996   0.303   3.286   2.967 -0.5179  2.2306 -0.7788
12527TIP3    H258997   0.301   3.344   3.107 -0.4008  1.2588 -0.3689
12528TIP3   OH258998   1.191   1.979   4.057 -0.2297 -0.2445  0.1696
12528TIP3    H158999   1.183   2.008   4.148  1.5910 -0.9329  0.6052
12528TIP3    H259000   1.273   2.020   4.026 -0.7623 -0.1071 -1.1348
12529TIP3   OH259001   5.490   0.630   4.437  0.0249 -0.5584  0.0890
12529TIP3    H159002   5.478   0.559   4.501  1.4064  0.2481  1.2925
12529TIP3    H259003   5.462   0.709   4.483  1.4102  0.0935 -0.1412
12530TIP3   OH259004   3.408   0.340  16.297 -0.2905 -0.1983  0.6924
12530TIP3    H159005   3.343   0.379  16.356 -0.8524  1.5446 -0.9368
12530TIP3    H259006   3.419   0.251  16.329  0.3449  0.9489  4.1181
12531TIP3   OH259007   6.166   5.018   2.328 -0.0241  0.1166  0.5268
12531TIP3    H159008   6.167   5.099   2.276  0.5276 -0.3902 -0.2764
12531TIP3    H259009   6.074   4.992   2.331 -0.1209  0.4171  0.2281
12532TIP3   OH259010   1.849   3.266  11.134 -0.0465  0.2747  0.1335
12532TIP3    H159011   1.868   3.292  11.225  1.0453  1.1317 -0.3154
12532TIP3    H259012   1.797   3.338  11.099 -0.7719 -0.2219  0.1682
12533TIP3   OH259013   0.629   2.738  17.164  0.4090 -0.5337  0.0689
12533TIP3    H159014   0.708   2.789  17.179  0.0180 -0.0551  0.5737
12533TIP3    H259015   0.584   2.784  17.093  0.0176 -0.1161  0.5781
12534TIP3   OH259016   1.191   5.652   1.056 -0.5004 -0.4832 -0.1463
12534TIP3    H159017   1.098   5.658   1.080 -0.8346  1.8749 -1.7486
12534TIP3    H259018   1.229   5.597   1.124 -3.1133 -1.7983  0.4017
12535TIP3   OH259019   1.409   5.653   3.581  0.1371 -0.2013 -0.1363
12535TIP3    H159020   1.389   5.728   3.637 -0.7005  0.7184 -1.5959
12535TIP3    H259021   1.467   5.689   3.514  0.1841 -0.9996 -0.5229
12536TIP3   OH259022   1.933   4.105   5.531  0.6938  0.5138 -0.2210
12536TIP3    H159023   1.982   4.135   5.607  1.3223  0.6331 -0.6607
12536TIP3    H259024   1.843   4.134   5.546  0.1875 -1.8207  1.7667
12537TIP3   OH259025   1.517   3.384  16.303  0.5946 -0.0225  0.3084
12537TIP3    H159026   1.503   3.430  16.386  0.4078  0.5656 -0.0360
12537TIP3    H259027   1.610   3.396  16.284  1.6093 -3.4333  2.3059
12538TIP3   OH259028   5.136   3.905   1.924 -0.1829  0.0506  0.1161
12538TIP3    H159029   5.205   3.969   1.909 -1.3837  1.5371  0.6295
12538TIP3    H259030   5.055   3.957   1.924 -1.2006 -1.4635  0.6489
12539TIP3   OH259031   2.997   0.392  15.421 -0.2469 -0.6001  0.2155
12539TIP3    H159032   2.919   0.337  15.424  0.5539 -1.7178  1.1738
12539TIP3    H259033   3.047   0.369  15.500  0.8062  0.4663 -0.0981
12540TIP3   OH259034   6.325   0.768  15.305 -0.1330 -0.5208  0.3467
12540TIP3    H159035   6.347   0.805  15.391 -0.5488 -1.3938  0.8424
12540TIP3    H259036   6.256   0.825  15.272  0.8587  0.5477  0.0328
12541TIP3   OH259037   5.040   1.343   4.642  0.2743  0.1606 -0.0486
12541TIP3    H159038   4.997   1.420   4.603 -0.2912  0.2642  0.7738
12541TIP3    H259039   5.130   1.372   4.656 -0.5277  1.6327  2.7160
12542TIP3   OH259040   5.403   3.999  12.001  0.5852 -1.4915 -0.0715
12542TIP3    H159041   5.465   3.933  12.033  1.1245  0.0384  2.2725
12542TIP3    H259042   5.442   4.032  11.920  2.1829 -1.5116  0.6610
12543TIP3   OH259043   0.814   0.445   1.361  0.1514  0.3535  0.4616
12543TIP3    H159044   0.904   0.446   1.327  0.1140  0.9990  0.3738
12543TIP3    H259045   0.771   0.375   1.311 -0.1435  1.8379 -1.5278
12544TIP3   OH259046   1.535   1.998  13.821  0.5179 -0.6927  0.1560
12544TIP3    H159047   1.481   1.937  13.771 -0.0421 -1.0892  1.2217
12544TIP3    H259048   1.491   2.083  13.811  1.4233 -0.3859 -1.5112
12545TIP3   OH259049   2.043   5.719  12.271 -0.3113 -0.6024 -0.1256
12545TIP3    H159050   1.991   5.669  12.209  1.8411 -2.0188 -0.8769
12545TIP3    H259051   2.123   5.668  12.283  0.3966  0.8536  1.9489
12546TIP3   OH259052   2.369   0.145  17.048  0.1150 -0.0883  0.1833
12546TIP3    H159053   2.278   0.149  17.078  0.2367  2.1367  0.4258
12546TIP3    H259054   2.368   0.080  16.977 -1.3048 -1.3026  1.2413
12547TIP3   OH259055   5.960   1.429  16.719  0.6215  0.0653  0.2005
12547TIP3    H159056   5.989   1.381  16.642  0.4545 -0.8636  0.7099
12547TIP3    H259057   5.906   1.500  16.684  1.8680  0.6386 -0.6383
12548TIP3   OH259058   5.829   1.440   4.463  0.4463  0.1141  0.1829
12548TIP3    H159059   5.879   1.520   4.446 -1.0718  1.8065  2.9630
12548TIP3    H259060   5.816   1.439   4.558 -1.2976 -2.3996  0.0189
12549TIP3   OH259061   5.896   1.765   2.618 -0.1504 -0.4977  0.4471
12549TIP3    H159062   5.950   1.692   2.646 -1.7419 -1.2557  1.7321
12549TIP3    H259063   5.808   1.744   2.651 -1.3902  0.3769 -2.0299
12550TIP3   OH259064   4.678   4.228  17.137  0.1431  0.1758 -0.1732
12550TIP3    H159065   4.614   4.245  17.205 -1.1096 -0.6428 -1.1136
12550TIP3    H259066   4.629   4.234  17.055  1.8441  2.3890 -1.1581
12551TIP3   OH259067   1.377   1.452  15.410 -0.0261 -0.5030  0.0453
12551TIP3    H159068   1.340   1.535  15.378  2.1086  0.6147  0.2714
12551TIP3    H259069   1.467   1.474  15.432  0.9654 -3.1817 -0.9707
12552TIP3   OH259070   2.259   4.301   6.059 -0.5358  0.2218  0.4130
12552TIP3    H159071   2.198   4.227   6.064 -0.2165 -0.1057 -0.2614
12552TIP3    H259072   2.243   4.351   6.138 -0.6822 -0.6377  0.9448
12553TIP3   OH259073   1.403   4.638   1.407  0.9000  0.0385  0.2510
12553TIP3    H159074   1.318   4.617   1.368  0.1824 -0.0494  1.7463
12553TIP3    H259075   1.462   4.569   1.376  0.2903 -0.2056 -0.3919
12554TIP3   OH259076   3.285   0.419   3.672 -0.8566 -0.4002  0.0531
12554TIP3    H159077   3.250   0.363   3.741 -2.4915  0.5787  0.0593
12554TIP3    H259078   3.226   0.406   3.598  0.6881 -1.1867 -1.0930
12555TIP3   OH259079   3.321   2.103  15.297  0.4242 -0.3978  0.3562
12555TIP3    H159080   3.302   2.093  15.390  0.6428  0.4951  0.5116
12555TIP3    H259081   3.319   2.198  15.283  3.1498 -0.3064  0.0466
12556TIP3   OH259082   1.051   6.302   0.593  0.5084  0.6984  0.1277
12556TIP3    H159083   1.069   6.309   0.499 -2.6957 -0.6913 -0.7364
12556TIP3    H259084   1.106   6.229   0.622 -0.9342 -1.1757 -1.5447
12557TIP3   OH259085   5.420   6.617  14.725 -0.5356  0.2898  0.3511
12557TIP3    H159086   5.442   6.524  14.720  0.8808  0.5599  0.9413
12557TIP3    H259087   5.420   6.646  14.634 -3.3189 -0.7291 -0.0771
12558TIP3   OH259088   0.422   6.272   5.039 -0.0175  0.3243  0.3310
12558TIP3    H159089   0.403   6.196   5.094 -1.3600  0.4939  0.1330
12558TIP3    H259090   0.488   6.241   4.977  0.6960 -0.1817  1.3172
12559TIP3   OH259091   1.268   6.041  17.290 -0.0608 -0.4598  0.2723
12559TIP3    H159092   1.360   6.017  17.278 -0.3519 -2.5602  1.8199
12559TIP3    H259093   1.225   6.012  17.210  0.5648  0.4563 -0.4230
12560TIP3   OH259094   3.428   1.538   1.641  0.5799 -0.2687 -0.2137
12560TIP3    H159095   3.364   1.554   1.710  1.9185  0.8668  0.8170
12560TIP3    H259096   3.503   1.499   1.686  1.4125  0.3376 -1.0408
12561TIP3   OH259097   3.958   0.571  11.400  0.1764 -0.7196 -0.3611
12561TIP3    H159098   4.036   0.589  11.347  0.1272  0.3287 -0.0963
12561TIP3    H259099   3.968   0.628  11.476  0.3817 -2.3866  0.9192
12562TIP3   OH259100   0.659   0.231   3.911 -0.3302  0.0403 -0.4058
12562TIP3    H159101   0.638   0.139   3.896 -0.1608 -0.4826  2.1272
12562TIP3    H259102   0.575   0.277   3.907 -0.4186 -0.1914 -1.6324
12563TIP3   OH259103   5.145   4.914   1.811 -0.3093  0.5359  0.2493
12563TIP3    H159104   5.113   4.961   1.734  3.9180 -1.6565 -3.3029
12563TIP3    H259105   5.082   4.843   1.823 -0.4058  0.0896 -2.2443
12564TIP3   OH259106   0.755   5.251   0.023 -0.3329 -0.2722  0.0112
12564TIP3    H159107   0.819   5.185  -0.003 -0.2699 -0.1457 -0.1639
12564TIP3    H259108   0.678   5.201   0.052  0.3634 -0.4646  1.6506
12565TIP3   OH259109   4.240   3.691  16.926  0.1420  0.1612 -0.6043
12565TIP3    H159110   4.316   3.738  16.961 -1.7142  2.1864  1.0770
12565TIP3    H259111   4.227   3.618  16.986  0.8656 -0.3017 -1.0112
12566TIP3   OH259112   4.712   4.842   3.372 -0.3966  0.0941 -0.9125
12566TIP3    H159113   4.792   4.884   3.340  0.2376  0.6783  1.2486
12566TIP3    H259114   4.676   4.796   3.296  1.9931 -0.1972 -1.9351
12567TIP3   OH259115   4.186   4.506  13.892 -0.0486 -0.1554 -0.7148
12567TIP3    H159116   4.137   4.430  13.859  0.1392 -0.5008 -0.2100
12567TIP3    H259117   4.126   4.580  13.882 -0.5617 -0.5265 -0.3699
12568TIP3   OH259118   2.477   1.655   0.810  0.4017 -0.0782  0.3228
12568TIP3    H159119   2.517   1.739   0.786  0.2275  0.0946  0.6286
12568TIP3    H259120   2.459   1.663   0.904 -0.1392 -0.2449  0.2374
12569TIP3   OH259121   4.266   6.440   0.146  0.0001  0.3771  0.2124
12569TIP3    H159122   4.279   6.499   0.220  0.8273  0.0785  0.3224
12569TIP3    H259123   4.221   6.364   0.183 -1.0341  0.9040  0.0775
12570TIP3   OH259124   6.201   4.909  11.469  0.7897  0.0237 -0.0885
12570TIP3    H159125   6.112   4.938  11.491  0.8802  1.4354 -1.4459
12570TIP3    H259126   6.255   4.939  11.542  0.2705 -0.2348  0.4095
12571TIP3   OH259127   4.762   4.792  13.220 -0.5040  0.2219  0.6430
12571TIP3    H159128   4.749   4.887  13.225  1.5706  0.5713  0.4277
12571TIP3    H259129   4.843   4.777  13.269 -0.8146 -1.4510  0.6939
12572TIP3   OH259130   5.902   1.043  12.734 -0.3751  0.3606  0.0379
12572TIP3    H159131   5.997   1.045  12.728 -0.2529  0.9813  1.6514
12572TIP3    H259132   5.873   1.110  12.672  0.3154  1.0774  0.4639
12573TIP3   OH259133   0.001   4.031  15.779 -0.2065  0.0325 -0.4446
12573TIP3    H159134  -0.086   4.038  15.819  0.7180 -1.5234  2.0618
12573TIP3    H259135   0.019   4.119  15.746 -2.3521  0.6100 -0.2653
12574TIP3   OH259136   3.867   2.733   3.503  0.1801 -0.5425  0.4970
12574TIP3    H159137   3.808   2.768   3.437 -0.3651 -1.6916  0.3482
12574TIP3    H259138   3.952   2.773   3.484  0.3185 -1.6727 -1.6309
12575TIP3   OH259139   5.303   1.756   4.155  0.1016  0.3372 -0.2093
12575TIP3    H159140   5.240   1.828   4.163 -1.4255 -0.8835 -0.6915
12575TIP3    H259141   5.356   1.761   4.234 -1.6680  0.4642  1.0299
12576TIP3   OH259142   5.582   6.579  14.367  0.1373  0.4853 -0.0910
12576TIP3    H159143   5.579   6.603  14.274 -0.1344 -0.7045 -0.4047
12576TIP3    H259144   5.519   6.637  14.409 -1.8248 -0.7912 -1.1109
12577TIP3   OH259145   1.378   4.314  15.383  0.5526 -0.3008 -0.3842
12577TIP3    H159146   1.330   4.336  15.303 -0.6822 -1.1219  0.0938
12577TIP3    H259147   1.459   4.274  15.353  0.8216  0.8341 -1.2240
12578TIP3   OH259148   3.104   4.959  14.831  0.4255  0.0743 -0.0787
12578TIP3    H159149   3.147   4.992  14.752 -0.6422  0.9147 -0.3338
12578TIP3    H259150   3.010   4.963  14.810  0.1561 -0.2186  1.0331
12579TIP3   OH259151   1.541   1.628   6.437 -0.0118 -0.4036  0.2864
12579TIP3    H159152   1.457   1.670   6.424  0.6761  0.6356 -0.9762
12579TIP3    H259153   1.529   1.575   6.516 -2.1292 -1.0635 -0.4099
12580TIP3   OH259154   1.268   4.088  12.978 -0.2566  0.4733 -0.1143
12580TIP3    H159155   1.265   4.022  12.909 -1.5088 -0.7206  1.0158
12580TIP3    H259156   1.332   4.152  12.948  1.2653 -1.4256 -1.1257
12581TIP3   OH259157   6.422   2.693  14.030  0.7201 -0.2032 -0.0805
12581TIP3    H159158   6.328   2.700  14.049  0.1956 -1.4350 -1.8890
12581TIP3    H259159   6.461   2.768  14.074 -1.3294  1.2317 -0.5632
12582TIP3   OH259160   2.689   5.727   3.852  0.4504 -0.4027 -0.6680
12582TIP3    H159161   2.626   5.726   3.924 -0.9844 -1.2679 -1.8782
12582TIP3    H259162   2.740   5.647   3.865  1.2506  0.2382  0.2478
12583TIP3   OH259163   0.038   0.383  12.415  0.5744  0.0399 -0.5688
12583TIP3    H159164  -0.049   0.342  12.423  0.6016  0.3372  2.1471
12583TIP3    H259165   0.023   0.475  12.434  1.5690 -0.0456  0.7827
12584TIP3   OH259166   4.231   4.715   2.789 -0.4855 -0.5740 -0.0196
12584TIP3    H159167   4.261   4.712   2.698  1.3459 -1.4304  0.5669
12584TIP3    H259168   4.146   4.759   2.784  0.4203  1.1466 -1.9115
12585TIP3   OH259169   2.999   5.814   5.987  0.4988  0.2918  0.4695
12585TIP3    H159170   2.942   5.877   6.032  0.0136  0.1374  0.0764
12585TIP3    H259171   2.947   5.733   5.983  0.1215  0.5828 -1.2751
12586TIP3   OH259172   0.211   1.780  16.371  0.5933 -0.2687  0.1285
12586TIP3    H159173   0.279   1.729  16.417 -0.7839 -1.6611  0.7285
12586TIP3    H259174   0.221   1.755  16.279  0.8990 -0.4758  0.2153
12587TIP3   OH259175   2.086   0.615   4.425 -0.1793  0.6530  0.0803
12587TIP3    H159176   2.003   0.576   4.395 -0.0539  0.5015 -0.0701
12587TIP3    H259177   2.087   0.598   4.519  0.0402 -0.0191 -0.0421
12588TIP3   OH259178   2.686   0.414  15.647 -0.1824  0.1350 -0.6498
12588TIP3    H159179   2.645   0.500  15.646  0.3724  0.4398  0.5542
12588TIP3    H259180   2.652   0.373  15.727 -0.5386 -0.8210 -1.2757
12589TIP3   OH259181   0.448   2.463  16.645 -0.0418  0.0044  0.7159
12589TIP3    H159182   0.486   2.388  16.600 -1.3659 -0.2307 -0.0767
12589TIP3    H259183   0.519   2.527  16.650  0.7156 -0.7787  0.1645
12590TIP3   OH259184   2.667   3.522   2.922  0.2045 -0.2952 -0.0501
12590TIP3    H159185   2.683   3.524   2.828  0.7390 -0.0343  0.0414
12590TIP3    H259186   2.572   3.529   2.930  0.1234 -0.7205 -0.5800
12591TIP3   OH259187   2.975   4.810   5.000  0.4498  0.2684  0.0373
12591TIP3    H159188   2.904   4.753   4.970 -0.8059  1.5493  0.4554
12591TIP3    H259189   3.028   4.753   5.056 -2.0619 -0.0541  2.3589
12592TIP3   OH259190   5.116   5.156   1.241  0.5376  0.3161  0.8126
12592TIP3    H159191   5.086   5.079   1.289 -1.1610  1.1950  1.2603
12592TIP3    H259192   5.207   5.138   1.219  0.2238 -1.7393  1.0344
12593TIP3   OH259193   3.746   5.733  14.250 -0.3022  0.0641  0.5510
12593TIP3    H159194   3.771   5.805  14.308 -2.1763  1.0070  0.2707
12593TIP3    H259195   3.765   5.653  14.301 -0.6849  0.8312  1.9486
12594TIP3   OH259196   2.920   4.578  14.173 -0.8901 -0.3293 -0.3202
12594TIP3    H159197   2.892   4.536  14.254 -0.3057 -0.6944 -0.2999
12594TIP3    H259198   2.927   4.505  14.110  1.1894 -0.4718 -0.0089
12595TIP3   OH259199   6.159   1.632   2.034 -0.5142  0.2386 -0.0101
12595TIP3    H159200   6.083   1.687   2.052 -0.8698  0.1144 -1.0815
12595TIP3    H259201   6.173   1.584   2.116 -1.4913  0.3788  0.2553
12596TIP3   OH259202   1.054   5.556   2.486  0.0505 -0.7640 -0.9976
12596TIP3    H159203   1.024   5.633   2.437 -0.8909  0.4105  1.2732
12596TIP3    H259204   1.146   5.547   2.463 -0.2452 -0.0213 -2.6260
12597TIP3   OH259205   1.885   6.139  11.296  0.3000  0.0725  0.5832
12597TIP3    H159206   1.884   6.231  11.321 -0.0740 -0.1299  1.3529
12597TIP3    H259207   1.793   6.118  11.276  0.7430  0.5996 -2.5028
12598TIP3   OH259208   0.243   6.604   3.799 -0.1630  0.2522  0.2018
12598TIP3    H159209   0.159   6.562   3.781 -0.5772  1.5183 -1.0134
12598TIP3    H259210   0.274   6.634   3.713  0.9326  0.9217  0.8028
12599TIP3   OH259211   5.051   4.092  15.793 -0.1966  0.4024  0.0168
12599TIP3    H159212   5.046   4.031  15.720  1.1770  2.6564 -2.1096
12599TIP3    H259213   5.005   4.170  15.762  0.2602  1.3629  1.6354
12600TIP3   OH259214   5.468   4.424   3.431  0.1138 -0.5697 -1.0150
12600TIP3    H159215   5.380   4.463   3.425  0.1513 -0.0097  1.1389
12600TIP3    H259216   5.458   4.336   3.395 -1.8130 -1.1579  0.7611
12601TIP3   OH259217   6.006   3.620   5.276 -0.5126 -0.3339 -0.0506
12601TIP3    H159218   5.991   3.672   5.355 -1.1370  1.0030 -0.9944
12601TIP3    H259219   5.973   3.533   5.297 -2.0551  0.3938  0.6909
12602TIP3   OH259220   5.212   6.614  12.063  0.4507  0.3708  0.7686
12602TIP3    H159221   5.279   6.547  12.076 -1.0361 -1.4648 -0.4619
12602TIP3    H259222   5.233   6.652  11.977  1.2144  1.4240  1.4067
12603TIP3   OH259223   4.600   4.716   3.160 -0.4845  0.3518 -0.1261
12603TIP3    H159224   4.603   4.621   3.148 -0.9148  0.4968 -1.5630
12603TIP3    H259225   4.583   4.750   3.072  2.3886  1.9420 -0.1780
12604TIP3   OH259226   5.091   2.323  12.868 -0.9233  1.1891 -0.0046
12604TIP3    H159227   5.042   2.402  12.889 -0.4046  1.6081 -0.3572
12604TIP3    H259228   5.082   2.312  12.774  0.2476  1.6749 -0.1827
12605TIP3   OH259229   6.503   4.444  14.096 -0.0170 -0.7624 -0.0307
12605TIP3    H159230   6.429   4.500  14.071 -0.5199 -0.8510  1.1741
12605TIP3    H259231   6.475   4.402  14.177  1.2520 -1.0175  0.3038
12606TIP3   OH259232   6.628   2.603  14.677  0.4983  0.4240  0.1625
12606TIP3    H159233   6.559   2.626  14.615 -1.4557  1.4003  2.4947
12606TIP3    H259234   6.624   2.507  14.684  0.2128  0.3774 -0.6278
12607TIP3   OH259235   5.354   4.089   0.032  0.3537 -0.0579  0.5417
12607TIP3    H159236   5.311   4.122   0.111  0.2940  0.4274  0.3098
12607TIP3    H259237   5.295   4.111  -0.039 -0.8831 -2.8564  0.5966
12608TIP3   OH259238   6.429   5.891   2.994  0.2632  0.4453 -0.8700
12608TIP3    H159239   6.383   5.830   2.935 -0.7262  1.3113 -1.0210
12608TIP3    H259240   6.364   5.912   3.061  1.7231 -1.4238  1.2649
12609TIP3   OH259241   6.447   0.417   0.430 -0.2298 -0.2712 -0.1582
12609TIP3    H159242   6.406   0.380   0.508 -0.8303 -0.5152 -0.5817
12609TIP3    H259243   6.421   0.358   0.359 -0.7002  0.6152 -0.7450
12610TIP3   OH259244   4.017   2.046  14.304  0.1731 -0.5106 -0.4563
12610TIP3    H159245   4.064   1.992  14.367 -0.1953 -1.5123 -1.0170
12610TIP3    H259246   3.986   2.121  14.354  1.3745 -0.4048  0.1680
12611TIP3   OH259247   0.500   1.504   6.804 -0.3499  0.6234  0.3021
12611TIP3    H159248   0.490   1.410   6.791 -1.1353  0.6657  0.5293
12611TIP3    H259249   0.431   1.543   6.750 -0.8105  0.9925  1.1283
12612TIP3   OH259250   2.763   1.090   5.424 -0.2093  0.3646 -0.5507
12612TIP3    H159251   2.709   1.027   5.472  0.5221 -0.1988 -0.4423
12612TIP3    H259252   2.701   1.140   5.372 -0.8413 -0.2374 -0.3946
12613TIP3   OH259253   4.173   2.092  16.978  0.2986  0.4621  0.0671
12613TIP3    H159254   4.126   2.016  16.942  0.0227  1.1419 -1.0343
12613TIP3    H259255   4.264   2.076  16.954 -0.1099  1.9129 -2.9266
12614TIP3   OH259256   3.906   0.285  13.976 -0.0290 -0.2668  0.5296
12614TIP3    H159257   3.958   0.204  13.984 -0.5736 -0.5722  1.0230
12614TIP3    H259258   3.845   0.267  13.904 -0.3164 -0.3907  0.8022
12615TIP3   OH259259   0.973   2.318   2.114  0.5701  0.4611  0.2008
12615TIP3    H159260   0.902   2.257   2.094 -0.2976  1.5167 -0.0307
12615TIP3    H259261   0.964   2.335   2.208  0.0204  1.1803  0.0278
12616TIP3   OH259262   6.322   1.664  12.608 -0.1696  0.3746  0.7072
12616TIP3    H159263   6.271   1.674  12.528 -0.5868  1.0207  1.0433
12616TIP3    H259264   6.343   1.571  12.612  1.4667  0.6056 -1.1312
12617TIP3   OH259265   5.130   3.818  16.179 -0.2724  0.5766  0.0484
12617TIP3    H159266   5.147   3.870  16.100 -1.6353  1.4343  0.2784
12617TIP3    H259267   5.113   3.730  16.145  0.7320  0.5593 -0.4631
12618TIP3   OH259268   3.265   1.042   5.750 -0.1286  0.2440 -0.1549
12618TIP3    H159269   3.206   1.066   5.822 -0.5124  0.4376 -0.5266
12618TIP3    H259270   3.260   0.946   5.746  0.3018  0.1921  0.4121
12619TIP3   OH259271   2.448   2.782   5.891 -0.2418  0.2125  0.3708
12619TIP3    H159272   2.363   2.805   5.855  0.6448  0.9786 -1.3580
12619TIP3    H259273   2.458   2.688   5.873 -0.2408  0.3727 -0.4679
12620TIP3   OH259274   0.048   5.571   6.071  0.1960  0.0155  0.4347
12620TIP3    H159275  -0.003   5.506   6.120  0.8052 -0.0423  0.9984
12620TIP3    H259276   0.062   5.531   5.985  0.2997 -0.4695  0.6733
12621TIP3   OH259277   3.410   4.523   5.909  0.0412 -0.0738 -0.0542
12621TIP3    H159278   3.346   4.503   5.842 -1.8717  0.3923  1.5487
12621TIP3    H259279   3.416   4.619   5.909 -0.8082  0.0002  1.1286
12622TIP3   OH259280   3.737   1.483  12.093 -0.4039 -0.9386 -0.4852
12622TIP3    H159281   3.707   1.572  12.076  0.8573 -0.7107 -1.6097
12622TIP3    H259282   3.694   1.459  12.176  0.4490  1.2680  0.6536
12623TIP3   OH259283   0.088   5.203  12.940  1.0178 -0.4849 -0.0545
12623TIP3    H159284   0.179   5.176  12.937  1.4622  0.9288 -0.0614
12623TIP3    H259285   0.091   5.299  12.939 -0.4324 -0.3987  0.8389
12624TIP3   OH259286   3.279   4.786   5.788  0.3481 -0.0063 -0.2970
12624TIP3    H159287   3.242   4.709   5.745 -0.6399 -0.3293  1.0598
12624TIP3    H259288   3.332   4.828   5.721 -0.1894 -1.1265 -1.4615
12625TIP3   OH259289   5.575   5.963   4.802 -0.3855 -0.1202 -0.0184
12625TIP3    H159290   5.541   5.875   4.818 -0.0333 -0.3969 -0.7483
12625TIP3    H259291   5.501   6.011   4.765 -0.0361 -0.7007 -1.5373
12626TIP3   OH259292   5.128   1.751  14.561 -0.0613 -0.3298  0.4345
12626TIP3    H159293   5.209   1.707  14.535 -0.1060 -1.8753  2.5838
12626TIP3    H259294   5.154   1.806  14.635 -0.8304 -0.2285  0.6375
12627TIP3   OH259295   5.178   6.678   1.098 -0.8130  0.1381 -0.2864
12627TIP3    H159296   5.253   6.639   1.142 -0.6752 -0.9136 -1.3804
12627TIP3    H259297   5.104   6.623   1.124 -0.7891 -0.2717 -1.0586
12628TIP3   OH259298   4.411   2.544   4.672 -0.4117  0.1033  0.0552
12628TIP3    H159299   4.359   2.482   4.724 -0.1045  0.0186  0.2678
12628TIP3    H259300   4.449   2.603   4.737  0.7402 -0.5740  0.0279
12629TIP3   OH259301   6.427   5.455   1.575 -0.3050  0.6334  0.4599
12629TIP3    H159302   6.435   5.550   1.566 -0.7654  0.5750 -0.8885
12629TIP3    H259303   6.501   5.420   1.524  1.3074  0.2464  2.8997
12630TIP3   OH259304   6.259   5.466   2.818 -0.3153  0.1200  0.2465
12630TIP3    H159305   6.308   5.418   2.751 -1.2363  0.2351 -0.5402
12630TIP3    H259306   6.168   5.441   2.803 -0.6709  1.1537  0.6273
12631TIP3   OH259307   6.110   3.691  15.410  0.0647  0.6927  0.0323
12631TIP3    H159308   6.091   3.720  15.500 -0.5575 -1.1683  0.5316
12631TIP3    H259309   6.206   3.688  15.406  0.1350  2.0114  0.1982
12632TIP3   OH259310   2.394   2.475  14.528 -0.3351  0.4977 -0.3679
12632TIP3    H159311   2.306   2.481  14.492 -0.8217  1.4584  0.9170
12632TIP3    H259312   2.403   2.383  14.553 -1.2388  0.5214  0.0895
12633TIP3   OH259313   2.646   6.745   2.251  0.8298 -0.1448  0.4681
12633TIP3    H159314   2.652   6.830   2.296  1.1208  0.0838 -0.0002
12633TIP3    H259315   2.732   6.731   2.213  1.1457 -1.2077  1.5120
12634TIP3   OH259316   3.610   0.766  12.861  0.2721  0.3257 -0.6016
12634TIP3    H159317   3.645   0.751  12.948  0.0506 -0.6985 -0.6790
12634TIP3    H259318   3.522   0.802  12.875 -0.3842 -1.2964 -0.3757
12635TIP3   OH259319   1.938   2.242  15.486  0.1608 -0.3820 -0.1337
12635TIP3    H159320   1.843   2.227  15.477  0.1140 -0.2547  0.1451
12635TIP3    H259321   1.972   2.158  15.516  0.1060 -0.3644 -0.0232
12636TIP3   OH259322   1.594   6.027  15.296  0.4574 -0.2495  0.0289
12636TIP3    H159323   1.641   6.027  15.213  1.7313  1.6007  0.6865
12636TIP3    H259324   1.658   5.996  15.360 -0.2134 -0.7422  0.4729
12637TIP3   OH259325   0.261   4.248  13.193 -0.5383  0.0049 -0.6052
12637TIP3    H159326   0.313   4.246  13.112  1.2915 -0.9565  0.5309
12637TIP3    H259327   0.306   4.311  13.249 -0.9560 -0.3860  0.1912
12638TIP3   OH259328   3.181   3.948   4.253 -0.2509  0.1059 -0.0016
12638TIP3    H159329   3.153   3.889   4.323 -1.5355  1.1547  0.4131
12638TIP3    H259330   3.243   3.897   4.201 -0.7138 -1.3153  0.8038
12639TIP3   OH259331   0.760   6.734  16.002  0.0496  0.2600  0.1735
12639TIP3    H159332   0.779   6.701  15.914 -1.9412  0.9558 -0.5846
12639TIP3    H259333   0.701   6.669  16.040 -0.3784  0.7543  0.3666
12640TIP3   OH259334   5.418   5.890   3.006 -0.3908  0.2460  0.4767
12640TIP3    H159335   5.358   5.961   2.986 -1.4091 -0.7613 -0.1445
12640TIP3    H259336   5.495   5.908   2.951 -0.7224  0.7525  0.1674
12641TIP3   OH259337   3.750   1.125   0.405  0.0851  0.1702 -0.1424
12641TIP3    H159338   3.670   1.158   0.365  0.1130  0.3536 -0.0499
12641TIP3    H259339   3.731   1.121   0.498  0.3089  0.5787 -0.0765
12642TIP3   OH259340   3.004   5.679  16.714  0.4385  0.5751  0.4838
12642TIP3    H159341   2.953   5.744  16.666  0.5856  1.5065  1.5541
12642TIP3    H259342   2.939   5.619  16.750  0.2896  0.2178 -0.3672
12643TIP3   OH259343   5.098   3.878  11.204 -0.3596 -0.1244 -0.4601
12643TIP3    H159344   5.099   3.973  11.220  2.2528  0.3709 -2.7996
12643TIP3    H259345   5.176   3.846  11.249 -1.3218 -1.2387  0.4589
12644TIP3   OH259346   4.291   2.874  12.296  0.0452  0.1178 -0.4534
12644TIP3    H159347   4.281   2.964  12.327 -2.4973 -0.2401  0.0490
12644TIP3    H259348   4.249   2.821  12.364 -0.6677 -1.1998 -1.8638
12645TIP3   OH259349   2.139   4.352  13.607  0.1682 -0.5708  0.7192
12645TIP3    H159350   2.113   4.286  13.671 -1.3120 -0.5166  0.2183
12645TIP3    H259351   2.145   4.304  13.524 -0.4704 -0.1859  0.4373
12646TIP3   OH259352   0.472   0.039   0.049  0.4349 -0.3086 -0.5546
12646TIP3    H159353   0.500  -0.039   0.097  0.3004 -0.4666 -0.7364
12646TIP3    H259354   0.543   0.102   0.064 -1.1124  0.8750  2.7654
12647TIP3   OH259355   5.503   1.690  17.024 -0.5661  0.8907  0.3273
12647TIP3    H159356   5.589   1.700  17.065  0.5529  2.4803 -2.1901
12647TIP3    H259357   5.516   1.623  16.957 -2.0372 -0.7623  1.6002
12648TIP3   OH259358   4.874   1.332   1.781 -0.2127 -0.0581 -0.1523
12648TIP3    H159359   4.834   1.247   1.801 -1.6307  0.9039  1.4476
12648TIP3    H259360   4.924   1.353   1.860 -1.7205  1.5738  0.4130
12649TIP3   OH259361   1.487   2.570  11.249 -0.0142 -0.0903  0.0481
12649TIP3    H159362   1.506   2.477  11.233  0.5598  0.2175 -1.1726
12649TIP3    H259363   1.483   2.577  11.344  1.1159 -1.1503  0.2032
12650TIP3   OH259364   6.133   1.734   2.411 -0.1958 -0.5262  0.1356
12650TIP3    H159365   6.045   1.755   2.442 -0.7108 -3.2245  0.7932
12650TIP3    H259366   6.120   1.663   2.349  1.4558 -0.2284 -0.5893
12651TIP3   OH259367   2.981   1.674   2.397 -0.7805 -0.3078  0.3622
12651TIP3    H159368   2.922   1.636   2.332 -0.8315  0.4253 -0.0241
12651TIP3    H259369   2.971   1.617   2.474 -0.0313 -1.7153 -0.5420
12652TIP3   OH259370   6.211   6.758   0.100 -0.4623 -0.4082 -0.1124
12652TIP3    H159371   6.202   6.841   0.147 -1.8303 -0.8956  0.5508
12652TIP3    H259372   6.273   6.777   0.029 -1.4596  1.4486 -0.5627
12653TIP3   OH259373   6.444   2.508   1.898 -0.1109  0.5977 -0.5653
12653TIP3    H159374   6.376   2.499   1.965 -1.1922 -0.4368 -1.7521
12653TIP3    H259375   6.407   2.570   1.835  0.1606  0.2633 -1.0580
12654TIP3   OH259376   2.970   2.112   3.025  0.5532  0.4721  0.0826
12654TIP3    H159377   3.015   2.175   2.968 -0.9874 -0.5144 -2.4012
12654TIP3    H259378   2.885   2.153   3.042 -0.0358 -0.4191 -0.6406
12655TIP3   OH259379   6.151   2.435   3.921 -0.2513 -0.0719 -0.4882
12655TIP3    H159380   6.148   2.392   4.007 -0.3598  2.5704  0.9426
12655TIP3    H259381   6.230   2.402   3.880  0.8245 -0.0533  1.4455
12656TIP3   OH259382   3.829   0.513   3.144 -0.4907  0.0121 -0.2769
12656TIP3    H159383   3.771   0.558   3.083 -0.2220  0.5564 -0.1387
12656TIP3    H259384   3.804   0.548   3.230  0.0295  0.2379 -0.2170
12657TIP3   OH259385   4.799   4.804   0.897  0.1588 -0.3506  0.7808
12657TIP3    H159386   4.866   4.852   0.947  1.4370  0.0011 -1.1511
12657TIP3    H259387   4.786   4.857   0.819 -1.5945 -1.0134  0.5955
12658TIP3   OH259388   2.208   5.217   2.106  0.0617  0.5295  0.0831
12658TIP3    H159389   2.287   5.235   2.157 -2.1800 -0.4036  4.3574
12658TIP3    H259390   2.160   5.300   2.104  0.1930  0.5963 -0.7217
12659TIP3   OH259391   0.143   0.367  11.837  0.2464 -0.2056  0.3626
12659TIP3    H159392   0.169   0.279  11.866 -2.6515 -1.3327 -0.1997
12659TIP3    H259393   0.212   0.392  11.775  1.7727 -1.5272  1.4184
12660TIP3   OH259394   5.264   6.626  14.251 -0.3223  0.3313  0.0908
12660TIP3    H159395   5.181   6.674  14.243  0.2569  1.5208  0.8586
12660TIP3    H259396   5.240   6.534  14.243 -1.6976  0.6649  0.1750
12661TIP3   OH259397   2.165   3.856   0.052  0.4938  0.6455  0.3825
12661TIP3    H159398   2.107   3.898   0.116  0.4757 -0.6429  1.2487
12661TIP3    H259399   2.201   3.780   0.099 -0.6863 -1.2358 -1.6208
12662TIP3   OH259400   3.532   2.944   3.613 -0.9247  0.3646  0.4292
12662TIP3    H159401   3.598   2.958   3.682 -1.9252 -0.6345  1.6337
12662TIP3    H259402   3.563   2.997   3.540  0.5635  0.8980  1.3915
12663TIP3   OH259403   1.038   0.223   5.175  0.6860  0.1685 -0.0027
12663TIP3    H159404   1.085   0.169   5.112  0.6433 -0.1361  0.2237
12663TIP3    H259405   0.947   0.192   5.171  0.6226  0.3489 -0.0041
12664TIP3   OH259406   0.085   1.393  12.435  0.7781 -0.5471  0.2716
12664TIP3    H159407   0.174   1.377  12.466  0.8620  1.1166  1.0007
12664TIP3    H259408   0.040   1.432  12.510 -0.6968 -1.7008  0.0346
12665TIP3   OH259409   5.583   0.655  15.079  0.3387 -0.5486 -0.9980
12665TIP3    H159410   5.489   0.649  15.097 -0.0786  2.3132 -1.7697
12665TIP3    H259411   5.623   0.594  15.141 -1.8697 -0.3479  0.7500
12666TIP3   OH259412   5.403   5.211  16.130 -0.1119  0.0544 -0.5736
12666TIP3    H159413   5.367   5.268  16.061 -1.2076 -0.2605 -0.2789
12666TIP3    H259414   5.326   5.172  16.171  0.4322  1.1090  1.6032
12667TIP3   OH259415   1.794   2.477   4.763 -0.3320 -0.0818 -0.3250
12667TIP3    H159416   1.811   2.495   4.670  1.5420  2.6184  0.4131
12667TIP3    H259417   1.733   2.545   4.789 -3.4174 -2.6972 -0.1619
12668TIP3   OH259418   2.181   3.027  13.396 -0.3474  0.2202  0.4218
12668TIP3    H159419   2.166   3.105  13.450  1.4079  0.0388  1.2543
12668TIP3    H259420   2.237   3.057  13.324  0.1425 -0.1931  0.6170
12669TIP3   OH259421   1.557   4.649  12.074  0.3711 -0.1786  0.2153
12669TIP3    H159422   1.595   4.736  12.070  2.0165 -0.8270  0.8887
12669TIP3    H259423   1.548   4.622  11.983  0.1512  0.5418  0.0146
12670TIP3   OH259424   6.575   6.068  13.521 -0.2725  0.5516 -0.0158
12670TIP3    H159425   6.644   6.056  13.455  0.5409  1.6642  0.5924
12670TIP3    H259426   6.622   6.067  13.604 -1.4033 -1.8472  0.6767
12671TIP3   OH259427   6.576   0.113   6.609 -0.0468 -0.4038 -0.4066
12671TIP3    H159428   6.546   0.187   6.660  0.7972 -0.2692 -0.0917
12671TIP3    H259429   6.498   0.059   6.597  0.0016 -1.2518  2.3621
12672TIP3   OH259430   3.884   5.644  15.832  0.3186 -0.1332  0.0976
12672TIP3    H159431   3.868   5.729  15.872 -1.6154 -1.1247  1.6360
12672TIP3    H259432   3.871   5.659  15.738 -3.1436  0.7423  0.5785
12673TIP3   OH259433   3.498   1.355   2.982 -0.3711 -0.2417 -0.2909
12673TIP3    H159434   3.500   1.407   3.062  1.9142  0.2276 -0.5645
12673TIP3    H259435   3.406   1.338   2.965 -1.0158  1.5072  1.2498
12674TIP3   OH259436   3.485   0.194   1.274  0.3026  0.5358  0.4504
12674TIP3    H159437   3.402   0.214   1.230  0.9721 -0.6244 -1.4570
12674TIP3    H259438   3.465   0.117   1.327 -0.4060  1.6865  1.9127
12675TIP3   OH259439   6.151   2.685  15.095  0.1664  0.4898 -0.6103
12675TIP3    H159440   6.133   2.778  15.110  0.7922  0.3703  1.0736
12675TIP3    H259441   6.240   2.672  15.129  0.6803 -0.4205 -2.2191
12676TIP3   OH259442   0.976   0.083  13.502  0.0829  0.4457 -0.8412
12676TIP3    H159443   0.968   0.046  13.414 -0.0751 -2.4540  0.2787
12676TIP3    H259444   0.886   0.099  13.530 -0.2207 -2.3094  0.1090
12677TIP3   OH259445   0.556   3.982  16.029 -0.4067 -0.1668 -0.2644
12677TIP3    H159446   0.626   3.917  16.019 -1.5966 -1.4784 -0.5055
12677TIP3    H259447   0.512   3.957  16.111 -1.0570  0.1417 -0.5136
12678TIP3   OH259448   2.320   0.011   3.080 -0.4666  0.6947  0.1956
12678TIP3    H159449   2.270   0.086   3.047 -0.8595  0.9591  1.3392
12678TIP3    H259450   2.256  -0.059   3.088 -0.9512  1.3175  2.6208
12679TIP3   OH259451   5.857   5.602   3.864  0.1737 -0.1112 -0.6096
12679TIP3    H159452   5.795   5.596   3.791 -0.4970 -1.3511  0.0279
12679TIP3    H259453   5.801   5.607   3.941  0.8788  1.1045 -0.1542
12680TIP3   OH259454   2.758   6.202  15.732  0.0396 -0.1612 -0.2273
12680TIP3    H159455   2.797   6.264  15.793  2.4070 -0.5865 -1.2086
12680TIP3    H259456   2.714   6.138  15.787  0.1881  0.6832  0.9025
12681TIP3   OH259457   5.661   5.095   2.488  0.1300 -0.2238  0.3760
12681TIP3    H159458   5.660   5.060   2.578  1.7244  0.0215  0.5161
12681TIP3    H259459   5.725   5.166   2.491 -1.3564  1.2130 -0.4675
12682TIP3   OH259460   6.040   5.531   4.690  0.1289 -0.4023 -0.1067
12682TIP3    H159461   6.032   5.452   4.636 -0.0825 -1.1887  1.0626
12682TIP3    H259462   6.021   5.603   4.629  0.2213 -1.2397 -1.1626
12683TIP3   OH259463   3.349   1.906   2.280 -0.5531 -0.3004  0.2089
12683TIP3    H159464   3.419   1.876   2.222  1.0757  2.3555  0.6523
12683TIP3    H259465   3.366   1.862   2.363  1.9729  1.8250  0.9391
12684TIP3   OH259466   5.734   2.631   1.278  0.1721  0.4532  0.0271
12684TIP3    H159467   5.759   2.598   1.364 -1.0673 -0.2370  0.1455
12684TIP3    H259468   5.802   2.695   1.256  0.6595  0.4343  1.3882
12685TIP3   OH259469   1.667   0.146  10.654 -0.2114 -0.0744  1.2946
12685TIP3    H159470   1.682   0.073  10.594 -0.2537 -0.1456  1.3708
12685TIP3    H259471   1.735   0.210  10.632 -1.0021  0.4503  0.3101
12686TIP3   OH259472   4.338   4.762   5.861  0.3517  0.3274  0.1907
12686TIP3    H159473   4.292   4.762   5.945  1.0853 -0.1307  0.5987
12686TIP3    H259474   4.430   4.769   5.884  0.5068  1.1404 -0.6159
12687TIP3   OH259475   2.738   2.199   3.107 -0.1379 -0.1805  0.0245
12687TIP3    H159476   2.707   2.129   3.049  0.7301 -1.4250  1.0062
12687TIP3    H259477   2.692   2.277   3.077  0.4158 -0.7217 -2.4538
12688TIP3   OH259478   1.738   5.560  12.345  0.0730 -0.0393 -0.2115
12688TIP3    H159479   1.762   5.527  12.259 -0.7121 -1.2979  0.0224
12688TIP3    H259480   1.700   5.484  12.390  1.1761  0.3814  1.5222
12689TIP3   OH259481   3.734   1.070  16.011  0.3029 -0.1539  0.7199
12689TIP3    H159482   3.699   0.999  16.065 -0.7496  0.0508  0.3174
12689TIP3    H259483   3.818   1.036  15.979 -1.1181 -2.1436 -1.2270
12690TIP3   OH259484   4.735   5.881   3.482 -0.8503  0.3172 -0.5616
12690TIP3    H159485   4.698   5.808   3.531  0.3921  0.2548  0.3320
12690TIP3    H259486   4.816   5.847   3.445 -1.1883  0.7150 -1.7028
12691TIP3   OH259487   4.668   5.997  14.307 -0.1947  0.0661 -0.2972
12691TIP3    H159488   4.604   5.962  14.246 -0.2271 -1.0444  0.3539
12691TIP3    H259489   4.689   6.084  14.272  0.3567 -0.8158 -2.3212
12692TIP3   OH259490   0.927   4.910  11.246 -0.0851 -0.0596 -0.3391
12692TIP3    H159491   0.910   4.980  11.183  1.4485 -0.2501 -1.0211
12692TIP3    H259492   0.866   4.926  11.317 -0.6390  1.2222 -1.0652
12693TIP3   OH259493   1.030   2.512   4.263  0.8678 -0.4953 -0.1411
12693TIP3    H159494   0.942   2.477   4.274  1.4378 -1.5313  1.3470
12693TIP3    H259495   1.056   2.542   4.350  2.2387 -0.8540 -0.3991
12694TIP3   OH259496   4.407   2.389   3.625 -0.1844 -0.7391  0.0730
12694TIP3    H159497   4.435   2.302   3.595 -0.2525 -0.9822  0.6921
12694TIP3    H259498   4.456   2.450   3.571  0.2399 -1.1653 -0.0325
12695TIP3   OH259499   5.712   6.729   6.502 -0.0152 -0.0661  0.1301
12695TIP3    H159500   5.632   6.691   6.467 -1.3710  1.4552  1.3538
12695TIP3    H259501   5.751   6.660   6.555 -1.7750 -0.2000  1.3478
12696TIP3   OH259502   0.766   2.671   0.840  0.7650  0.6203 -0.1745
12696TIP3    H159503   0.852   2.693   0.805 -0.1124  3.9553 -0.5812
12696TIP3    H259504   0.727   2.613   0.774  2.0304  0.5180 -0.8587
12697TIP3   OH259505   3.710   6.648   1.139  0.6775  0.0622  0.1500
12697TIP3    H159506   3.747   6.671   1.224  0.9147 -0.3569  0.1627
12697TIP3    H259507   3.759   6.570   1.112 -0.6698 -0.9287  0.4888
12698TIP3   OH259508   2.781   5.940   6.432 -0.6959 -0.7641 -0.3571
12698TIP3    H159509   2.808   6.027   6.402 -0.7490 -0.8571 -0.6745
12698TIP3    H259510   2.810   5.881   6.363 -3.0536 -0.7175 -1.4642
12699TIP3   OH259511   2.178   3.687   0.803  0.3774  0.1276  0.3254
12699TIP3    H159512   2.157   3.778   0.783 -0.1012 -0.1433 -0.4347
12699TIP3    H259513   2.093   3.644   0.811  0.6066 -0.3558  0.1995
12700TIP3   OH259514   6.245   6.340  14.721 -0.7758 -0.4153 -0.0760
12700TIP3    H159515   6.246   6.383  14.807 -0.0238 -0.1215 -0.2198
12700TIP3    H259516   6.155   6.310  14.710 -0.1601 -3.7773  2.4329
12701TIP3   OH259517   5.078   1.501  12.436 -0.0608  0.4375  0.2178
12701TIP3    H159518   5.031   1.525  12.357  1.0650 -0.2497 -0.6872
12701TIP3    H259519   5.067   1.406  12.443 -4.6449  0.8545  3.8677
12702TIP3   OH259520   3.596   5.339   1.338 -0.3172  0.0592 -0.6240
12702TIP3    H159521   3.690   5.353   1.329 -0.4680  0.0197 -2.5105
12702TIP3    H259522   3.588   5.249   1.370  0.2682  0.0726 -0.4205
12703TIP3   OH259523   5.138   0.873  14.067 -0.3437  0.1346  0.7810
12703TIP3    H159524   5.158   0.947  14.125 -0.8794  0.2103  0.8747
12703TIP3    H259525   5.101   0.912  13.989 -1.5703 -0.0671  1.2270
12704TIP3   OH259526   3.855   3.197   1.728 -0.0982  0.0194  0.0416
12704TIP3    H159527   3.849   3.281   1.774  0.1252 -1.3912  2.8650
12704TIP3    H259528   3.774   3.151   1.752  0.5382 -1.1928 -0.0501
12705TIP3   OH259529   3.536   1.492  12.707  0.6335 -0.0694  0.2720
12705TIP3    H159530   3.612   1.441  12.678  0.3292  0.0868 -0.8449
12705TIP3    H259531   3.573   1.564  12.758  1.2401  0.0199 -0.2848
12706TIP3   OH259532   5.894   1.348   0.533  0.1144 -0.0092  0.8138
12706TIP3    H159533   5.989   1.351   0.548  0.4929  4.0289 -0.9810
12706TIP3    H259534   5.885   1.306   0.447  0.2351 -0.6615  1.1171
12707TIP3   OH259535   0.507   5.663  15.115  0.0666  0.4564 -0.3149
12707TIP3    H159536   0.467   5.598  15.172 -2.9995  1.3645 -1.2067
12707TIP3    H259537   0.595   5.675  15.150 -0.4201 -1.6697  1.9189
12708TIP3   OH259538   5.088   3.799   3.678 -0.0870 -0.5582  0.1733
12708TIP3    H159539   5.027   3.730   3.653 -0.6138 -0.3321  0.7928
12708TIP3    H259540   5.057   3.876   3.631  0.6209 -0.7738 -0.6759
12709TIP3   OH259541   0.943   0.204   6.215 -0.2752  0.1904  0.1515
12709TIP3    H159542   0.968   0.146   6.287  0.7726 -0.6610 -0.8605
12709TIP3    H259543   0.928   0.145   6.141  0.8794  1.1874 -0.9224
12710TIP3   OH259544   6.435   2.638   3.780  0.0047 -0.1312  0.0754
12710TIP3    H159545   6.420   2.732   3.769  2.5232  0.3458  0.0162
12710TIP3    H259546   6.445   2.605   3.691 -0.6103 -0.4118  0.1077
12711TIP3   OH259547   6.343   0.596   5.668 -0.6212  0.1910  0.0064
12711TIP3    H159548   6.396   0.676   5.680 -1.7783  0.8760  0.7185
12711TIP3    H259549   6.290   0.591   5.747 -2.1184 -0.0936 -0.9890
12712TIP3   OH259550   3.648   5.857  11.028  0.1821 -0.5561  0.7163
12712TIP3    H159551   3.715   5.810  10.978  1.2393 -0.1695  1.7295
12712TIP3    H259552   3.696   5.895  11.102 -0.9744  0.5894  0.9056
12713TIP3   OH259553   5.397   2.591  13.967  0.1620  0.1137  0.2469
12713TIP3    H159554   5.433   2.503  13.955 -0.7348 -0.7359  2.9358
12713TIP3    H259555   5.442   2.645  13.903  1.8310 -2.0253 -0.4899
12714TIP3   OH259556   1.740   6.459   2.858 -0.4935  0.3688  0.0867
12714TIP3    H159557   1.725   6.381   2.805  1.0259  1.9354 -2.9232
12714TIP3    H259558   1.653   6.491   2.879 -1.1365 -1.3674  0.2362
12715TIP3   OH259559   0.848   2.212  11.941 -0.1614  0.3145 -0.4861
12715TIP3    H159560   0.849   2.122  11.910  0.0513  0.3536 -0.5959
12715TIP3    H259561   0.791   2.258  11.880 -1.6489 -0.0805  0.5409
12716TIP3   OH259562   2.462   5.077  15.292  0.0491 -0.1586 -0.2954
12716TIP3    H159563   2.432   5.089  15.202 -1.4622  0.7698  0.2839
12716TIP3    H259564   2.500   5.161  15.317 -1.4751  0.3155  0.5790
12717TIP3   OH259565   0.965   4.006  15.066 -0.3082 -0.3816 -0.0515
12717TIP3    H159566   0.942   4.033  14.977  0.7037 -0.0470 -0.2154
12717TIP3    H259567   0.882   3.973  15.102 -0.7946 -0.2675 -1.0136
12718TIP3   OH259568   1.599   2.665   4.817 -0.1377 -0.2193  0.5525
12718TIP3    H159569   1.507   2.689   4.815 -0.5641 -0.8775 -5.4112
12718TIP3    H259570   1.645   2.749   4.820 -1.0941  0.3611 -0.1916
12719TIP3   OH259571   6.735   4.874   2.742 -0.5033  0.4008  0.5638
12719TIP3    H159572   6.785   4.954   2.754  1.2729 -0.4147 -0.8359
12719TIP3    H259573   6.685   4.889   2.662 -0.2529  0.1722  0.3606
12720TIP3   OH259574   6.580   4.705   5.380 -0.2665  0.0063 -0.5349
12720TIP3    H159575   6.557   4.666   5.296  1.9880 -2.4639 -0.1395
12720TIP3    H259576   6.660   4.753   5.362 -0.1150 -0.0202  0.0683
12721TIP3   OH259577   2.516   1.508  13.975 -0.4804  0.2482 -0.0048
12721TIP3    H159578   2.470   1.588  14.002  1.1167  1.1656  0.1301
12721TIP3    H259579   2.450   1.439  13.983 -1.3379  1.1995  1.8730
12722TIP3   OH259580   1.191   6.530   3.639  0.0075  0.3939  0.2796
12722TIP3    H159581   1.159   6.481   3.563 -0.1235  1.5766 -0.4461
12722TIP3    H259582   1.122   6.594   3.658  1.0776  1.7264 -0.1346
12723TIP3   OH259583   0.680   0.328  15.402  0.7137 -0.1643 -0.5599
12723TIP3    H159584   0.665   0.415  15.365  1.1306  0.1770  0.0566
12723TIP3    H259585   0.703   0.344  15.494  1.2263 -0.8999 -0.5494
12724TIP3   OH259586   2.680   4.647  15.425  0.2326 -0.1565 -0.2353
12724TIP3    H159587   2.741   4.675  15.493 -1.7703 -0.0763  1.6284
12724TIP3    H259588   2.618   4.719  15.417 -0.6237 -0.9405 -0.8105
12725TIP3   OH259589   5.405   1.511   2.351  0.7444 -0.6616 -0.2211
12725TIP3    H159590   5.442   1.593   2.318  0.3043 -0.3359  0.0742
12725TIP3    H259591   5.407   1.521   2.446 -0.8412 -0.2748 -0.1910
12726TIP3   OH259592   1.160   6.487   3.292  0.3556 -0.1426 -0.3996
12726TIP3    H159593   1.214   6.408   3.290  1.1136  0.3389  0.2260
12726TIP3    H259594   1.090   6.466   3.354  0.7101 -0.2321 -0.0245
12727TIP3   OH259595   3.554   6.700  17.272 -0.4545 -0.4148 -0.1910
12727TIP3    H159596   3.571   6.704  17.366  2.2623 -0.7132 -0.5874
12727TIP3    H259597   3.512   6.784  17.251  0.7142  0.5207  1.0117
12728TIP3   OH259598   2.219   5.157  14.678 -0.0798  0.6306  0.5924
12728TIP3    H159599   2.126   5.165  14.699 -1.0526  1.4068 -3.2165
12728TIP3    H259600   2.251   5.248  14.680  0.6527  0.3714  1.8431
12729TIP3   OH259601   2.184   3.521   4.129 -0.0637  0.0864  0.7386
12729TIP3    H159602   2.268   3.549   4.092 -0.2023 -1.2097 -0.6909
12729TIP3    H259603   2.198   3.428   4.149 -0.5235  0.3670  2.4956
12730TIP3   OH259604   5.452   6.593  11.737  0.0004  0.2900 -0.3169
12730TIP3    H159605   5.391   6.663  11.716 -0.0047 -0.1647 -1.9494
12730TIP3    H259606   5.538   6.629  11.718  0.0924  0.2624  0.0381
12731TIP3   OH259607   2.310   2.256  16.864 -0.1339  0.3039  0.1914
12731TIP3    H159608   2.381   2.228  16.807  0.0792 -1.4771  1.2540
12731TIP3    H259609   2.342   2.338  16.903  0.1998  0.9126 -1.2950
12732TIP3   OH259610   2.681   1.804  15.680 -0.2251 -0.1010  0.3607
12732TIP3    H159611   2.662   1.823  15.772 -0.2965 -0.6234  0.4600
12732TIP3    H259612   2.771   1.771  15.680 -0.2585 -0.1926  0.2577
12733TIP3   OH259613   5.509   2.876  13.417 -0.7453 -0.0157 -0.1857
12733TIP3    H159614   5.592   2.909  13.381 -0.0886 -2.3131 -0.9696
12733TIP3    H259615   5.482   2.808  13.355 -0.9256 -2.3528  2.2760
12734TIP3   OH259616   3.842   6.550   0.732 -0.2374 -0.6043  0.2306
12734TIP3    H159617   3.796   6.499   0.799 -2.3858  1.0038  0.0635
12734TIP3    H259618   3.818   6.640   0.749  0.8512  0.0639 -1.4816
12735TIP3   OH259619   3.711   3.996   1.601  0.2261 -0.7377 -0.3900
12735TIP3    H159620   3.745   4.081   1.631  1.1373 -1.6539  1.3090
12735TIP3    H259621   3.770   3.971   1.530  0.3486 -0.2427 -0.4713
12736TIP3   OH259622   3.078   5.968  12.450  0.1777 -0.3142 -0.1702
12736TIP3    H159623   3.146   5.952  12.385  0.1560 -0.5669 -0.1304
12736TIP3    H259624   3.071   5.886  12.499 -2.1925 -1.3262 -2.0433
12737TIP3   OH259625   1.566   3.852  17.146  0.6875 -0.5920 -0.0433
12737TIP3    H159626   1.557   3.812  17.059  0.5244 -0.8104  0.0721
12737TIP3    H259627   1.569   3.778  17.206  1.8020 -0.4746  0.0591
12738TIP3   OH259628   6.468   2.102  17.356 -0.3316  0.0282 -0.3381
12738TIP3    H159629   6.387   2.145  17.328 -0.8616 -0.4158  0.4823
12738TIP3    H259630   6.526   2.174  17.384 -0.6644  0.3043 -0.3570
12739TIP3   OH259631   2.138   0.876   0.881  0.0301 -0.0490 -0.0166
12739TIP3    H159632   2.211   0.826   0.919 -0.8955 -2.2700 -0.9538
12739TIP3    H259633   2.177   0.921   0.805  0.6926 -0.1580  0.2478
12740TIP3   OH259634   0.881   1.970  13.973 -0.3671 -0.6637  1.1269
12740TIP3    H159635   0.824   2.007  13.905  1.8224  0.5879 -0.1432
12740TIP3    H259636   0.856   2.015  14.053 -0.1242  1.0584  0.2724
12741TIP3   OH259637   1.431   1.805  14.479 -0.3195  0.2860  0.4214
12741TIP3    H159638   1.414   1.896  14.502 -2.3547 -0.1109  0.6420
12741TIP3    H259639   1.350   1.774  14.441  0.6133 -1.2197 -0.4319
12742TIP3   OH259640   5.831   1.135   3.872 -1.0131 -0.0187  0.2295
12742TIP3    H159641   5.847   1.052   3.826 -2.3392  0.2904 -0.8671
12742TIP3    H259642   5.889   1.132   3.947 -0.7088 -1.7598 -0.0216
12743TIP3   OH259643   5.317   2.551  12.560 -0.2085  0.0603  1.2139
12743TIP3    H159644   5.338   2.619  12.496 -5.4380  1.0037  0.0082
12743TIP3    H259645   5.390   2.489  12.554  1.3629  1.8928 -3.0599
12744TIP3   OH259646   2.699   2.850   5.283 -0.4413 -0.0877  0.2579
12744TIP3    H159647   2.689   2.911   5.211  1.3316  0.7325  0.6474
12744TIP3    H259648   2.721   2.905   5.358 -0.7802 -1.0497  1.0931
12745TIP3   OH259649   3.498   0.569   0.802  0.3523  0.3134 -0.3325
12745TIP3    H159650   3.488   0.581   0.708  2.7179  1.3862 -0.5103
12745TIP3    H259651   3.434   0.501   0.825  0.4046 -0.6737 -2.8540
12746TIP3   OH259652   3.207   0.090   3.527 -0.7240  0.2220  0.0470
12746TIP3    H159653   3.178   0.107   3.616 -0.5069 -1.7400  0.5471
12746TIP3    H259654   3.200   0.174   3.482  0.1066  1.4971  2.1675
12747TIP3   OH259655   2.467   4.028  14.417 -0.3245  0.5703  0.3991
12747TIP3    H159656   2.373   4.023  14.404 -0.1378  1.6425 -2.0383
12747TIP3    H259657   2.503   3.956  14.365  0.2100 -0.4509  2.0949
12748TIP3   OH259658   0.556   4.468  14.402 -0.1940 -0.9129 -0.0097
12748TIP3    H159659   0.509   4.503  14.478 -1.0303  1.2854 -1.4294
12748TIP3    H259660   0.555   4.373  14.414 -1.3272 -0.6833  2.1094
12749TIP3   OH259661   6.366   2.447   3.257  0.1834 -0.0797  0.4713
12749TIP3    H159662   6.408   2.379   3.311  0.7905  0.0678  0.2002
12749TIP3    H259663   6.281   2.462   3.298  0.7383  0.2165  1.5583
12750TIP3   OH259664   0.596   4.404   5.174 -0.1081 -0.0372  0.7370
12750TIP3    H159665   0.567   4.462   5.244 -0.3878  0.6020  0.1123
12750TIP3    H259666   0.687   4.429   5.158 -0.1608  0.0838  0.6198
12751TIP3   OH259667   6.050   3.170  13.354  0.1647 -0.5818 -0.0715
12751TIP3    H159668   5.978   3.185  13.293  1.1523  1.7348 -0.7876
12751TIP3    H259669   6.078   3.258  13.380  2.1656 -1.4263  0.8565
12752TIP3   OH259670   1.745   6.065   1.881  0.4332 -0.1756 -0.1757
12752TIP3    H159671   1.830   6.072   1.924  0.8732 -0.3179 -0.9998
12752TIP3    H259672   1.695   6.004   1.935  1.0998 -0.6392 -0.0792
12753TIP3   OH259673   1.231   5.807  11.972  0.2660 -0.6221 -0.0383
12753TIP3    H159674   1.290   5.822  12.046  1.0693  0.2817 -0.8453
12753TIP3    H259675   1.277   5.842  11.896 -1.5202  0.6619 -0.6170
12754TIP3   OH259676   1.436   0.432  12.843  0.3072 -0.0815 -0.5577
12754TIP3    H159677   1.504   0.416  12.909  1.6753 -0.8839 -2.0863
12754TIP3    H259678   1.476   0.494  12.782 -0.5343 -0.1651 -1.2106
12755TIP3   OH259679   0.129   3.894   2.568 -0.2559 -0.1367 -0.3355
12755TIP3    H159680   0.037   3.922   2.567  0.0743  1.0231 -1.5795
12755TIP3    H259681   0.160   3.919   2.655 -0.5505  1.5791 -0.6722
12756TIP3   OH259682   1.972   6.431   0.214 -0.3246 -0.0753  0.0272
12756TIP3    H159683   2.028   6.459   0.286 -1.3936  0.0306  0.8520
12756TIP3    H259684   1.900   6.384   0.257 -0.9074 -0.1298 -0.9803
12757TIP3   OH259685   0.453   3.009  11.755 -0.2961  0.3167  0.5023
12757TIP3    H159686   0.511   2.999  11.831 -0.1120  0.5359  0.3916
12757TIP3    H259687   0.511   3.036  11.684 -0.4387 -0.0812  0.2324
12758TIP3   OH259688   0.199   5.925  16.651 -0.4476  0.0759 -0.4834
12758TIP3    H159689   0.267   5.874  16.607 -0.9833  0.7186 -2.1200
12758TIP3    H259690   0.221   6.016  16.634 -0.5008  0.3650  0.8833
12759TIP3   OH259691   1.385   2.808  16.490  0.0883  0.3137  0.3495
12759TIP3    H159692   1.373   2.719  16.523  0.9137 -0.1935 -0.6622
12759TIP3    H259693   1.336   2.863  16.551 -1.6624 -0.9697  0.2037
12760TIP3   OH259694   2.125   3.194  16.392 -0.2654 -0.3845  0.1053
12760TIP3    H159695   2.118   3.284  16.359  3.3527  0.5891  1.4055
12760TIP3    H259696   2.191   3.154  16.336 -1.8376 -2.3260 -0.4550
12761TIP3   OH259697   4.855   2.654  15.710 -0.3659  0.8292  0.1297
12761TIP3    H159698   4.895   2.735  15.678  0.7579 -0.1349 -1.0249
12761TIP3    H259699   4.761   2.672  15.710 -0.1129  2.2389  0.2207
12762TIP3   OH259700   1.933   4.524  11.060  0.1112 -0.8532  0.7758
12762TIP3    H159701   1.853   4.481  11.029  0.2785 -2.4068  2.3382
12762TIP3    H259702   2.001   4.496  10.998 -0.4354  0.1745 -0.3407
12763TIP3   OH259703   6.449   3.598   2.476  0.3578  0.0548  0.4213
12763TIP3    H159704   6.364   3.582   2.518 -0.4404 -2.8122 -1.9560
12763TIP3    H259705   6.494   3.514   2.480 -0.1734 -0.8247 -4.8991
12764TIP3   OH259706   2.755   6.057   5.524 -0.0393 -0.2858  0.0885
12764TIP3    H159707   2.835   6.026   5.565 -0.7352 -1.4539  0.6393
12764TIP3    H259708   2.687   6.043   5.590 -0.3788  2.9577  0.5751
12765TIP3   OH259709   2.465   4.707   6.261 -0.0665 -0.1898  0.3218
12765TIP3    H159710   2.476   4.786   6.208 -1.6027 -0.5692 -0.6260
12765TIP3    H259711   2.404   4.731   6.330 -0.9948 -0.6468 -0.3027
12766TIP3   OH259712   4.568   4.724   3.578 -0.1906 -0.6253 -0.5886
12766TIP3    H159713   4.627   4.762   3.513 -0.3244  0.3393 -0.1733
12766TIP3    H259714   4.627   4.684   3.642  0.1063  1.1937  0.3478
12767TIP3   OH259715   1.848   4.606   5.565  0.3886 -0.9331  0.5896
12767TIP3    H159716   1.860   4.512   5.551 -0.7428 -0.9800 -0.2220
12767TIP3    H259717   1.854   4.645   5.478  0.4505 -0.2990  0.8698
12768TIP3   OH259718   6.310   2.331   3.691  0.3816  0.2084 -0.1966
12768TIP3    H159719   6.398   2.367   3.676 -0.4499  2.5990  0.2660
12768TIP3    H259720   6.274   2.320   3.603  0.7977  0.1565 -0.3637
12769TIP3   OH259721   3.309   3.079  12.704 -0.6118  0.3617 -0.2886
12769TIP3    H159722   3.346   2.991  12.716 -1.3672  0.3589  2.7250
12769TIP3    H259723   3.380   3.129  12.663 -0.2784 -1.6656 -2.3959
12770TIP3   OH259724   5.990   1.228   4.605  0.1160  0.4928  0.4904
12770TIP3    H159725   6.077   1.266   4.607 -0.2912  1.4520  0.7162
12770TIP3    H259726   5.978   1.191   4.692  1.4947 -2.5499 -0.4745
12771TIP3   OH259727   5.076   6.663  15.908  0.2948  0.2700 -0.1328
12771TIP3    H159728   5.082   6.747  15.862 -0.4490 -0.4289 -1.5867
12771TIP3    H259729   5.145   6.609  15.868 -1.7856 -1.0870 -2.1808
12772TIP3   OH259730   0.483   4.291   4.925 -0.5115  0.4412  0.2435
12772TIP3    H159731   0.525   4.330   5.002 -0.2574 -1.6414  1.2389
12772TIP3    H259732   0.446   4.209   4.957 -1.4833  0.1035 -1.6077
12773TIP3   OH259733   1.049   4.356  13.359  0.2601 -1.2104 -0.0032
12773TIP3    H159734   1.038   4.325  13.449  0.9102  0.9466  0.8755
12773TIP3    H259735   1.092   4.284  13.313  0.5820 -2.0694  1.5953
12774TIP3   OH259736   2.717   5.730  17.355  0.5467  0.3518 -0.2220
12774TIP3    H159737   2.728   5.801  17.291  0.0706  1.0792  0.4833
12774TIP3    H259738   2.648   5.675  17.317 -0.5332  1.3961  0.1728
12775TIP3   OH259739   5.381   4.038   2.559  0.1097  0.3742 -0.2761
12775TIP3    H159740   5.428   4.033   2.476  0.6852 -1.2875  0.0898
12775TIP3    H259741   5.391   3.950   2.596 -1.1495  0.7351  0.9972
12776TIP3   OH259742   5.874   5.477  15.886  0.1741  0.3957 -0.0538
12776TIP3    H159743   5.810   5.536  15.927 -0.8483 -1.0094  0.4462
12776TIP3    H259744   5.920   5.436  15.959  0.6448  0.3217 -0.3884
12777TIP3   OH259745   6.259   5.197   0.495  0.0842  0.2659 -0.3113
12777TIP3    H159746   6.311   5.178   0.417 -0.1597 -0.3980 -0.3149
12777TIP3    H259747   6.182   5.243   0.462  0.8819  1.7156 -0.2574
12778TIP3   OH259748   2.612   3.744   4.011  0.1739 -0.2590 -0.2879
12778TIP3    H159749   2.707   3.740   4.017  0.3155  0.1043 -1.8398
12778TIP3    H259750   2.595   3.794   3.931 -1.3345  1.0979  0.8112
12779TIP3   OH259751   6.463   4.840   3.463 -0.3905  0.2598 -0.4732
12779TIP3    H159752   6.508   4.876   3.386  0.5763 -3.8025 -2.0637
12779TIP3    H259753   6.373   4.872   3.455  0.2194  1.7594 -2.0107
12780TIP3   OH259754   3.079   5.966  16.569  0.5359  0.2572 -0.5807
12780TIP3    H159755   3.041   5.951  16.655  0.4795 -0.2754 -0.6937
12780TIP3    H259756   3.004   5.983  16.512  0.5570  0.3790 -0.5730
12781TIP3   OH259757   1.198   4.990  14.460 -0.0317 -0.0473 -0.5349
12781TIP3    H159758   1.198   5.067  14.516  1.0547 -0.5696  0.2161
12781TIP3    H259759   1.246   5.017  14.382  0.3577  0.0317 -0.2688
12782TIP3   OH259760   3.401   2.681   0.609 -0.1453  0.0946  0.7597
12782TIP3    H159761   3.342   2.721   0.673  1.6159  0.1645  2.4425
12782TIP3    H259762   3.484   2.727   0.621  0.8552 -1.4169 -0.0055
12783TIP3   OH259763   0.676   3.355  14.087 -0.1448 -0.1951  0.4899
12783TIP3    H159764   0.670   3.426  14.023 -1.6140  1.2767  2.1717
12783TIP3    H259765   0.763   3.318  14.073 -0.0142  0.7620 -1.6269
12784TIP3   OH259766   5.306   5.394   3.225  0.3584 -0.6825 -0.0058
12784TIP3    H159767   5.284   5.350   3.142  1.6816  0.3959 -0.9720
12784TIP3    H259768   5.295   5.326   3.291 -1.9110 -1.2682 -0.8739
12785TIP3   OH259769   1.786   1.143   2.313  0.5382  0.2068  0.2644
12785TIP3    H159770   1.692   1.129   2.311  0.6177 -0.3622 -2.2000
12785TIP3    H259771   1.800   1.223   2.262  1.4044  0.1121  0.3390
12786TIP3   OH259772   6.044   2.269   1.342  0.3853 -0.3126 -0.2410
12786TIP3    H159773   6.055   2.355   1.382  0.0036  0.4625 -1.7283
12786TIP3    H259774   5.954   2.243   1.365  0.3055 -0.0570 -0.2694
12787TIP3   OH259775   5.276   2.467   3.287 -0.1475 -0.3420  0.5143
12787TIP3    H159776   5.366   2.474   3.319  0.2663 -0.2961 -0.6092
12787TIP3    H259777   5.223   2.513   3.353  0.8812  1.3470  0.2192
12788TIP3   OH259778   2.287   0.900  16.867  0.2741 -0.2053  0.1355
12788TIP3    H159779   2.222   0.964  16.840  0.0623 -0.5923 -0.2951
12788TIP3    H259780   2.236   0.834  16.915  0.4609 -0.1401  0.4224
12789TIP3   OH259781   1.078   4.262  12.893  0.2630  0.1342 -0.3642
12789TIP3    H159782   1.046   4.342  12.936 -0.1238 -0.6599  0.8583
12789TIP3    H259783   1.163   4.246  12.933 -0.8091 -1.5262  1.3674
12790TIP3   OH259784   5.113   6.006   5.781  0.2643 -0.0871 -0.6019
12790TIP3    H159785   5.116   6.019   5.687 -1.2390 -2.6990 -1.1097
12790TIP3    H259786   5.180   5.940   5.799  1.3759  1.2371  0.4128
12791TIP3   OH259787   5.977   4.136   1.532 -0.2907 -0.0669 -0.4446
12791TIP3    H159788   6.028   4.210   1.566  0.2702 -0.5837 -0.1438
12791TIP3    H259789   5.897   4.176   1.497 -0.7062  0.5418  1.1031
12792TIP3   OH259790   4.661   2.823  16.477  0.1930 -0.4557  0.2673
12792TIP3    H159791   4.569   2.845  16.488 -0.0532 -0.2262 -1.7703
12792TIP3    H259792   4.661   2.735  16.441  0.6791  0.0033 -0.9159
12793TIP3   OH259793   5.483   5.618  13.660  0.2339 -0.0354  0.4848
12793TIP3    H159794   5.553   5.562  13.625  0.2407 -0.4856  1.1983
12793TIP3    H259795   5.402   5.571  13.637  0.1400  0.5829 -0.5143
12794TIP3   OH259796   1.878   3.509   3.103 -0.1855 -0.8675  0.4849
12794TIP3    H159797   1.806   3.450   3.082  0.1142 -0.9881 -0.2202
12794TIP3    H259798   1.894   3.495   3.196 -1.5028 -0.3695  0.8146
12795TIP3   OH259799   2.953   0.936   0.538  0.2793 -0.1970 -0.3440
12795TIP3    H159800   3.006   0.856   0.533  0.7269  0.0434  0.3410
12795TIP3    H259801   2.885   0.924   0.472  0.3849 -1.1155 -0.3042
12796TIP3   OH259802   4.018   3.270  13.346 -0.2366 -0.9077 -0.5203
12796TIP3    H159803   3.953   3.331  13.382 -1.2384 -2.3106  0.1467
12796TIP3    H259804   3.971   3.187  13.339  1.1826 -1.6903 -1.1042
12797TIP3   OH259805   0.442   3.335   6.177 -0.6167 -0.5067  0.0491
12797TIP3    H159806   0.437   3.369   6.267 -1.1416 -0.5019  0.0156
12797TIP3    H259807   0.400   3.249   6.181 -2.3386  0.2731 -0.5822
12798TIP3   OH259808   1.333   3.082   1.792  0.0437  0.6970  0.1804
12798TIP3    H159809   1.322   3.139   1.869  1.1417  1.0540  0.0914
12798TIP3    H259810   1.248   3.040   1.781 -0.4016  1.3382  1.0417
12799TIP3   OH259811   6.453   5.935   0.283 -0.5278 -0.1516 -0.0288
12799TIP3    H159812   6.412   6.008   0.236 -0.2398  0.6971  1.0167
12799TIP3    H259813   6.380   5.875   0.301 -0.7944 -0.0531 -0.7350
12800TIP3   OH259814   3.797   5.686   6.486  0.7064  0.9325 -0.0388
12800TIP3    H159815   3.713   5.640   6.484  2.3736 -2.3600 -0.5992
12800TIP3    H259816   3.797   5.731   6.570 -0.8656 -0.5679  0.8436
12801TIP3   OH259817   5.599   0.852   0.829 -0.1717 -0.2980  0.4898
12801TIP3    H159818   5.588   0.761   0.803 -2.3158  0.2639 -0.8518
12801TIP3    H259819   5.526   0.898   0.787  1.5885  2.2716 -0.0196
12802TIP3   OH259820   1.412   1.894   0.967 -0.3329  0.6247  0.3410
12802TIP3    H159821   1.340   1.836   0.989 -1.5381  2.1075  0.4357
12802TIP3    H259822   1.491   1.843   0.987 -1.3383 -0.6242  1.2700
12803TIP3   OH259823   6.357   5.736   3.887  0.0359  0.1624  0.1411
12803TIP3    H159824   6.270   5.701   3.865  0.3354  0.1534 -1.1334
12803TIP3    H259825   6.398   5.668   3.939 -0.7837  0.2365  0.9101
12804TIP3   OH259826   2.455   5.912   3.755 -0.8500 -0.0600  0.7352
12804TIP3    H159827   2.551   5.914   3.762 -0.6625  0.1473 -1.2158
12804TIP3    H259828   2.432   5.819   3.756 -0.5678 -0.1320  0.5387
12805TIP3   OH259829   1.851   2.593   3.826 -0.5887  0.4836  0.2029
12805TIP3    H159830   1.780   2.612   3.765 -0.9537 -0.1285  0.4273
12805TIP3    H259831   1.843   2.499   3.845 -0.8854  0.7864  1.6788
12806TIP3   OH259832   3.450   6.655   6.437 -0.1242  0.5698  0.6542
12806TIP3    H159833   3.539   6.634   6.465  0.5005  1.8385 -0.3240
12806TIP3    H259834   3.404   6.570   6.439  1.0932 -0.1025  1.1592
12807TIP3   OH259835   1.343   0.261   1.744 -0.6643 -0.3756 -0.5549
12807TIP3    H159836   1.327   0.175   1.784 -1.0574 -0.5531 -1.0838
12807TIP3    H259837   1.434   0.280   1.766 -0.5931 -0.8995 -0.3725
12808TIP3   OH259838   4.926   0.127   5.698  0.0448 -0.1463  0.0435
12808TIP3    H159839   4.868   0.201   5.714 -0.1455 -0.2768 -0.0402
12808TIP3    H259840   5.010   0.153   5.736 -0.6392 -0.8357  2.1535
12809TIP3   OH259841   6.205   5.133  13.735  0.1697 -0.1092 -0.0111
12809TIP3    H159842   6.275   5.149  13.799  0.5834 -1.9123  0.0378
12809TIP3    H259843   6.250   5.128  13.651 -0.2124  0.9493 -0.2976
12810TIP3   OH259844   0.796   0.152  12.793 -0.0281 -0.6506  0.0291
12810TIP3    H159845   0.765   0.062  12.804  3.0400 -1.6450  1.5904
12810TIP3    H259846   0.890   0.143  12.775  0.0234  2.2087 -1.7159
12811TIP3   OH259847   2.893   4.738  12.776  0.1660  0.1513 -0.3370
12811TIP3    H159848   2.888   4.832  12.757  0.4085  0.6806  1.9584
12811TIP3    H259849   2.815   4.701  12.733  0.2836  1.3049 -1.6242
12812TIP3   OH259850   6.039   4.319   3.860 -0.4648 -0.0627 -0.3996
12812TIP3    H159851   5.995   4.234   3.865 -2.7025  1.0935  1.0321
12812TIP3    H259852   6.132   4.298   3.875 -0.8278 -2.3107 -0.8722
12813TIP3   OH259853   4.360   0.161   3.481  0.3062  0.1463  0.2914
12813TIP3    H159854   4.299   0.107   3.430 -0.0027  1.9466 -1.3311
12813TIP3    H259855   4.442   0.112   3.478  0.2382  0.0592 -1.7792
12814TIP3   OH259856   3.060   6.294  14.012  0.0295 -0.6012  0.1815
12814TIP3    H159857   3.081   6.339  13.930  0.5903  1.6552  1.4638
12814TIP3    H259858   3.039   6.204  13.986  0.3858 -0.0171 -2.3829
12815TIP3   OH259859   3.046   0.865   5.533  0.4779 -0.0064  0.4465
12815TIP3    H159860   2.954   0.836   5.530  0.6646 -0.8400  1.8577
12815TIP3    H259861   3.079   0.832   5.616  1.8726  0.9126  0.2942
12816TIP3   OH259862   6.442   6.038   4.751 -0.0706 -0.2502  0.3026
12816TIP3    H159863   6.419   6.096   4.823 -0.0228  3.2977 -2.2755
12816TIP3    H259864   6.363   5.986   4.736 -0.9301  0.6857  1.3537
12817TIP3   OH259865   6.733   6.027  15.556  0.4358  0.2932 -0.3199
12817TIP3    H159866   6.671   6.093  15.587  0.5221 -0.7034  2.2010
12817TIP3    H259867   6.818   6.069  15.562  0.4726  0.0358  1.1172
12818TIP3   OH259868   3.138   5.816  17.211 -0.4831  0.0357 -0.0431
12818TIP3    H159869   3.196   5.890  17.232 -1.7386  0.7489  1.1067
12818TIP3    H259870   3.146   5.758  17.287 -0.5031 -0.3565 -0.3439
12819TIP3   OH259871   3.997   4.378   0.086  0.3524  0.0436  0.1790
12819TIP3    H159872   4.052   4.405   0.012  2.7727 -0.6808  1.5976
12819TIP3    H259873   3.941   4.453   0.103  2.0443  1.5017 -0.3488
12820TIP3   OH259874   6.601   2.663  12.853 -0.2479 -0.4388  0.3795
12820TIP3    H159875   6.542   2.629  12.785 -0.0826  0.7424 -0.3973
12820TIP3    H259876   6.676   2.698  12.804  0.1452 -0.0867  1.2133
12821TIP3   OH259877   0.347   4.536  15.578  0.1744 -0.4689  0.3346
12821TIP3    H159878   0.272   4.557  15.521 -0.2372 -1.1176  0.6153
12821TIP3    H259879   0.423   4.566  15.529 -0.2437 -0.1615 -0.1428
12822TIP3   OH259880   2.475   4.544   0.697  0.6883 -0.0066 -0.9121
12822TIP3    H159881   2.530   4.501   0.631  0.1180 -1.5896 -0.3913
12822TIP3    H259882   2.434   4.473   0.745 -0.3495  1.1315 -0.0339
12823TIP3   OH259883   3.596   3.487   3.440  0.0975 -0.2337 -0.2453
12823TIP3    H159884   3.579   3.433   3.517 -0.0219 -1.8752 -1.3626
12823TIP3    H259885   3.618   3.573   3.475  1.3823 -1.2750  1.6813
12824TIP3   OH259886   6.663   3.915  13.849 -0.0976  0.5324 -0.0570
12824TIP3    H159887   6.598   3.846  13.836  1.4810 -1.1040  0.3664
12824TIP3    H259888   6.671   3.957  13.763 -1.1323  0.2582 -0.2992
12825TIP3   OH259889   3.344   2.753  11.430 -0.5657  0.1557  0.2847
12825TIP3    H159890   3.407   2.699  11.478 -0.3647  0.7841  0.7556
12825TIP3    H259891   3.354   2.727  11.338 -0.5528 -0.6672  0.5126
12826TIP3   OH259892   5.011   1.112   1.937 -0.3940  0.3436 -0.2773
12826TIP3    H159893   4.921   1.087   1.917 -0.4680  0.7652 -0.4841
12826TIP3    H259894   5.064   1.065   1.873 -0.4162 -0.3278  0.1840
12827TIP3   OH259895   0.950   6.280  16.818  0.0108  0.5624  0.1703
12827TIP3    H159896   0.993   6.229  16.750 -1.9905 -1.3972  0.2855
12827TIP3    H259897   1.004   6.359  16.826  0.6349  0.6441 -3.2857
12828TIP3   OH259898   2.272   0.616   1.510 -0.2366 -0.2214 -0.5774
12828TIP3    H159899   2.272   0.709   1.534 -0.4708 -0.2646 -0.4088
12828TIP3    H259900   2.185   0.601   1.471 -0.4834 -0.5453  0.0852
12829TIP3   OH259901   2.927   1.000   6.318  0.0065  0.3234 -0.0553
12829TIP3    H159902   2.969   1.085   6.306  0.3655  0.2517  0.6225
12829TIP3    H259903   2.865   1.014   6.389 -3.0493  1.0944 -2.6863
12830TIP3   OH259904   2.002   0.911   3.279  0.4412  0.0457 -0.3541
12830TIP3    H159905   2.021   0.876   3.367 -0.0728 -0.3311 -0.3907
12830TIP3    H259906   2.038   1.000   3.281  0.4347  0.0423  0.2421
12831TIP3   OH259907   5.698   0.154  14.227  0.2578  0.2439  0.1061
12831TIP3    H159908   5.606   0.141  14.205  0.3709 -2.1040  0.7262
12831TIP3    H259909   5.697   0.178  14.320  0.2612  0.9051 -0.0575
12832TIP3   OH259910   5.874   0.128  17.175  0.3980 -0.0353 -0.6444
12832TIP3    H159911   5.803   0.107  17.115  0.3675 -0.0853 -0.5901
12832TIP3    H259912   5.952   0.092  17.133  0.4118  0.1435 -0.7746
12833TIP3   OH259913   5.561   5.214   0.438  0.0294  0.6664  0.2857
12833TIP3    H159914   5.550   5.285   0.501 -0.0927  0.8409  0.0714
12833TIP3    H259915   5.566   5.135   0.491  1.1129  0.9242  0.5860
12834TIP3   OH259916   4.811   4.323   0.703 -0.0385  0.2006 -0.0876
12834TIP3    H159917   4.885   4.381   0.684  0.0041 -0.2370 -1.4022
12834TIP3    H259918   4.734   4.374   0.678 -0.0014 -0.2626 -1.2413
12835TIP3   OH259919   0.964   3.591  10.967  0.0950 -0.0316 -0.3531
12835TIP3    H159920   0.967   3.563  10.876 -1.6459 -1.3806 -0.0390
12835TIP3    H259921   0.901   3.662  10.969  0.0312 -0.0919 -0.1849
12836TIP3   OH259922   0.590   5.633   6.724 -0.2217 -0.5050  0.5225
12836TIP3    H159923   0.644   5.710   6.742  0.9498 -0.8632 -1.1990
12836TIP3    H259924   0.643   5.559   6.754 -0.7925 -0.7265  0.9930
12837TIP3   OH259925   6.567   3.168  13.860 -0.0757 -0.7973  0.0454
12837TIP3    H159926   6.517   3.168  13.779 -0.1412 -2.6500  0.0303
12837TIP3    H259927   6.578   3.075  13.881  2.6378 -0.4767  0.4907
12838TIP3   OH259928   0.382   3.118   6.503 -0.2101 -0.2454 -0.1134
12838TIP3    H159929   0.476   3.108   6.491 -0.4809 -2.5669 -0.7504
12838TIP3    H259930   0.344   3.094   6.419 -1.4219 -0.4483  0.4629
12839TIP3   OH259931   1.513   4.815   3.348  0.5586 -0.0606 -0.5443
12839TIP3    H159932   1.419   4.810   3.330  0.3010  1.0366  0.4217
12839TIP3    H259933   1.549   4.865   3.274  0.6978 -1.9918 -1.8560
12840TIP3   OH259934   5.128   3.905   3.974  0.2213 -0.0326 -0.5757
12840TIP3    H159935   5.069   3.980   3.983  0.7229  0.6318 -2.3329
12840TIP3    H259936   5.072   3.834   3.944 -0.1322 -0.1999  0.4214
12841TIP3   OH259937   2.229   1.367   1.369  0.0916  0.0346 -0.2698
12841TIP3    H159938   2.262   1.307   1.303  0.3152  0.1446 -0.2579
12841TIP3    H259939   2.259   1.331   1.452  1.2506  0.7941 -0.3315
12842TIP3   OH259940   1.017   2.068  15.703  0.0883  0.1434  0.1143
12842TIP3    H159941   1.080   2.008  15.743 -0.1998 -0.6429 -0.5823
12842TIP3    H259942   0.934   2.050  15.749 -0.3452 -1.0669 -1.0709
12843TIP3   OH259943   6.038   5.021   5.116 -0.3317 -0.4456 -0.1689
12843TIP3    H159944   5.949   4.989   5.128 -0.7184  0.5821 -0.2559
12843TIP3    H259945   6.089   4.973   5.181 -0.9214 -1.0848 -0.1581
12844TIP3   OH259946   1.156   5.258  11.314 -0.2256  0.1153 -0.3628
12844TIP3    H159947   1.172   5.337  11.262  2.4125 -1.5434 -2.3444
12844TIP3    H259948   1.069   5.230  11.287 -0.1230  0.9243 -1.6466
12845TIP3   OH259949   3.001   5.297   2.748  1.1318  0.8348  0.3007
12845TIP3    H159950   2.992   5.355   2.823  2.5933  2.7619 -0.9279
12845TIP3    H259951   2.913   5.264   2.732  0.5059  1.6551  1.8612
12846TIP3   OH259952   2.416   1.491   3.352 -0.1489  0.3569 -0.1497
12846TIP3    H159953   2.477   1.555   3.390  1.0493 -0.8322 -0.0192
12846TIP3    H259954   2.435   1.410   3.398 -1.9178 -0.0409 -0.0420
12847TIP3   OH259955   1.398   5.924  11.750 -0.1168 -1.1105 -0.2391
12847TIP3    H159956   1.325   5.904  11.691  0.5927 -1.6809 -0.9580
12847TIP3    H259957   1.425   6.012  11.725  0.2658 -1.3986 -0.8873
12848TIP3   OH259958   4.298   2.299   6.037 -0.5854 -0.2080  0.4140
12848TIP3    H159959   4.382   2.287   6.083  0.0329 -0.9312 -0.8606
12848TIP3    H259960   4.263   2.381   6.073  0.7859  0.2458  0.7984
12849TIP3   OH259961   6.575   3.841   5.007  0.2374  0.4964 -0.1761
12849TIP3    H159962   6.562   3.851   5.101 -1.6182  1.6705 -0.5168
12849TIP3    H259963   6.580   3.746   4.993 -2.3168  0.1690  0.7947
12850TIP3   OH259964   2.311   1.159   1.186 -0.0741  0.4365 -0.7324
12850TIP3    H159965   2.400   1.187   1.165  0.1959 -0.2105 -0.4857
12850TIP3    H259966   2.260   1.176   1.107  0.6062 -0.6017 -1.4257
12851TIP3   OH259967   1.221   3.395   5.873  0.5333  0.3839  0.1769
12851TIP3    H159968   1.262   3.394   5.959 -2.3682  1.0355  1.6836
12851TIP3    H259969   1.193   3.486   5.861  3.2143  1.0124 -2.7827
12852TIP3   OH259970   3.079   6.634   5.320 -0.5477 -0.1849 -0.5002
12852TIP3    H159971   3.106   6.724   5.340  1.5411 -0.7676 -0.5200
12852TIP3    H259972   3.121   6.581   5.387  0.5290 -1.4036 -2.0660
12853TIP3   OH259973   1.625   3.557  12.499  0.3120  0.0314  1.0188
12853TIP3    H159974   1.577   3.516  12.571 -0.6551 -0.7496 -0.0316
12853TIP3    H259975   1.561   3.613  12.456  0.0150 -1.7280 -0.9681
12854TIP3   OH259976   3.406   5.677  14.714  0.3675 -0.1863 -0.3136
12854TIP3    H159977   3.454   5.620  14.655 -1.1666 -1.8573 -0.0441
12854TIP3    H259978   3.315   5.647  14.708 -0.2449  1.2466  0.9984
12855TIP3   OH259979   2.369   2.943  16.009 -0.3683 -0.3726 -0.2770
12855TIP3    H159980   2.455   2.905  16.029  0.3750 -0.1723 -2.8143
12855TIP3    H259981   2.314   2.868  15.991 -0.7435 -0.4932  1.2066
12856TIP3   OH259982   3.347   4.721   6.788 -0.5427 -0.5556 -0.2793
12856TIP3    H159983   3.308   4.663   6.853 -1.0149 -1.7065 -1.5554
12856TIP3    H259984   3.416   4.669   6.747 -1.3063 -0.4127 -1.7980
12857TIP3   OH259985   1.536   0.115  12.485 -0.2806 -0.1311  0.0964
12857TIP3    H159986   1.581   0.076  12.560  0.0465 -0.5226 -0.3000
12857TIP3    H259987   1.499   0.042  12.437 -2.2474  0.2488  0.9584
12858TIP3   OH259988   3.186   3.659   3.323 -0.4985 -0.2627  0.1375
12858TIP3    H159989   3.136   3.669   3.404 -0.2727  0.1642  0.2311
12858TIP3    H259990   3.164   3.737   3.272 -0.8844 -0.6816 -0.3544
12859TIP3   OH259991   5.571   6.202   2.935  0.3865  0.0236 -0.2848
12859TIP3    H159992   5.498   6.242   2.983 -0.0870 -0.3636 -0.6679
12859TIP3    H259993   5.625   6.162   3.004 -0.3532 -0.6281 -0.0661
12860TIP3   OH259994   1.659   4.436  11.031 -0.3118  0.1697  0.8105
12860TIP3    H159995   1.615   4.365  10.984  1.7011 -0.1780 -0.6876
12860TIP3    H259996   1.616   4.515  11.001 -0.6838 -0.2259  0.2857
12861TIP3   OH259997   5.893   2.950  11.566 -0.1703 -0.6016  0.3800
12861TIP3    H159998   5.946   2.919  11.639 -0.5245 -0.8172  0.5484
12861TIP3    H259999   5.817   2.893  11.566 -0.0769 -0.7293 -0.2820
12862TIP3   OH260000   0.728   5.305   1.884 -1.0466  0.6402 -0.0142
12862TIP3    H160001   0.808   5.355   1.870 -0.4383 -0.3341 -0.0625
12862TIP3    H260002   0.730   5.236   1.818 -2.3280  1.0734 -0.5419
12863TIP3   OH260003   0.010   2.221   0.691 -0.3697  0.2006 -0.2131
12863TIP3    H160004  -0.070   2.231   0.741 -1.7223 -0.9661 -2.0327
12863TIP3    H260005   0.038   2.311   0.672 -0.2465  0.6505  1.8556
12864TIP3   OH260006   5.095   0.978  16.768  0.7289  0.3538 -0.4987
12864TIP3    H160007   5.110   1.072  16.781 -0.9517  0.4483  1.0989
12864TIP3    H260008   5.145   0.937  16.838  0.2718  0.1448 -0.2972
12865TIP3   OH260009   4.179   1.279   2.461  0.2043 -0.4180 -0.4320
12865TIP3    H160010   4.204   1.192   2.494  0.9459 -1.2650 -2.9859
12865TIP3    H260011   4.112   1.309   2.522  0.5504 -2.3922  1.0372
12866TIP3   OH260012   3.828   0.030  11.515  0.1827 -0.1929  0.3911
12866TIP3    H160013   3.755   0.003  11.459  0.7417  0.0237 -0.4536
12866TIP3    H260014   3.892   0.068  11.455  0.5664  0.5420  1.2394
12867TIP3   OH260015   0.232   1.971  15.706  0.5639  0.6557  0.0617
12867TIP3    H160016   0.159   2.020  15.668  0.7405 -1.5312 -3.6053
12867TIP3    H260017   0.300   2.037  15.720 -0.7575  2.1427 -0.2041
12868TIP3   OH260018   1.628   6.160   2.121  0.3588  0.1367  0.4342
12868TIP3    H160019   1.611   6.247   2.156  0.1084 -0.5695  2.1378
12868TIP3    H260020   1.711   6.133   2.162 -0.8287 -1.4169  1.9601
12869TIP3   OH260021   6.098   0.374  12.231  0.6145 -0.0867 -0.4020
12869TIP3    H160022   6.126   0.284  12.250  2.1482  0.1998 -1.1073
12869TIP3    H260023   6.031   0.393  12.297 -1.1749 -2.3840 -1.4106
12870TIP3   OH260024   0.024   2.092   1.935  0.4130 -0.0444  0.1005
12870TIP3    H160025   0.069   2.175   1.953  0.8417  0.0546 -1.3265
12870TIP3    H260026  -0.069   2.113   1.947  0.6378 -0.1518  2.6831
12871TIP3   OH260027   5.805   3.194  16.433  0.0782  0.1504 -0.4090
12871TIP3    H160028   5.737   3.151  16.485  0.2556  1.9072  1.4261
12871TIP3    H260029   5.767   3.280  16.413  0.8730  0.2912 -1.3596
12872TIP3   OH260030   1.952   2.312  11.111 -0.6930  0.0302 -0.1769
12872TIP3    H160031   1.967   2.362  11.031 -1.1599 -0.1985 -0.4137
12872TIP3    H260032   2.023   2.337  11.169  0.0083 -0.2677 -0.8960
12873TIP3   OH260033   3.137   1.994   2.103 -0.2382  0.1591  0.6792
12873TIP3    H160034   3.212   1.950   2.143 -0.3920  0.5178  1.3804
12873TIP3    H260035   3.079   2.013   2.177 -0.6133  0.6792  0.2540
12874TIP3   OH260036   0.586   5.686  13.381 -0.4432 -0.0239  0.1308
12874TIP3    H160037   0.494   5.698  13.405 -0.0934  0.8316  1.1051
12874TIP3    H260038   0.618   5.620  13.442 -0.0591  0.7010  0.7214
12875TIP3   OH260039   0.987   4.504  15.892 -0.8710 -0.5352 -0.0494
12875TIP3    H160040   1.014   4.437  15.954  0.6585  0.7057  0.6806
12875TIP3    H260041   0.910   4.545  15.932 -2.7141 -2.6657 -1.1434
12876TIP3   OH260042   1.473   2.402   1.001 -0.0323  0.6310 -0.4197
12876TIP3    H160043   1.474   2.387   1.096  0.2804  0.2481 -0.4800
12876TIP3    H260044   1.422   2.329   0.966 -1.1534  1.4061 -0.4503
12877TIP3   OH260045   2.840   5.226  14.619  0.3053  0.2220 -0.1141
12877TIP3    H160046   2.756   5.267  14.639 -0.2327 -1.3437  1.0168
12877TIP3    H260047   2.898   5.299  14.600 -1.0562  1.3929  0.0214
12878TIP3   OH260048   2.542   6.109   2.497  0.0012 -0.1816 -0.0960
12878TIP3    H160049   2.449   6.088   2.509 -0.7400  1.8203 -1.9082
12878TIP3    H260050   2.581   6.026   2.470 -1.6341 -0.6476 -1.1838
12879TIP3   OH260051   2.466   1.918   3.490  0.3826  0.0416  0.5441
12879TIP3    H160052   2.517   1.941   3.412 -0.2909 -2.5783 -0.8070
12879TIP3    H260053   2.405   1.990   3.502  0.1180  0.2588 -1.7443
12880TIP3   OH260054   6.724   2.318   0.986 -0.2336  0.7867 -0.8609
12880TIP3    H160055   6.677   2.237   0.966 -0.4054  0.6152  0.1670
12880TIP3    H260056   6.692   2.381   0.922 -0.2973  0.1152 -1.5002
12881TIP3   OH260057   5.917   5.733   1.474  0.2648 -0.1597  0.2336
12881TIP3    H160058   5.973   5.765   1.404  1.7679  0.9266  1.8457
12881TIP3    H260059   5.977   5.695   1.538 -0.7900  0.9221  1.9598
12882TIP3   OH260060   4.057   4.725  13.780  0.3035  0.1398 -0.2078
12882TIP3    H160061   3.990   4.689  13.838  0.2298  0.2443 -0.2279
12882TIP3    H260062   4.049   4.820  13.790 -1.0328  0.2438 -1.8566
12883TIP3   OH260063   4.424   0.857  13.014 -0.1749 -0.4156  0.3049
12883TIP3    H160064   4.401   0.764  13.018 -0.0661 -0.4238  0.8186
12883TIP3    H260065   4.346   0.900  12.978  0.2757 -0.8778 -1.2962
12884TIP3   OH260066   0.753   4.772   2.666  0.5233 -0.6137 -0.2462
12884TIP3    H160067   0.681   4.797   2.607  0.2793 -0.6267  0.0419
12884TIP3    H260068   0.748   4.836   2.737  1.5438  0.1258 -0.8100
12885TIP3   OH260069   0.968   2.726   5.919 -0.0158  0.3204  0.3452
12885TIP3    H160070   1.055   2.687   5.923 -0.5608 -1.3027 -1.6388
12885TIP3    H260071   0.917   2.677   5.983  0.6584  1.7582  2.0299
12886TIP3   OH260072   4.932   6.407  13.008  0.5165 -0.2666 -0.0347
12886TIP3    H160073   4.923   6.321  13.049  1.2916 -0.5303 -0.3859
12886TIP3    H260074   5.017   6.439  13.039  0.4298  0.1772 -0.2570
12887TIP3   OH260075   5.472   5.865  17.272  0.0899  0.6756  0.3159
12887TIP3    H160076   5.434   5.812  17.342  0.5969  1.3496  1.1220
12887TIP3    H260077   5.433   5.831  17.192 -0.7807  0.1278  0.9599
12888TIP3   OH260078   4.405   6.545  17.321 -0.0221  0.2929  0.2376
12888TIP3    H160079   4.363   6.627  17.294 -0.9334 -0.5287 -0.9223
12888TIP3    H260080   4.353   6.515  17.395 -1.7752 -0.8731 -1.3740
12889TIP3   OH260081   0.307   2.244  12.904  0.3383 -0.0569 -0.9795
12889TIP3    H160082   0.318   2.322  12.958  0.5806 -0.1646 -0.8723
12889TIP3    H260083   0.356   2.176  12.949  0.3301 -0.2116 -1.2015
12890TIP3   OH260084   4.963   0.378   2.599  0.0999 -0.3590 -0.1006
12890TIP3    H160085   4.931   0.413   2.516  0.6736  1.4052  0.3713
12890TIP3    H260086   4.966   0.283   2.586 -1.3859 -0.2448 -1.5112
12891TIP3   OH260087   3.689   1.860   6.212 -0.6046  0.0764  0.6073
12891TIP3    H160088   3.601   1.896   6.220 -1.6281 -2.3205  0.9926
12891TIP3    H260089   3.678   1.766   6.227  1.4336 -0.9232 -3.0082
12892TIP3   OH260090   0.239   0.028  12.224 -0.1671  0.5194 -0.1387
12892TIP3    H160091   0.150   0.010  12.254 -0.3763 -0.4461 -1.2602
12892TIP3    H260092   0.237   0.121  12.200 -2.1246 -0.3226 -4.0162
12893TIP3   OH260093   5.897   1.139   0.780  0.0551  0.0023 -0.3204
12893TIP3    H160094   5.937   1.095   0.705 -0.0855  2.0883 -1.7028
12893TIP3    H260095   5.803   1.125   0.769  0.0167  0.5359 -0.7043
12894TIP3   OH260096   4.867   3.535  14.535  0.2873  1.0735  0.3107
12894TIP3    H160097   4.794   3.545  14.595  1.2025 -0.6206  1.8033
12894TIP3    H260098   4.848   3.454  14.487  0.2211  1.7015 -0.7545
12895TIP3   OH260099   1.743   6.507   5.089  0.5817 -0.5078 -1.0316
12895TIP3    H160100   1.658   6.469   5.067  0.1221 -0.2115  0.1348
12895TIP3    H260101   1.804   6.433   5.089  0.0176 -0.9849 -0.3953
12896TIP3   OH260102   5.231   1.645   3.680 -0.5501 -0.0022 -0.2072
12896TIP3    H160103   5.286   1.634   3.757  0.4346 -0.8701 -0.9844
12896TIP3    H260104   5.211   1.555   3.653 -0.4580  0.2658 -1.2197
12897TIP3   OH260105   2.584   3.791  12.410  0.9521 -0.4814 -0.1825
12897TIP3    H160106   2.492   3.818  12.416  1.2482  0.2075  1.8137
12897TIP3    H260107   2.587   3.738  12.330 -0.9273  0.3985 -0.9205
12898TIP3   OH260108   5.578   6.458   5.961  0.4233  0.1603 -0.2542
12898TIP3    H160109   5.564   6.442   6.055  0.6095  1.7823  0.0856
12898TIP3    H260110   5.662   6.414   5.942  0.9532  0.7587  0.6199
12899TIP3   OH260111   4.987   4.518   0.633  0.7695  0.2523 -0.9717
12899TIP3    H160112   5.001   4.576   0.707  2.0105 -1.0437 -0.1277
12899TIP3    H260113   4.936   4.570   0.570 -0.2617  1.3916  0.7416
12900TIP3   OH260114   3.803   0.898   5.410 -0.2677  0.4737 -0.4307
12900TIP3    H160115   3.814   0.986   5.372 -1.1016  0.3038 -1.0953
12900TIP3    H260116   3.768   0.845   5.339  0.1847 -0.4023 -0.0207
12901TIP3   OH260117   3.196   2.909  13.103 -0.0398 -0.1962 -0.1579
12901TIP3    H160118   3.273   2.937  13.153 -0.7399  2.3154 -0.3412
12901TIP3    H260119   3.231   2.857  13.031  1.3144 -0.6447  0.8022
12902TIP3   OH260120   4.205   2.261   2.082 -0.2333  0.3621 -0.3711
12902TIP3    H160121   4.165   2.266   2.169 -2.6072 -0.9158 -1.3080
12902TIP3    H260122   4.260   2.339   2.076  0.2733  0.3119  2.3795
12903TIP3   OH260123   6.175   0.952  12.831  0.3828  0.3683 -0.2620
12903TIP3    H160124   6.142   0.940  12.921  2.6066  2.1471  0.8747
12903TIP3    H260125   6.266   0.979  12.842  0.1644  2.6208 -2.9982
12904TIP3   OH260126   5.145   6.317  13.161  0.1591  0.9838 -0.2946
12904TIP3    H160127   5.086   6.348  13.230 -0.0603 -2.0592  1.0696
12904TIP3    H260128   5.232   6.318  13.201  0.0329 -0.7706  0.1320
12905TIP3   OH260129   3.868   5.531  16.172 -0.2440  0.5661  0.3125
12905TIP3    H160130   3.941   5.587  16.198  0.5437 -0.7127  0.9758
12905TIP3    H260131   3.818   5.584  16.110  1.4747  1.3436 -0.4895
12906TIP3   OH260132   2.986   6.664   3.637 -0.1643 -0.3698 -0.6723
12906TIP3    H160133   3.039   6.618   3.572 -0.5494 -0.0627 -1.2163
12906TIP3    H260134   3.040   6.737   3.667  0.5130 -1.2449  0.3131
12907TIP3   OH260135   0.134   1.303  17.277 -0.2285 -0.9742 -0.3086
12907TIP3    H160136   0.105   1.394  17.277  0.2302 -0.8181  0.6061
12907TIP3    H260137   0.214   1.304  17.225  0.7423 -0.5167  1.1501
12908TIP3   OH260138   5.104   0.371  14.412 -0.1905  0.4327  0.1112
12908TIP3    H160139   5.011   0.377  14.388 -0.3330 -1.2927  0.1241
12908TIP3    H260140   5.115   0.434  14.483 -1.4683  0.3034  0.4433
12909TIP3   OH260141   2.188   1.255  17.174  0.4804  0.4308 -0.2261
12909TIP3    H160142   2.241   1.176  17.164 -0.4633 -0.1105 -1.2493
12909TIP3    H260143   2.098   1.223  17.184  0.1919  1.3541  0.2706
12910TIP3   OH260144   5.597   3.730   3.908  0.0921 -0.7074 -0.2981
12910TIP3    H160145   5.593   3.751   3.815 -0.7336 -2.0519 -0.5913
12910TIP3    H260146   5.540   3.654   3.918 -2.3109  1.2177  1.8535
12911TIP3   OH260147   0.796   5.652  11.268  0.5592  0.7415 -0.0228
12911TIP3    H160148   0.874   5.701  11.295  0.4778  1.9665 -1.8261
12911TIP3    H260149   0.776   5.595  11.343  1.7305  2.1578  1.4412
12912TIP3   OH260150   4.272   0.928  12.320  0.0488  0.1536 -0.1372
12912TIP3    H160151   4.343   0.881  12.276 -1.1720 -1.1079 -0.8079
12912TIP3    H260152   4.301   0.933  12.412  1.8119  1.2867 -0.7017
12913TIP3   OH260153   3.816   6.300   3.459  0.2465 -0.2579 -0.1849
12913TIP3    H160154   3.802   6.362   3.531 -0.1898  0.8071 -1.1492
12913TIP3    H260155   3.732   6.255   3.449  0.3658 -0.5441  0.0934
12914TIP3   OH260156   0.437   0.771   3.507  0.1480 -0.1032  0.1639
12914TIP3    H160157   0.507   0.824   3.470 -0.1574  2.8483  3.3086
12914TIP3    H260158   0.465   0.755   3.597 -1.2167 -2.8152  0.1880
12915TIP3   OH260159   3.161   4.700  14.804  0.4453 -0.3927 -0.9653
12915TIP3    H160160   3.101   4.680  14.876 -0.1444 -1.5792 -1.7549
12915TIP3    H260161   3.138   4.790  14.778 -1.0876 -0.8670 -1.3284
12916TIP3   OH260162   2.299   2.151   5.551  0.1445 -0.0443  0.0231
12916TIP3    H160163   2.286   2.225   5.491 -1.3591  1.1572  1.7270
12916TIP3    H260164   2.392   2.153   5.571  0.2560  0.9599 -0.5060
12917TIP3   OH260165   3.727   5.119   5.689 -0.6772  0.2650 -0.3899
12917TIP3    H160166   3.681   5.054   5.636  2.0390 -0.5975 -1.9306
12917TIP3    H260167   3.734   5.196   5.632  1.3549 -0.2987 -0.9928
12918TIP3   OH260168   1.752   4.346   2.824  0.5062 -0.0972 -0.1503
12918TIP3    H160169   1.706   4.398   2.758  0.9560  1.6223  0.8190
12918TIP3    H260170   1.845   4.364   2.808  0.7471 -1.5118 -0.4850
12919TIP3   OH260171   3.562   6.503  15.001 -0.0184 -0.5077 -0.1794
12919TIP3    H160172   3.638   6.515  15.058 -0.3255  0.9060 -0.0249
12919TIP3    H260173   3.520   6.423  15.034  1.1475 -1.0642  0.0043
12920TIP3   OH260174   5.532   0.943   1.618 -0.0017  0.1379  0.1483
12920TIP3    H160175   5.497   0.909   1.535 -2.7833  0.3591  1.1232
12920TIP3    H260176   5.472   1.015   1.641  0.6767  0.0486  2.3760
12921TIP3   OH260177   6.381   1.365  13.290 -0.0684 -0.5390 -0.7088
12921TIP3    H160178   6.455   1.305  13.297  1.1331  1.0606  2.0676
12921TIP3    H260179   6.312   1.325  13.343  0.5857  0.2198  0.7859
12922TIP3   OH260180   2.886   3.579   1.398 -0.3507 -0.4025  0.9954
12922TIP3    H160181   2.851   3.506   1.347 -0.2211 -0.0868  0.4450
12922TIP3    H260182   2.956   3.540   1.450  2.2047 -0.1007 -1.9074
12923TIP3   OH260183   2.662   1.983  16.439  0.0294 -0.7531 -0.5982
12923TIP3    H160184   2.723   1.947  16.374  0.4794  1.6921 -1.6691
12923TIP3    H260185   2.717   2.041  16.493 -1.2167  1.2693 -1.3906
12924TIP3   OH260186   4.879   4.104  16.333  0.2133  0.4621 -0.0419
12924TIP3    H160187   4.786   4.093  16.350  0.3351 -1.8376 -0.5319
12924TIP3    H260188   4.886   4.105  16.237  0.7689 -0.7256 -0.0394
12925TIP3   OH260189   5.418   6.180  15.683 -0.0197  0.2956 -0.2738
12925TIP3    H160190   5.322   6.177  15.681 -0.0564  0.7179  0.3022
12925TIP3    H260191   5.442   6.248  15.619 -0.1068  0.1722 -0.4360
12926TIP3   OH260192   3.824   6.627   3.396  0.2984 -0.3313  0.0305
12926TIP3    H160193   3.836   6.612   3.490  4.4912 -0.3493 -0.3174
12926TIP3    H260194   3.813   6.722   3.388  0.2683 -0.2892  0.5434
12927TIP3   OH260195   1.683   2.368   5.010  0.3597  0.4802 -0.1168
12927TIP3    H160196   1.737   2.401   4.938  0.7375  3.6960  1.4517
12927TIP3    H260197   1.593   2.378   4.979  0.5079  2.1872 -0.0722
12928TIP3   OH260198   4.115   1.141  14.830  0.0066 -0.0180  0.1020
12928TIP3    H160199   4.204   1.145  14.865 -0.5672 -0.4172  1.7100
12928TIP3    H260200   4.117   1.069  14.768  1.0345  0.6275 -0.6643
12929TIP3   OH260201   5.509   6.509  12.039  0.6997 -0.4315 -0.4827
12929TIP3    H160202   5.495   6.508  11.944 -1.9076  0.9996 -0.2117
12929TIP3    H260203   5.536   6.599  12.058  1.0002 -0.6546  0.1568
12930TIP3   OH260204   0.380   0.489   3.575  0.2335  0.9730  0.3180
12930TIP3    H160205   0.311   0.428   3.600  0.1411  0.9533  0.0155
12930TIP3    H260206   0.333   0.568   3.548  0.2765  0.5483 -1.0357
12931TIP3   OH260207   1.679   2.651   5.178 -0.0145  0.0448  0.2982
12931TIP3    H160208   1.679   2.565   5.135  0.4409 -0.0784  0.5435
12931TIP3    H260209   1.720   2.636   5.262 -1.1835  0.2236  0.9276
12932TIP3   OH260210   3.670   5.479  17.202  0.0456 -0.9417 -0.1133
12932TIP3    H160211   3.754   5.435  17.216  0.3294 -0.0041  1.4157
12932TIP3    H260212   3.694   5.568  17.174 -0.3121 -0.0507  2.1553
12933TIP3   OH260213   1.594   3.349   6.087  0.3449 -0.0326  0.1376
12933TIP3    H160214   1.593   3.269   6.140  0.9133  0.1280  0.4022
12933TIP3    H260215   1.503   3.377   6.084  0.2047 -0.4445  0.4175
12934TIP3   OH260216   3.655   1.392  13.905  0.2924 -0.5921  0.2918
12934TIP3    H160217   3.642   1.378  13.811  2.1649 -2.0290  0.1917
12934TIP3    H260218   3.567   1.410  13.939 -0.4519 -0.2064 -1.6811
12935TIP3   OH260219   4.790   2.548  11.359  0.9054 -0.2251 -0.0661
12935TIP3    H160220   4.804   2.532  11.453  0.2198 -1.9116 -0.2060
12935TIP3    H260221   4.830   2.472  11.316  2.0942  1.0186 -1.2358
12936TIP3   OH260222   6.032   3.229  14.311  0.4233 -0.4011  0.3045
12936TIP3    H160223   5.971   3.198  14.244  0.4243  0.0726  0.0815
12936TIP3    H260224   5.977   3.277  14.373  0.7137  1.1699 -0.5851
12937TIP3   OH260225   1.365   5.437  14.508 -0.0491  0.2682 -0.1681
12937TIP3    H160226   1.281   5.478  14.484 -0.9895 -1.7849 -0.5483
12937TIP3    H260227   1.414   5.508  14.549 -2.7650  1.1043  2.0117
12938TIP3   OH260228   4.155   5.607  15.864 -0.3494 -0.3822 -0.1686
12938TIP3    H160229   4.064   5.632  15.844 -0.4363 -0.3582  0.2582
12938TIP3    H260230   4.148   5.547  15.938  0.0304  0.0927  0.2585
12939TIP3   OH260231   1.153   5.981   3.722  0.4039 -0.2092 -0.3934
12939TIP3    H160232   1.174   6.070   3.750 -0.2008  0.1325 -0.9904
12939TIP3    H260233   1.090   5.951   3.787  1.7092 -0.7670  0.6632
12940TIP3   OH260234   6.481   5.379  13.915  0.0606 -0.0409 -0.0466
12940TIP3    H160235   6.498   5.420  13.830  0.9788  0.8425  0.5319
12940TIP3    H260236   6.568   5.360  13.949 -0.2448  0.6108  1.1551
12941TIP3   OH260237   6.288   2.659  12.722 -0.4089 -0.2513 -0.6574
12941TIP3    H160238   6.350   2.732  12.720  0.8053 -1.1970  0.4906
12941TIP3    H260239   6.318   2.599  12.654 -0.2769 -0.5347 -0.3535
12942TIP3   OH260240   2.537   3.994   2.356  0.1872 -0.4761  0.0272
12942TIP3    H160241   2.548   4.020   2.448  0.5275 -1.8062  0.3877
12942TIP3    H260242   2.502   4.072   2.313 -2.6709 -0.5988  1.8554
12943TIP3   OH260243   1.261   6.669  13.495  0.1723  0.0241 -0.3732
12943TIP3    H160244   1.356   6.679  13.502  0.2328 -0.6747 -0.1610
12943TIP3    H260245   1.239   6.710  13.411  0.3895  1.9335  0.4599
12944TIP3   OH260246   1.713   0.297  17.184 -0.5701  0.0161  0.0887
12944TIP3    H160247   1.764   0.220  17.210  1.7577  0.5828 -2.3454
12944TIP3    H260248   1.778   0.357  17.148 -2.4588  2.6999  0.8755
12945TIP3   OH260249   0.597   0.931  16.337 -0.1805 -0.2226  0.0420
12945TIP3    H160250   0.524   0.993  16.333 -0.3359 -0.3729  0.4429
12945TIP3    H260251   0.557   0.850  16.370  0.6476  0.4494  2.9530
12946TIP3   OH260252   3.340   5.130   1.298  0.0558  0.1124 -0.2002
12946TIP3    H160253   3.281   5.061   1.330 -0.5997  0.0462 -1.4695
12946TIP3    H260254   3.407   5.137   1.366  0.3276 -2.0122 -0.1666
12947TIP3   OH260255   5.048   2.291   3.963 -0.0585  0.0082  0.7381
12947TIP3    H160256   5.123   2.326   4.011 -0.7746  0.2035  1.7447
12947TIP3    H260257   4.996   2.245   4.029  0.2501 -2.0093 -0.3216
12948TIP3   OH260258   6.005   4.324   0.091  0.0198  0.4739  0.5774
12948TIP3    H160259   6.070   4.259   0.064  0.2570  0.9137  0.0614
12948TIP3    H260260   6.002   4.317   0.186  1.3226  0.9120  0.6683
12949TIP3   OH260261   6.072   2.473   5.934 -0.3860  0.1756  0.3466
12949TIP3    H160262   6.164   2.468   5.959 -0.3328  0.8588  0.3111
12949TIP3    H260263   6.073   2.467   5.838 -0.2175  1.8585  0.2066
12950TIP3   OH260264   0.449   6.512   5.139 -0.4457  0.3382 -0.0022
12950TIP3    H160265   0.521   6.494   5.199 -0.3120 -0.9178 -0.5157
12950TIP3    H260266   0.435   6.430   5.092 -0.4025  1.3260 -1.8661
12951TIP3   OH260267   0.007   5.505  13.294 -0.1994  0.4664  0.0916
12951TIP3    H160268   0.098   5.476  13.291 -0.2009  0.4948 -0.5573
12951TIP3    H260269  -0.013   5.527  13.203 -1.4440 -1.3916 -0.1331
12952TIP3   OH260270   0.853   1.687  12.673 -0.6102  0.3156 -0.4606
12952TIP3    H160271   0.850   1.687  12.578 -0.6566  1.0971 -0.4599
12952TIP3    H260272   0.872   1.778  12.697 -1.9770  0.4183  0.3216
12953TIP3   OH260273   1.871   1.409   0.818  0.3766  0.2743 -0.2075
12953TIP3    H160274   1.905   1.402   0.907  2.5227  0.1644 -0.9643
12953TIP3    H260275   1.944   1.380   0.762 -1.8745 -2.7751 -1.9232
12954TIP3   OH260276   1.037   1.069  17.156  0.2213 -0.0393 -0.1833
12954TIP3    H160277   0.946   1.062  17.127 -0.1995  1.3939  0.6728
12954TIP3    H260278   1.043   1.157  17.193  1.1571 -1.1582  2.5260
12955TIP3   OH260279   4.664   2.188   3.993 -0.4783  0.3169  0.3219
12955TIP3    H160280   4.612   2.164   3.916  0.3671  0.1503 -0.2098
12955TIP3    H260281   4.650   2.282   4.004  0.3060  0.5774 -0.7540
12956TIP3   OH260282   6.111   0.744  10.791 -0.6956  0.3014 -0.4490
12956TIP3    H160283   6.124   0.667  10.846 -0.6316  0.1169 -0.7161
12956TIP3    H260284   6.016   0.752  10.784 -0.7120  0.8190  0.3637
12957TIP3   OH260285   2.772   6.171  11.675 -0.3963 -0.3377 -0.8905
12957TIP3    H160286   2.754   6.112  11.602 -0.2320  0.4500 -1.5835
12957TIP3    H260287   2.704   6.238  11.669 -1.4868 -1.2230  0.7850
12958TIP3   OH260288   6.283   4.212  17.184 -0.2064  0.2784  0.0577
12958TIP3    H160289   6.265   4.301  17.153 -1.8709 -0.4401 -1.1900
12958TIP3    H260290   6.368   4.190  17.146 -0.6379  0.6898 -1.1793
12959TIP3   OH260291   3.692   2.104   1.707  0.0748  0.2614 -0.1078
12959TIP3    H160292   3.717   2.175   1.648  1.8540 -0.4614 -0.2777
12959TIP3    H260293   3.603   2.082   1.681  0.5241  0.5110 -1.9964
12960TIP3   OH260294   3.610   0.848   2.363  0.2406 -0.0488  0.0742
12960TIP3    H160295   3.545   0.778   2.360  0.5363 -0.2990 -0.8254
12960TIP3    H260296   3.621   0.874   2.271 -0.6503  1.9234  0.4697
12961TIP3   OH260297   6.537   4.170  13.147  0.1102  0.1629 -0.1993
12961TIP3    H160298   6.630   4.184  13.128 -0.4530  1.2579 -2.5129
12961TIP3    H260299   6.498   4.258  13.144 -1.1272 -0.3534 -0.0198
12962TIP3   OH260300   2.205   1.244   0.908 -0.2569  0.3810  0.0754
12962TIP3    H160301   2.138   1.253   0.840 -0.0836 -0.6479 -0.2466
12962TIP3    H260302   2.287   1.235   0.860  0.0495  1.0465  0.4589
12963TIP3   OH260303   3.333   0.061  16.841  0.0497  0.1508  0.4974
12963TIP3    H160304   3.394   0.089  16.773 -1.3878  0.6292 -0.6418
12963TIP3    H260305   3.329   0.135  16.902 -0.7770  0.9042 -0.4276
12964TIP3   OH260306   6.045   5.843   3.931  0.3170  0.2329 -0.3282
12964TIP3    H160307   6.133   5.814   3.955 -0.5078 -1.2623  1.0653
12964TIP3    H260308   6.011   5.885   4.010 -0.5007  0.0718 -0.5857
12965TIP3   OH260309   3.929   1.016  11.628  0.4656  0.3691 -0.0176
12965TIP3    H160310   3.881   0.967  11.695  0.4538  0.3140 -0.0658
12965TIP3    H260311   3.974   0.949  11.578 -1.4520  0.1787 -1.6231
12966TIP3   OH260312   3.363   2.517   2.614 -0.3408 -0.4180 -0.1257
12966TIP3    H160313   3.315   2.566   2.547 -0.4345  0.4972  0.5919
12966TIP3    H260314   3.454   2.547   2.605 -0.3264 -0.4048  0.0672
12967TIP3   OH260315   4.551   2.050   4.256  0.0544  0.4671 -0.0730
12967TIP3    H160316   4.593   2.079   4.175 -0.7023 -0.3824 -0.7749
12967TIP3    H260317   4.458   2.064   4.241 -0.5286 -3.3475 -0.9474
12968TIP3   OH260318   4.136   6.201  13.516  0.0397  0.1913  0.2174
12968TIP3    H160319   4.206   6.136  13.513  0.2894  0.4808 -0.4594
12968TIP3    H260320   4.157   6.255  13.592 -0.1170 -0.4548  0.7284
12969TIP3   OH260321   4.781   3.620  13.165  0.0103  0.0299  0.1785
12969TIP3    H160322   4.717   3.631  13.235  1.5712  2.9858  1.3106
12969TIP3    H260323   4.746   3.671  13.092 -0.0693 -0.3615 -0.0591
12970TIP3   OH260324   1.310   4.830   0.639  0.0440 -0.1947  0.0706
12970TIP3    H160325   1.273   4.918   0.642  0.4539  0.0438 -1.2514
12970TIP3    H260326   1.276   4.788   0.718 -0.0737  1.1691  0.7898
12971TIP3   OH260327   1.071   3.384  17.150 -0.2528 -0.1360 -0.4755
12971TIP3    H160328   1.158   3.424  17.159  0.1511 -0.8575 -1.0748
12971TIP3    H260329   1.083   3.315  17.085 -0.6568 -1.9942  1.3018
12972TIP3   OH260330   4.763   3.531   2.270  0.1582  0.2401 -0.2955
12972TIP3    H160331   4.775   3.535   2.175 -1.5103 -0.6683 -0.5838
12972TIP3    H260332   4.746   3.621   2.297 -1.1458  0.2726 -1.1518
12973TIP3   OH260333   1.166   6.558   4.790  0.4064 -0.5039  0.0611
12973TIP3    H160334   1.244   6.603   4.755 -0.3178  0.9406  0.2288
12973TIP3    H260335   1.197   6.470   4.811  2.2816  0.3501  1.1435
12974TIP3   OH260336   1.824   3.457   6.182 -0.2306 -0.0934  0.0838
12974TIP3    H160337   1.780   3.540   6.162 -1.6391 -0.5592  1.0896
12974TIP3    H260338   1.755   3.392   6.181  0.8503 -1.2667 -0.5822
12975TIP3   OH260339   2.509   2.700  17.371 -0.3664  0.8203 -0.0059
12975TIP3    H160340   2.427   2.683  17.324 -0.8277  0.6331  0.8503
12975TIP3    H260341   2.493   2.670  17.460  1.3412 -1.1666 -0.2907
12976TIP3   OH260342   5.494   2.357   2.606  0.0002  0.1866  0.2710
12976TIP3    H160343   5.414   2.386   2.562 -0.8310 -2.2900 -0.0018
12976TIP3    H260344   5.464   2.323   2.690  0.9089  0.2087  0.6103
12977TIP3   OH260345   5.386   0.421  14.739 -0.2513 -0.5555  0.4011
12977TIP3    H160346   5.436   0.498  14.767  0.4087 -0.6492 -0.4746
12977TIP3    H260347   5.299   0.434  14.777 -0.8252  1.7378 -1.4276
12978TIP3   OH260348   3.416   5.763   5.248  0.2073 -0.0938 -0.1876
12978TIP3    H160349   3.474   5.766   5.324 -0.3596 -1.8006  0.3636
12978TIP3    H260350   3.467   5.715   5.182 -0.4913 -1.5237  0.2706
12979TIP3   OH260351   1.998   0.929  13.104  0.2297  0.2866 -0.4143
12979TIP3    H160352   1.949   0.966  13.031  1.5740  0.4970 -1.2415
12979TIP3    H260353   2.017   1.003  13.162 -0.5677  0.1721  0.0051
12980TIP3   OH260354   3.125   4.395   5.888 -0.8974 -0.6731 -0.2924
12980TIP3    H160355   3.062   4.326   5.907 -1.7036  0.6230  2.1695
12980TIP3    H260356   3.084   4.475   5.921  2.8802 -0.0619  3.9645
12981TIP3   OH260357   0.382   2.606   0.401  0.0228  0.2258 -0.0296
12981TIP3    H160358   0.429   2.580   0.480 -1.5072  0.6782  1.0740
12981TIP3    H260359   0.407   2.541   0.336  1.1128 -0.3195  0.8882
12982TIP3   OH260360   5.605   2.358  11.472  0.2792  0.9035 -0.5410
12982TIP3    H160361   5.593   2.288  11.408  1.3046  1.6372 -1.5733
12982TIP3    H260362   5.643   2.315  11.549 -1.1873 -0.0286 -0.3037
12983TIP3   OH260363   5.926   1.100   4.146 -0.8882  0.3766 -0.0957
12983TIP3    H160364   5.898   1.066   4.231 -0.3780  0.1920  0.0040
12983TIP3    H260365   5.904   1.193   4.149  0.5878  0.7213  0.8819
12984TIP3   OH260366   0.247   4.625   0.578 -0.2335 -0.2158  0.0679
12984TIP3    H160367   0.256   4.716   0.604 -3.0273  0.3167 -0.6000
12984TIP3    H260368   0.206   4.582   0.652  1.0279 -0.9753  0.3643
12985TIP3   OH260369   2.886   0.695   1.500  0.1124  0.5408  0.3035
12985TIP3    H160370   2.813   0.757   1.491  1.0449  1.5328 -0.7569
12985TIP3    H260371   2.845   0.614   1.531 -1.8414  0.3620 -2.3546
12986TIP3   OH260372   3.228   3.807  12.883 -0.4869  0.0332 -0.2915
12986TIP3    H160373   3.289   3.867  12.841 -0.3933  0.1032 -0.0568
12986TIP3    H260374   3.146   3.856  12.889 -0.9370 -0.4843 -1.7366
12987TIP3   OH260375   2.132   2.683  16.544  0.1618  0.2133 -0.2583
12987TIP3    H160376   2.040   2.697  16.563 -0.0179  0.5393 -1.2746
12987TIP3    H260377   2.133   2.648  16.455  1.1085  2.1471 -1.0698
12988TIP3   OH260378   0.565   1.501   5.300  0.3257 -0.0298 -0.2768
12988TIP3    H160379   0.642   1.553   5.278  1.2544 -1.2446  0.0276
12988TIP3    H260380   0.530   1.473   5.216 -0.4287  1.3683 -0.4714
12989TIP3   OH260381   2.322   2.891  14.769  0.0550 -0.1810  0.5794
12989TIP3    H160382   2.256   2.912  14.703  0.9022  0.5785 -0.0460
12989TIP3    H260383   2.350   2.976  14.803 -0.9568 -0.5652  2.5600
12990TIP3   OH260384   2.706   3.778   4.961  0.2130  0.3537  0.2587
12990TIP3    H160385   2.614   3.781   4.937  0.2372 -2.1641 -0.4238
12990TIP3    H260386   2.745   3.851   4.913 -1.2423  0.8570 -0.2217
12991TIP3   OH260387   2.359   1.791   0.559 -0.3897 -0.0116 -0.1873
12991TIP3    H160388   2.427   1.800   0.625  0.7132 -0.6995 -1.1831
12991TIP3    H260389   2.310   1.713   0.586 -0.1111 -0.1369 -0.0323
12992TIP3   OH260390   3.108   3.594   3.973 -0.0533  0.0484 -0.1398
12992TIP3    H160391   3.069   3.609   3.886 -0.2629  0.9571  0.0985
12992TIP3    H260392   3.046   3.535   4.016  0.2447 -0.7166 -0.7356
12993TIP3   OH260393   1.436   2.067  14.537  0.1402  0.6227 -0.1829
12993TIP3    H160394   1.488   2.083  14.616 -0.5330 -0.1537  0.4279
12993TIP3    H260395   1.482   2.116  14.468  2.7397 -1.4210 -0.0691
12994TIP3   OH260396   3.751   4.336  13.754  0.0023 -0.4621 -0.0849
12994TIP3    H160397   3.805   4.400  13.708 -0.8777 -0.2720 -0.8925
12994TIP3    H260398   3.674   4.325  13.698 -1.1079 -0.2292  1.3189
12995TIP3   OH260399   0.984   3.440  11.581 -0.1938 -0.4922 -0.1038
12995TIP3    H160400   0.979   3.508  11.648 -2.0579  1.3577 -1.9711
12995TIP3    H260401   1.076   3.413  11.582  0.4693  1.5398  1.2099
12996TIP3   OH260402   5.498   2.189   3.016  0.5703 -0.5920 -0.1844
12996TIP3    H160403   5.425   2.246   2.990  0.0620 -1.3679 -0.4866
12996TIP3    H260404   5.574   2.223   2.969  0.4130  0.2209  0.1288
12997TIP3   OH260405   2.839   5.318   4.734  0.2630 -0.0101 -0.4391
12997TIP3    H160406   2.800   5.384   4.792 -2.1022 -1.1318 -0.6343
12997TIP3    H260407   2.925   5.302   4.772 -0.5074  0.5898  1.7699
12998TIP3   OH260408   1.802   0.109   5.910  0.4277 -0.5377 -1.0916
12998TIP3    H160409   1.752   0.051   5.968  0.0211 -0.2152 -1.1128
12998TIP3    H260410   1.856   0.162   5.969  0.1514 -0.3376 -1.0168
12999TIP3   OH260411   2.518   4.783  10.753 -0.6751 -0.0003 -0.2405
12999TIP3    H160412   2.459   4.792  10.678  0.0507 -1.2985 -0.9869
12999TIP3    H260413   2.558   4.870  10.762 -0.6217  0.1278 -1.4847
13000TIP3   OH260414   6.613   6.740   3.222  0.1205  0.3948 -0.3517
13000TIP3    H160415   6.528   6.763   3.187 -1.2882  1.4538  3.2902
13000TIP3    H260416   6.673   6.803   3.184 -1.2783  1.5000 -0.7936
13001TIP3   OH260417   3.847   5.297   3.098  0.4501  0.4411  0.2101
13001TIP3    H160418   3.829   5.329   3.187  0.6949  1.1607  0.0052
13001TIP3    H260419   3.913   5.229   3.111 -0.7242 -0.6367  0.7355
13002TIP3   OH260420   0.883   0.974   5.583 -0.0844 -0.2873  0.7091
13002TIP3    H160421   0.917   0.971   5.494 -2.8554 -1.3210 -0.4269
13002TIP3    H260422   0.826   0.897   5.589  2.3050 -2.0479  4.4320
13003TIP3   OH260423   5.719   4.803  11.039  0.8100 -0.0484  0.6461
13003TIP3    H160424   5.776   4.875  11.066  0.6755 -0.3271  1.7173
13003TIP3    H260425   5.729   4.737  11.108  0.8295 -1.0091 -0.2479
13004TIP3   OH260426   5.050   3.703  13.090 -0.1878 -0.6812  0.7204
13004TIP3    H160427   4.971   3.661  13.055 -0.9084  1.6678 -0.6822
13004TIP3    H260428   5.017   3.757  13.162  0.1704  0.1094  0.2927
13005TIP3   OH260429   2.592   6.482   4.919  0.4907  0.1968 -0.1809
13005TIP3    H160430   2.551   6.552   4.969  0.8674 -0.9650  1.8413
13005TIP3    H260431   2.686   6.498   4.927  0.5617  0.7394 -1.6849
13006TIP3   OH260432   2.747   2.036  15.183 -0.1080 -0.0873 -0.2475
13006TIP3    H160433   2.787   2.117  15.213 -0.3052  0.1295 -0.5725
13006TIP3    H260434   2.771   1.971  15.250  0.2193  0.1903 -0.0979
13007TIP3   OH260435   5.514   2.791  11.433  0.3035 -0.3841 -0.6323
13007TIP3    H160436   5.530   2.800  11.527  1.2831  0.2669 -0.8439
13007TIP3    H260437   5.494   2.880  11.405 -0.1530 -0.6068 -1.0158
13008TIP3   OH260438   2.727   0.578  16.483 -0.1454  0.6549 -0.2924
13008TIP3    H160439   2.713   0.530  16.565  0.3745  0.1326 -0.5063
13008TIP3    H260440   2.680   0.660  16.496 -0.4999  0.3643  0.3315
13009TIP3   OH260441   3.671   5.132   1.982 -0.1421  0.2388  0.0601
13009TIP3    H160442   3.692   5.225   1.983 -0.2578  0.2643  1.1804
13009TIP3    H260443   3.642   5.115   1.892 -0.0328  1.2549 -0.1783
13010TIP3   OH260444   3.206   3.986  16.810  0.3070  0.5708 -0.9592
13010TIP3    H160445   3.270   4.051  16.783  0.1142  0.4707 -1.6831
13010TIP3    H260446   3.130   4.002  16.753  0.1441 -0.0891 -0.9361
13011TIP3   OH260447   2.321   3.887   4.257  0.2335 -0.1223  0.2482
13011TIP3    H160448   2.239   3.850   4.225 -0.4423 -0.0866  1.8240
13011TIP3    H260449   2.342   3.957   4.195  0.5212 -1.8247 -1.6927
13012TIP3   OH260450   3.403   2.738  14.610 -0.1362 -0.1707  0.4396
13012TIP3    H160451   3.487   2.760  14.652  0.4820 -0.2387 -0.7334
13012TIP3    H260452   3.366   2.823  14.587  0.2871 -0.1764 -0.3079
13013TIP3   OH260453   1.266   3.810  11.010  0.0376  0.3191  0.4172
13013TIP3    H160454   1.237   3.748  11.077  0.5703 -0.7877 -0.3693
13013TIP3    H260455   1.346   3.772  10.974  0.0852  1.1969 -0.4439
13014TIP3   OH260456   4.374   1.497  11.004 -0.1443  0.5698  0.1139
13014TIP3    H160457   4.360   1.546  11.084  1.8436  0.9153  0.2820
13014TIP3    H260458   4.310   1.533  10.942  0.5065  2.5993  0.5631
13015TIP3   OH260459   1.982   1.161   5.440 -0.4839 -0.1407  0.2986
13015TIP3    H160460   2.074   1.136   5.451 -0.5237 -0.5213 -0.1921
13015TIP3    H260461   1.985   1.244   5.393 -0.3895 -2.0770 -3.5837
13016TIP3   OH260462   2.708   6.130   0.464 -0.2929  0.1235  0.1838
13016TIP3    H160463   2.650   6.057   0.443  1.3672 -0.9373 -0.9245
13016TIP3    H260464   2.721   6.176   0.381  1.2787 -0.3040  0.1632
13017TIP3   OH260465   4.090   4.201  14.830  0.1829 -0.0881  0.4050
13017TIP3    H160466   4.131   4.230  14.911 -1.5910 -1.0485  1.7108
13017TIP3    H260467   4.035   4.126  14.856  0.9765 -1.6235 -1.9946
13018TIP3   OH260468   1.937   3.250  15.831 -0.2202 -0.3280 -0.6035
13018TIP3    H160469   1.846   3.220  15.830 -0.3175 -0.0897  0.3434
13018TIP3    H260470   1.985   3.178  15.872 -0.3433  0.4645  1.0032
13019TIP3   OH260471   6.579   5.982  17.228 -0.2087 -0.5095 -0.5040
13019TIP3    H160472   6.507   5.921  17.212  1.0406 -2.3106  0.3850
13019TIP3    H260473   6.648   5.956  17.168 -0.4651  1.6464 -1.8461
13020TIP3   OH260474   5.417   6.324   1.203 -0.0662 -0.0204 -0.3907
13020TIP3    H160475   5.355   6.319   1.130  0.0303 -0.5847 -0.4343
13020TIP3    H260476   5.438   6.417   1.209 -1.3859  0.2736  0.0179
13021TIP3   OH260477   0.698   3.441   0.905  0.3008  0.0671 -0.0142
13021TIP3    H160478   0.793   3.449   0.892  0.5310 -0.1649  1.3453
13021TIP3    H260479   0.660   3.510   0.850  1.3379  0.9639  0.3578
13022TIP3   OH260480   1.542   2.019   3.790 -0.3979 -0.4097  0.1101
13022TIP3    H160481   1.583   2.092   3.835 -0.9584  1.8320 -2.7316
13022TIP3    H260482   1.610   1.951   3.789  0.1662  0.0240  2.7573
13023TIP3   OH260483   3.715   0.462   5.923  0.2106 -0.1980 -0.6893
13023TIP3    H160484   3.697   0.414   6.004  2.7809 -0.1865 -0.0268
13023TIP3    H260485   3.731   0.393   5.858  1.2184 -0.2554 -0.3976
13024TIP3   OH260486   3.478   0.926  17.114  0.3558  0.3641 -0.0888
13024TIP3    H160487   3.449   0.991  17.049 -1.4815 -1.2877 -1.0423
13024TIP3    H260488   3.572   0.918  17.100 -0.0015 -0.0685 -2.7734
13025TIP3   OH260489   5.340   2.437  15.130 -0.2223 -0.4917  0.1147
13025TIP3    H160490   5.321   2.472  15.217 -1.5514  1.1890 -0.7891
13025TIP3    H260491   5.370   2.512  15.079 -1.9704 -0.8303 -1.5562
13026TIP3   OH260492   4.878   2.662  17.180  0.0064  0.2023  0.1473
13026TIP3    H160493   4.810   2.651  17.247 -1.3180  1.0932 -0.9724
13026TIP3    H260494   4.945   2.598  17.203 -0.9256 -0.2915  1.6646
13027TIP3   OH260495   1.028   2.514  13.246 -0.4310  0.7778 -0.1078
13027TIP3    H160496   1.071   2.579  13.191 -0.3022 -0.9275 -2.1281
13027TIP3    H260497   1.007   2.442  13.187 -0.7431 -0.9625  1.9939
13028TIP3   OH260498   0.021   1.802  10.584 -0.2814 -0.2312  0.7954
13028TIP3    H160499   0.039   1.877  10.528 -1.8504 -0.9036 -0.6897
13028TIP3    H260500   0.092   1.803  10.648  0.4421  1.7529  0.0443
13029TIP3   OH260501   2.483   1.149  13.649 -0.2334  0.1543  0.0605
13029TIP3    H160502   2.467   1.128  13.557  2.3209  2.7622 -1.1382
13029TIP3    H260503   2.399   1.178  13.682 -1.1098 -0.3576 -1.5880
13030TIP3   OH260504   1.658   4.012   3.083  0.3317 -0.8343  0.8435
13030TIP3    H160505   1.692   3.922   3.086 -0.4586 -1.4760 -3.3336
13030TIP3    H260506   1.601   4.018   3.160 -0.5185 -4.3639  0.6778
13031TIP3   OH260507   1.341   4.449   2.440  0.0548 -0.2571 -0.2630
13031TIP3    H160508   1.322   4.399   2.520  1.0956 -0.2669 -0.0088
13031TIP3    H260509   1.274   4.517   2.438  0.2642  0.0002  0.8493
13032TIP3   OH260510   2.001   1.165  13.266 -0.1990 -0.1345 -0.0504
13032TIP3    H160511   2.026   1.249  13.229 -1.5421 -0.4617 -1.8734
13032TIP3    H260512   1.996   1.181  13.360 -0.9164  1.9802 -0.3857
13033TIP3   OH260513   6.081   0.384   0.514  0.1493  0.4558  0.4083
13033TIP3    H160514   6.116   0.471   0.495  0.9980 -0.2085 -1.2965
13033TIP3    H260515   5.995   0.383   0.472  0.9603 -0.1361 -1.3731
13034TIP3   OH260516   1.699   0.770   0.562  0.0095  0.1313  0.3333
13034TIP3    H160517   1.791   0.798   0.569  0.2256 -0.5913  0.4143
13034TIP3    H260518   1.649   0.843   0.600  0.5503  0.5122  0.3248
13035TIP3   OH260519   1.920   3.760  14.408  0.2615  0.2083 -0.2181
13035TIP3    H160520   1.972   3.769  14.489  0.8503  0.1535 -0.5823
13035TIP3    H260521   1.832   3.741  14.439  0.5608 -0.2100  0.4159
13036TIP3   OH260522   3.671   0.379   1.334  0.4115  0.0797 -0.7768
13036TIP3    H160523   3.605   0.319   1.301  0.3788  0.7276 -1.9343
13036TIP3    H260524   3.625   0.431   1.400  0.3587 -0.9167 -0.0009
13037TIP3   OH260525   0.011   0.876   1.961 -0.3633  0.1406 -0.2847
13037TIP3    H160526   0.006   0.849   2.053  1.7075  2.6730  0.6903
13037TIP3    H260527   0.064   0.809   1.919 -0.1763 -0.3370  0.6833
13038TIP3   OH260528   4.980   6.074   4.634 -0.2303  0.0494 -0.0743
13038TIP3    H160529   4.920   6.104   4.703 -1.1407 -0.7470 -0.5009
13038TIP3    H260530   4.943   5.991   4.604  0.1324  0.3980 -1.5530
13039TIP3   OH260531   6.243   0.935  11.709 -0.0705 -0.0286  0.2161
13039TIP3    H160532   6.169   0.875  11.697 -1.3161  1.8821 -2.5326
13039TIP3    H260533   6.300   0.919  11.634  0.0054  1.6113 -0.1058
13040TIP3   OH260534   1.299   0.542   6.213 -0.3823 -0.0429 -0.1102
13040TIP3    H160535   1.228   0.506   6.160 -1.0944  0.3023  0.5875
13040TIP3    H260536   1.314   0.629   6.176  0.9557 -0.7939 -1.4351
13041TIP3   OH260537   3.485   6.537   4.895 -0.8711  0.0248 -0.2690
13041TIP3    H160538   3.458   6.621   4.933  0.8047 -0.7974  3.2127
13041TIP3    H260539   3.410   6.480   4.908 -0.2017 -0.3792  2.7232
13042TIP3   OH260540   3.133   5.402   1.131  0.0523  0.1352  0.7235
13042TIP3    H160541   3.190   5.479   1.134 -1.3736  1.4355 -1.9747
13042TIP3    H260542   3.190   5.333   1.096  0.6623  0.6902  0.5824
13043TIP3   OH260543   4.096   1.961  16.141 -0.3094 -0.4598 -0.4166
13043TIP3    H160544   4.067   2.022  16.208 -0.1195 -1.3190  0.4713
13043TIP3    H260545   4.052   1.879  16.162  1.1016 -1.2166 -0.2908
13044TIP3   OH260546   2.630   0.333   5.207 -0.0563 -0.2144 -0.4371
13044TIP3    H160547   2.675   0.415   5.188 -0.4442 -0.1947 -1.3591
13044TIP3    H260548   2.590   0.346   5.293 -0.0863  0.5538 -0.5603
13045TIP3   OH260549   1.906   5.135  14.129 -0.2887 -0.4336  0.1654
13045TIP3    H160550   1.907   5.057  14.073 -0.6697  0.0760 -0.5777
13045TIP3    H260551   1.844   5.194  14.086  0.2529  0.4153  0.5171
13046TIP3   OH260552   0.025   3.178   0.357  0.1596  0.2231  0.1100
13046TIP3    H160553   0.013   3.171   0.451  4.2384  1.0509  0.8656
13046TIP3    H260554   0.047   3.270   0.342  0.6309 -0.1085 -1.4760
13047TIP3   OH260555   0.042   2.218  17.262  0.5061 -0.5444  0.7005
13047TIP3    H160556   0.058   2.311  17.271  2.5218 -0.8246  0.3817
13047TIP3    H260557  -0.029   2.212  17.198  2.1912  0.7223 -1.4264
13048TIP3   OH260558   1.761   3.167   3.288  0.1924  0.1768  0.5353
13048TIP3    H160559   1.683   3.158   3.342 -0.7923  0.4293 -0.7844
13048TIP3    H260560   1.795   3.254   3.306 -0.1238  0.2550  0.7363
13049TIP3   OH260561   3.946   0.269  14.489  0.1878  0.1845  0.0970
13049TIP3    H160562   4.011   0.201  14.507  0.8578  0.9751  0.7690
13049TIP3    H260563   3.862   0.229  14.511  0.6213 -0.2651  0.9824
13050TIP3   OH260564   1.394   2.982   4.704  0.3723 -0.1918  0.4036
13050TIP3    H160565   1.357   3.070   4.709  0.0160 -0.3516  0.5910
13050TIP3    H260566   1.477   2.994   4.658 -0.0083  0.1327 -0.2161
13051TIP3   OH260567   4.823   1.663  12.993 -0.2353 -0.1700 -0.3824
13051TIP3    H160568   4.845   1.683  13.084 -0.3266 -0.7700 -0.2230
13051TIP3    H260569   4.830   1.568  12.988 -1.7415 -0.2824 -0.6046
13052TIP3   OH260570   1.510   3.698  14.744  0.4269 -0.2494  0.4308
13052TIP3    H160571   1.415   3.688  14.741  0.4898 -1.1987  1.1781
13052TIP3    H260572   1.525   3.772  14.802  0.1080  1.2084 -1.2455
13053TIP3   OH260573   1.957   2.726   1.071  0.3869 -0.3408 -0.3507
13053TIP3    H160574   1.892   2.739   1.139  1.4990 -0.3053  0.7473
13053TIP3    H260575   1.980   2.814   1.042  1.5035 -0.2276  0.8117
13054TIP3   OH260576   5.657   5.015  16.932 -0.4643 -0.3298  0.0653
13054TIP3    H160577   5.576   5.040  16.978 -0.7989 -2.3992  0.7258
13054TIP3    H260578   5.714   5.091  16.940 -2.0966  0.9415  0.1664
13055TIP3   OH260579   1.864   4.921  13.937  0.2847 -0.1903 -0.0400
13055TIP3    H160580   1.769   4.930  13.929  0.2977 -1.0524 -1.6420
13055TIP3    H260581   1.899   4.991  13.882  0.5796 -0.1435  0.2025
13056TIP3   OH260582   2.640   0.552  12.550 -0.3690  0.4205  0.1263
13056TIP3    H160583   2.551   0.541  12.584 -0.2625  0.8880  0.5702
13056TIP3    H260584   2.656   0.472  12.499 -0.9837  0.2634  0.1677
13057TIP3   OH260585   5.866   6.577   0.536 -0.2561 -0.2404  0.7668
13057TIP3    H160586   5.902   6.587   0.624 -0.2886  0.2057  0.7294
13057TIP3    H260587   5.905   6.648   0.486  1.7887 -1.9565 -0.2411
13058TIP3   OH260588   5.590   2.424   0.147  0.2746  0.3659  0.2014
13058TIP3    H160589   5.508   2.468   0.125  0.0968  0.9208  1.7942
13058TIP3    H260590   5.654   2.460   0.085 -0.4507  0.7763 -0.3193
13059TIP3   OH260591   4.457   5.671   2.409  0.1112  0.0714  0.1860
13059TIP3    H160592   4.478   5.632   2.324  2.0343 -2.4458  1.6746
13059TIP3    H260593   4.529   5.733   2.425  0.6562 -0.6613  0.6423
13060TIP3   OH260594   5.457   6.158   1.835 -0.2433  0.4135 -0.2595
13060TIP3    H160595   5.435   6.156   1.928  0.8607 -1.2955  0.0072
13060TIP3    H260596   5.522   6.229   1.828 -2.8430  2.9441 -0.4181
13061TIP3   OH260597   4.381   1.744  12.676  0.0237  0.0294  0.2242
13061TIP3    H160598   4.418   1.832  12.678  0.0635  0.0104  1.2513
13061TIP3    H260599   4.329   1.739  12.756  0.3361 -1.0100  0.3785
13062TIP3   OH260600   3.911   6.105  15.773  0.6295  0.5056 -0.3572
13062TIP3    H160601   3.943   6.015  15.763  0.5782  0.5509 -0.9973
13062TIP3    H260602   3.911   6.120  15.867 -0.4366 -0.5721 -0.1460
13063TIP3   OH260603   0.945   6.278  11.227  0.1857  0.0735  0.0693
13063TIP3    H160604   0.914   6.336  11.296 -0.8236 -0.6485  0.2412
13063TIP3    H260605   0.893   6.198  11.237  1.7070 -0.9762  0.0074
13064TIP3   OH260606   2.719   1.672  14.905 -0.8833 -0.3118  0.5207
13064TIP3    H160607   2.810   1.643  14.903 -1.2648 -1.5724 -1.5821
13064TIP3    H260608   2.668   1.592  14.919 -1.7277  0.2239  0.6049
13065TIP3   OH260609   1.075   3.465  13.014  0.2491 -0.5355 -0.1772
13065TIP3    H160610   1.160   3.500  13.041  1.1695 -3.1307  0.5910
13065TIP3    H260611   1.067   3.489  12.922  0.7045  1.6759  0.2809
13066TIP3   OH260612   2.786   4.132  14.842 -0.9242 -0.2472  0.7847
13066TIP3    H160613   2.778   4.194  14.770 -1.4285 -1.1527  0.0355
13066TIP3    H260614   2.872   4.148  14.879  0.4711 -1.4782 -1.6645
13067TIP3   OH260615   0.920   3.353   4.372  0.3465  0.5845 -0.3562
13067TIP3    H160616   0.893   3.262   4.365 -1.6412  1.0512  0.5887
13067TIP3    H260617   0.980   3.366   4.299  1.6450 -1.7802  0.1909
13068TIP3   OH260618   0.968   5.460   1.855 -0.2278  0.1549  0.0558
13068TIP3    H160619   1.006   5.422   1.934  0.4433  1.8785  0.6083
13068TIP3    H260620   1.043   5.501   1.811 -0.9229  0.8686 -0.4728
13069TIP3   OH260621   5.433   1.502   3.476 -0.3877 -0.2823  0.0647
13069TIP3    H160622   5.366   1.568   3.457 -0.5310  0.3753  2.4590
13069TIP3    H260623   5.395   1.419   3.446 -1.7320  0.2679  0.1844
13070TIP3   OH260624   2.689   3.501  13.417 -0.3509  0.5854 -0.7129
13070TIP3    H160625   2.630   3.430  13.394 -0.0226 -0.6531  1.9689
13070TIP3    H260626   2.691   3.502  13.513  1.8680  2.3593 -0.6793
13071TIP3   OH260627   6.553   3.288  15.152  0.0054  0.4366  0.6475
13071TIP3    H160628   6.465   3.314  15.125 -0.3345  1.2729  2.3851
13071TIP3    H260629   6.611   3.340  15.098 -0.5533  0.1176 -0.2893
13072TIP3   OH260630   3.558   1.238  13.624 -0.3568  0.0986 -0.5927
13072TIP3    H160631   3.587   1.326  13.600 -1.2008  0.0631 -1.8283
13072TIP3    H260632   3.529   1.199  13.542 -0.2463 -1.2490 -0.0225
13073TIP3   OH260633   5.885   5.720   5.585 -0.3351 -0.0735 -0.7650
13073TIP3    H160634   5.936   5.690   5.510 -0.7536 -1.9809 -0.3360
13073TIP3    H260635   5.836   5.795   5.552  0.7152  0.1434 -1.9203
13074TIP3   OH260636   2.844   2.390  14.862 -0.0067  0.5345 -0.2620
13074TIP3    H160637   2.892   2.471  14.850  0.6762 -0.0010 -1.2008
13074TIP3    H260638   2.808   2.397  14.951  0.4800  1.6225 -0.1360
13075TIP3   OH260639   0.780   6.444  14.473  0.2069  0.4048  0.0437
13075TIP3    H160640   0.744   6.499  14.403  0.4714  1.8488  0.9825
13075TIP3    H260641   0.874   6.440  14.454  0.0032 -0.9663 -0.8141
13076TIP3   OH260642   0.269   4.234  10.974 -0.3592  0.1310  0.2688
13076TIP3    H160643   0.284   4.325  10.999  0.5606  0.5881 -1.7488
13076TIP3    H260644   0.200   4.238  10.908 -2.6832 -1.0259  2.4347
13077TIP3   OH260645   3.684   2.917  14.507 -0.6954  0.3834 -0.0977
13077TIP3    H160646   3.649   2.979  14.570  0.8864  0.7057  0.4880
13077TIP3    H260647   3.777   2.936  14.502 -0.7706  0.4622 -2.6560
13078TIP3   OH260648   4.698   6.078   0.133  0.0467 -0.2279  0.4730
13078TIP3    H160649   4.739   6.162   0.112  0.1659 -0.6586 -1.1701
13078TIP3    H260650   4.609   6.101   0.161  0.4643  0.5119  1.2393
13079TIP3   OH260651   4.351   6.279   6.740 -0.2331  0.1873  0.3139
13079TIP3    H160652   4.342   6.318   6.653  0.9340 -1.5653 -0.6576
13079TIP3    H260653   4.426   6.220   6.732 -0.0173  0.0598  2.5622
13080TIP3   OH260654   2.282   0.765  12.683 -0.3222  0.8794 -0.5224
13080TIP3    H160655   2.356   0.799  12.733  0.7258 -0.8310 -0.8226
13080TIP3    H260656   2.209   0.767  12.745  0.2048  1.6487  0.0961
13081TIP3   OH260657   1.718   1.295  12.737  0.5953  0.4749  0.2194
13081TIP3    H160658   1.686   1.276  12.825 -2.9399 -1.3776 -1.2459
13081TIP3    H260659   1.729   1.390  12.735  0.9526  0.5498  2.6476
13082TIP3   OH260660   1.820   1.505   5.317  0.0359 -0.6853  0.3182
13082TIP3    H160661   1.914   1.492   5.327 -0.1200 -1.6715  0.5187
13082TIP3    H260662   1.806   1.506   5.223  0.4695  1.2108  0.2277
13083TIP3   OH260663   6.542   0.386  16.641 -0.0713  0.6730  0.3894
13083TIP3    H160664   6.537   0.318  16.708 -1.5567  3.6668  3.6888
13083TIP3    H260665   6.627   0.427  16.655  0.1205  0.5705 -0.4348
13084TIP3   OH260666   5.611   4.002  12.863 -0.3794 -0.3983  0.5401
13084TIP3    H160667   5.577   3.965  12.945  1.0780 -1.0098  0.8986
13084TIP3    H260668   5.670   3.935  12.829 -1.3678 -0.3839 -1.3323
13085TIP3   OH260669   4.480   0.695  15.581  0.2490 -0.6120  0.0496
13085TIP3    H160670   4.572   0.716  15.570  0.1647 -0.3786 -0.2169
13085TIP3    H260671   4.475   0.653  15.667 -0.0259  3.0662  2.0219
13086TIP3   OH260672   3.073   3.323   1.933 -0.0679 -0.1624 -0.1901
13086TIP3    H160673   3.072   3.415   1.960 -2.2201 -0.3256  0.5099
13086TIP3    H260674   2.984   3.307   1.900  0.8092 -1.5260 -2.0255
13087TIP3   OH260675   3.528   5.146  15.928 -0.0564 -0.1829 -0.0615
13087TIP3    H160676   3.442   5.123  15.964  0.3335 -3.1674 -0.7772
13087TIP3    H260677   3.579   5.174  16.003 -1.3101  0.5916  0.5384
13088TIP3   OH260678   4.016   1.193   5.613  0.1793  0.0834  0.3934
13088TIP3    H160679   4.090   1.230   5.661  0.8299 -0.7607  0.0798
13088TIP3    H260680   4.029   1.223   5.523 -0.3338  0.6227  0.4953
13089TIP3   OH260681   6.341   5.181  11.884 -0.0378  1.0565 -0.3052
13089TIP3    H160682   6.259   5.230  11.888 -0.5637  0.1446  0.8048
13089TIP3    H260683   6.367   5.170  11.976  1.1995  1.1280 -0.6332
13090TIP3   OH260684   4.381   1.324  15.265  0.1299  0.2549 -0.4749
13090TIP3    H160685   4.321   1.382  15.219 -0.7582 -0.6328 -0.4710
13090TIP3    H260686   4.342   1.313  15.352 -0.4521 -1.3869 -0.9037
13091TIP3   OH260687   5.189   0.271   3.391  0.0940 -0.0934 -0.6125
13091TIP3    H160688   5.108   0.223   3.408 -0.2824  1.1144  1.3756
13091TIP3    H260689   5.171   0.321   3.312 -0.7835 -0.5344 -0.7023
13092TIP3   OH260690   1.331   3.157   2.465  0.6220  0.5590 -0.7514
13092TIP3    H160691   1.287   3.188   2.386  1.8091  4.1168 -0.1831
13092TIP3    H260692   1.260   3.150   2.530  0.0457  0.2569 -1.4006
13093TIP3   OH260693   4.365   3.551   1.582 -0.4015  0.0101  0.6353
13093TIP3    H160694   4.269   3.548   1.590 -0.4497 -1.0840 -0.2164
13093TIP3    H260695   4.396   3.496   1.654 -0.4516 -0.4894  0.2777
13094TIP3   OH260696   1.668   1.657  11.701 -0.4547 -0.3932  0.2478
13094TIP3    H160697   1.659   1.572  11.742  0.3803 -0.9290 -0.6415
13094TIP3    H260698   1.580   1.695  11.703 -1.1296 -1.8493 -0.5610
13095TIP3   OH260699   1.026   0.993  15.311  0.0552  0.0983 -0.1956
13095TIP3    H160700   1.079   1.007  15.390  0.0960  0.8053 -0.3406
13095TIP3    H260701   1.030   1.077  15.265 -1.1205  0.1333 -0.2632
13096TIP3   OH260702   3.632   1.048  14.922  0.1849 -0.2430 -0.4302
13096TIP3    H160703   3.608   0.980  14.985 -1.2268  0.2122 -0.4486
13096TIP3    H260704   3.615   1.008  14.836 -0.5459  0.0851 -0.4435
13097TIP3   OH260705   5.047   6.732  14.498 -0.0983 -0.0767  0.0444
13097TIP3    H160706   4.985   6.729  14.572  0.4271  0.2842  0.5023
13097TIP3    H260707   5.085   6.644  14.496  1.2185  0.4088  1.3711
13098TIP3   OH260708   4.569   4.373   5.900 -0.0528  0.4678 -0.7557
13098TIP3    H160709   4.631   4.418   5.843 -0.5658 -0.2445 -1.9288
13098TIP3    H260710   4.485   4.380   5.854 -0.3467 -0.7187 -0.4342
13099TIP3   OH260711   6.727   3.384   6.738 -0.3418 -0.1419 -0.5819
13099TIP3    H160712   6.659   3.333   6.693  0.1150 -1.9555  0.6576
13099TIP3    H260713   6.808   3.363   6.691 -0.1084 -0.8241  0.1002
13100TIP3   OH260714   1.099   3.184  14.697 -0.1806 -0.2453  0.2550
13100TIP3    H160715   1.038   3.115  14.671 -1.9805  0.4840  2.2624
13100TIP3    H260716   1.139   3.151  14.778 -0.8895  0.9151  1.1050
13101TIP3   OH260717   2.694   2.804   1.255 -0.3468 -0.3414 -0.3309
13101TIP3    H160718   2.622   2.866   1.250 -0.1599 -0.1210 -0.2818
13101TIP3    H260719   2.669   2.735   1.193 -0.6262 -0.2964 -0.2726
13102TIP3   OH260720   2.694   4.735  12.350 -0.1945  0.5268 -0.3496
13102TIP3    H160721   2.724   4.796  12.417 -0.3351  0.7332 -0.4724
13102TIP3    H260722   2.669   4.656  12.399  0.4782  0.3786 -0.2472
13103TIP3   OH260723   0.066   1.725  15.812 -0.7548  0.3064  0.1491
13103TIP3    H160724   0.070   1.802  15.754 -0.4425 -0.2370 -0.5625
13103TIP3    H260725   0.140   1.736  15.871 -0.8729  0.6956  0.2273
13104TIP3   OH260726   4.808   5.400  13.588  0.2675  0.6457  0.2207
13104TIP3    H160727   4.881   5.340  13.604 -0.7753 -0.4203  1.2547
13104TIP3    H260728   4.820   5.469  13.653  1.6913  1.8568 -1.2249
13105TIP3   OH260729   4.389   5.598   2.861  0.1745 -0.4171 -0.2888
13105TIP3    H160730   4.346   5.637   2.937  1.2737  0.3570 -0.0394
13105TIP3    H260731   4.377   5.504   2.873  1.1623 -0.3888  1.4090
13106TIP3   OH260732   1.222   5.441   3.816  0.2470  0.1148  0.2826
13106TIP3    H160733   1.163   5.386   3.868  1.5616 -1.4884  0.1335
13106TIP3    H260734   1.173   5.523   3.805 -2.1873 -1.2902 -0.2886
13107TIP3   OH260735   4.828   4.090  11.913 -0.3460  0.4408  0.1646
13107TIP3    H160736   4.760   4.026  11.936  0.3226 -0.6763 -0.8608
13107TIP3    H260737   4.846   4.073  11.821 -1.1034  3.0295 -0.5458
13108TIP3   OH260738   3.607   1.071   1.290 -0.6018 -0.6182 -0.6270
13108TIP3    H160739   3.590   1.031   1.375 -1.0264 -0.0010 -0.4144
13108TIP3    H260740   3.699   1.099   1.295 -0.7908 -0.0784 -0.1599
13109TIP3   OH260741   2.678   3.328   0.020 -0.0267  0.1747  0.6347
13109TIP3    H160742   2.684   3.331   0.115 -2.1124 -0.9608  0.8638
13109TIP3    H260743   2.757   3.372  -0.011  0.2305  1.4089  2.8814
13110TIP3   OH260744   3.136   4.049  11.525  0.2744 -0.9935  0.2963
13110TIP3    H160745   3.078   4.121  11.498 -0.4146 -1.4534  0.5349
13110TIP3    H260746   3.162   4.072  11.615 -1.2365 -1.8340  0.9716
13111TIP3   OH260747   2.594   4.944   4.045  0.2152 -0.1696  0.3268
13111TIP3    H160748   2.624   4.875   4.104  0.8827  0.0733  0.2789
13111TIP3    H260749   2.672   4.997   4.027 -0.1973  0.3577  0.0348
13112TIP3   OH260750   6.117   1.872  12.185  0.5041 -0.2914 -0.4359
13112TIP3    H160751   6.129   1.807  12.115  1.8223 -1.2127  0.6002
13112TIP3    H260752   6.140   1.955  12.144  0.5284 -0.7147 -1.3066
13113TIP3   OH260753   2.058   2.047   5.663 -0.2524  0.0045  0.2864
13113TIP3    H160754   2.128   2.072   5.603  0.8338  2.4416  2.3700
13113TIP3    H260755   2.098   1.982   5.721 -0.2810  0.0468  0.3545
13114TIP3   OH260756   6.001   2.387   2.723  0.2511 -0.3766  0.6930
13114TIP3    H160757   6.092   2.414   2.728  0.5219 -1.0473 -0.4442
13114TIP3    H260758   6.002   2.293   2.739  0.0194 -0.7703 -1.3489
13115TIP3   OH260759   1.594   4.490   3.460 -0.1192  0.2788 -0.1118
13115TIP3    H160760   1.610   4.409   3.411  1.1751 -0.4612  1.4366
13115TIP3    H260761   1.681   4.520   3.486 -0.4813  2.7431 -1.4401
13116TIP3   OH260762   0.528   2.452   5.188  0.1381  0.1223 -0.3998
13116TIP3    H160763   0.458   2.390   5.168  0.8808 -1.1149  0.6224
13116TIP3    H260764   0.498   2.499   5.265 -0.3089  0.8596 -1.0138
13117TIP3   OH260765   5.036   5.668   3.034 -0.5727 -0.2441 -0.7790
13117TIP3    H160766   4.950   5.702   3.061 -1.0724 -1.6560 -0.5084
13117TIP3    H260767   5.092   5.683   3.110 -0.7283  0.1362 -0.7349
13118TIP3   OH260768   5.403   1.778   2.216  0.1386 -0.2914 -0.1435
13118TIP3    H160769   5.403   1.821   2.131  0.0609  0.0990  0.0491
13118TIP3    H260770   5.395   1.850   2.279 -1.4987 -0.6917  0.1347
13119TIP3   OH260771   5.203   0.451  15.825  0.3535  0.1666  0.4009
13119TIP3    H160772   5.253   0.397  15.887  0.0013 -0.2041  0.3647
13119TIP3    H260773   5.136   0.392  15.791  0.3669  0.4474 -0.1238
13120TIP3   OH260774   2.289   0.837   2.351 -0.0323 -0.1254 -0.3888
13120TIP3    H160775   2.211   0.790   2.322 -0.4327  0.6608 -0.6305
13120TIP3    H260776   2.358   0.771   2.354 -0.7628 -0.8900  0.0810
13121TIP3   OH260777   4.589   2.716   0.945 -0.1578  0.3649 -0.4304
13121TIP3    H160778   4.614   2.629   0.974 -2.0787 -0.4074 -0.9233
13121TIP3    H260779   4.664   2.771   0.965  0.6672 -1.1829  0.9306
13122TIP3   OH260780   6.359   0.874  13.434  0.0038  0.0185 -0.4458
13122TIP3    H160781   6.399   0.863  13.347  0.7522 -0.3412 -0.0690
13122TIP3    H260782   6.266   0.854  13.421  0.1107 -0.0339 -1.1620
13123TIP3   OH260783   2.332   6.167  13.600 -0.0502 -0.0560 -0.7096
13123TIP3    H160784   2.247   6.212  13.601  0.2564  0.5964  1.4080
13123TIP3    H260785   2.386   6.217  13.661  1.4860 -1.1742 -1.0968
13124TIP3   OH260786   1.018   4.031  14.542 -0.2641 -0.0448 -0.0786
13124TIP3    H160787   1.014   4.072  14.455 -0.1050  2.0194  0.8280
13124TIP3    H260788   1.111   4.015  14.557 -0.3170 -0.6780 -0.3903
13125TIP3   OH260789   4.874   0.398   2.297 -0.0624  0.4608 -0.0288
13125TIP3    H160790   4.949   0.458   2.294  0.1161  0.3406  1.5088
13125TIP3    H260791   4.806   0.442   2.247  0.8182  0.8618 -0.9095
13126TIP3   OH260792   6.286   5.902  16.764 -0.2291 -0.2448 -0.6194
13126TIP3    H160793   6.317   5.817  16.732  1.9793 -0.6444  2.1904
13126TIP3    H260794   6.269   5.887  16.857  0.3829  2.4305 -0.0169
13127TIP3   OH260795   2.702   3.586   2.654 -0.6588  0.3136  0.3767
13127TIP3    H160796   2.624   3.636   2.629  1.0038  3.4932  1.0903
13127TIP3    H260797   2.775   3.636   2.621  1.1945 -1.7337  1.1278
13128TIP3   OH260798   3.735   3.156  12.193 -0.0371 -0.2783  0.4618
13128TIP3    H160799   3.691   3.129  12.273  1.7333 -1.4278  1.1237
13128TIP3    H260800   3.724   3.083  12.133  1.0452 -0.6637  0.6984
13129TIP3   OH260801   4.124   4.570   4.839 -0.0081  0.1842 -0.1713
13129TIP3    H160802   4.034   4.601   4.825 -0.6903 -1.0821  1.0604
13129TIP3    H260803   4.120   4.523   4.923  1.0501 -2.5426 -1.5145
13130TIP3   OH260804   4.375   0.807  17.049  0.1197 -0.3456 -0.1728
13130TIP3    H160805   4.317   0.882  17.035  2.3860  1.2148 -2.1030
13130TIP3    H260806   4.419   0.825  17.132  0.3225  0.2623 -0.4069
13131TIP3   OH260807   0.030   0.059  11.896 -0.1813 -0.2676 -0.1175
13131TIP3    H160808   0.012  -0.031  11.869 -0.2641 -0.8285  1.6851
13131TIP3    H260809   0.125   0.067  11.892 -0.1525 -0.5363  0.0066
13132TIP3   OH260810   3.196   5.732   2.383 -0.3236  0.8504  0.2210
13132TIP3    H160811   3.161   5.699   2.300 -0.6629  0.6409  0.4459
13132TIP3    H260812   3.180   5.826   2.380 -0.0506  0.8896 -0.0868
13133TIP3   OH260813   2.653   0.397  14.985  0.3292 -0.5101 -0.1361
13133TIP3    H160814   2.626   0.446  15.062  0.1603 -0.4421 -0.2366
13133TIP3    H260815   2.747   0.386  14.994  0.6413  1.2371 -0.9122
13134TIP3   OH260816   0.995   4.320   1.253 -0.5488 -0.1618 -0.5333
13134TIP3    H160817   1.003   4.383   1.180 -1.4094  0.5989  0.0001
13134TIP3    H260818   1.071   4.338   1.308 -0.2973 -0.2213 -0.8564
13135TIP3   OH260819   5.611   0.294   1.472  0.1976  0.4398  0.0315
13135TIP3    H160820   5.600   0.332   1.559  1.3546  2.8273 -0.7821
13135TIP3    H260821   5.529   0.315   1.427 -0.1775 -0.3127  0.3368
13136TIP3   OH260822   3.582   2.285   2.429  0.4369  0.1159 -0.1227
13136TIP3    H160823   3.519   2.255   2.494 -0.9673  1.9283 -0.5737
13136TIP3    H260824   3.651   2.327   2.480  0.7100 -0.8155  0.3035
13137TIP3   OH260825   3.739   5.510  12.236 -0.6826  0.4522  0.2701
13137TIP3    H160826   3.740   5.602  12.211 -2.5615  0.8231  1.3997
13137TIP3    H260827   3.693   5.466  12.165 -0.3462  0.4855  0.0315
13138TIP3   OH260828   3.763   5.850   6.703 -0.3903  0.3371 -0.0417
13138TIP3    H160829   3.819   5.794   6.757 -0.2140 -0.3058 -0.8670
13138TIP3    H260830   3.733   5.919   6.762 -0.5652 -0.5950  0.9936
13139TIP3   OH260831   1.908   6.681   0.651 -0.2766 -0.0888 -0.4039
13139TIP3    H160832   1.845   6.635   0.596  0.3029 -2.7857  0.9975
13139TIP3    H260833   1.874   6.669   0.740  0.5895  1.1646  0.1193
13140TIP3   OH260834   4.314   4.655   3.227  0.1180  0.0446 -0.3440
13140TIP3    H160835   4.404   4.665   3.196 -0.6033 -0.0545 -2.6790
13140TIP3    H260836   4.282   4.577   3.184 -2.0453  1.8109 -2.2060
13141TIP3   OH260837   2.159   1.876  13.517 -0.3848  0.0339 -0.3273
13141TIP3    H160838   2.161   1.780  13.523  1.3752  0.0986  0.5615
13141TIP3    H260839   2.111   1.904  13.595 -0.5672 -0.1034 -0.3899
13142TIP3   OH260840   4.529   5.066   1.911 -0.0260 -0.2790 -0.5157
13142TIP3    H160841   4.578   5.097   1.835 -1.5129 -1.1187 -1.8756
13142TIP3    H260842   4.520   4.972   1.897 -1.2815 -0.2809  0.1312
13143TIP3   OH260843   4.236   3.357  16.156  0.2171  0.0152  0.4539
13143TIP3    H160844   4.280   3.429  16.202 -1.8623  2.0581 -0.5509
13143TIP3    H260845   4.267   3.365  16.066  0.5553 -0.8855  0.4808
13144TIP3   OH260846   1.441   3.930   3.266 -0.4100 -0.2172 -0.1618
13144TIP3    H160847   1.435   3.904   3.358 -2.0337 -1.1931 -0.4992
13144TIP3    H260848   1.377   4.001   3.257 -0.1508 -0.0258 -0.5114
13145TIP3   OH260849   2.120   0.743  12.946 -0.3437  0.1722  0.2347
13145TIP3    H160850   2.101   0.827  12.988 -1.4853 -0.0505  0.1951
13145TIP3    H260851   2.196   0.709  12.993 -0.8985  0.4583  1.3791
13146TIP3   OH260852   4.670   5.742   0.679  0.8179  0.2955 -0.2746
13146TIP3    H160853   4.678   5.733   0.584 -0.2194 -0.7748 -0.2789
13146TIP3    H260854   4.660   5.836   0.694 -0.3784  0.3569 -1.3374
13147TIP3   OH260855   6.692   5.047   1.129  0.5091 -0.0453 -0.3486
13147TIP3    H160856   6.628   5.030   1.060  0.7262 -0.8527 -0.3567
13147TIP3    H260857   6.639   5.062   1.208  0.2605  0.9081 -0.6789
13148TIP3   OH260858   0.938   4.446   2.479 -0.2100  0.1149  0.4645
13148TIP3    H160859   0.996   4.370   2.480  0.7475  0.7941  2.5235
13148TIP3    H260860   0.893   4.443   2.564  1.5230  2.9927  1.6240
13149TIP3   OH260861   0.651   3.806   4.373 -0.3060  0.0583 -0.3174
13149TIP3    H160862   0.558   3.791   4.359 -0.4891 -0.5263  1.3458
13149TIP3    H260863   0.655   3.882   4.432  0.2400 -0.1627 -0.0599
13150TIP3   OH260864   3.071   0.969   3.731 -0.4824  0.0283 -0.3711
13150TIP3    H160865   3.156   0.944   3.766 -0.6955  0.2609  0.3477
13150TIP3    H260866   3.087   0.986   3.638  0.3528  0.5145 -0.1523
13151TIP3   OH260867   4.998   4.353   3.877 -0.2521  0.0602 -0.8956
13151TIP3    H160868   5.071   4.292   3.890  0.9202  1.5875  0.1027
13151TIP3    H260869   5.018   4.396   3.793 -0.6545 -0.3458 -1.2054
13152TIP3   OH260870   0.707   3.418  16.687 -0.1868 -0.2279  0.4296
13152TIP3    H160871   0.791   3.443  16.725 -0.2230 -0.1062  0.4282
13152TIP3    H260872   0.668   3.500  16.657  0.3003 -0.4108 -0.8055
13153TIP3   OH260873   5.814   2.829  13.027  0.6035  0.3587 -0.4264
13153TIP3    H160874   5.886   2.775  12.992  0.1892  0.5354 -1.6043
13153TIP3    H260875   5.740   2.809  12.970 -0.4205 -0.1128  0.9976
13154TIP3   OH260876   3.463   4.845  12.097  0.9240  0.2912 -0.4180
13154TIP3    H160877   3.473   4.940  12.104 -1.8412  0.8338 -2.2176
13154TIP3    H260878   3.369   4.830  12.105  1.4919 -2.7474  3.1141
13155TIP3   OH260879   2.700   5.075   5.874  0.7359  0.1759  0.1332
13155TIP3    H160880   2.773   5.017   5.853  0.3224 -0.1907 -0.3231
13155TIP3    H260881   2.658   5.035   5.950  0.8940  0.2819  0.2767
13156TIP3   OH260882   1.356   3.478  12.753 -0.0877 -0.2749 -0.3347
13156TIP3    H160883   1.318   3.394  12.778 -0.2133  0.0741  0.7136
13156TIP3    H260884   1.373   3.522  12.836  1.3243  0.1549 -0.8147
13157TIP3   OH260885   1.531   4.445   4.938  0.1748  0.6241  0.4835
13157TIP3    H160886   1.465   4.512   4.956  0.1218  0.8452 -0.4521
13157TIP3    H260887   1.612   4.494   4.927  0.5613  0.3270  1.9051
13158TIP3   OH260888   4.684   0.269   3.647  0.1522 -0.1410  0.0421
13158TIP3    H160889   4.648   0.187   3.613  0.0887  0.3156 -1.0378
13158TIP3    H260890   4.705   0.251   3.739  0.0968 -1.3447 -0.1764
13159TIP3   OH260891   1.262   1.025  15.490 -0.3049 -0.4708 -0.3920
13159TIP3    H160892   1.292   1.087  15.423  1.0795 -1.2251 -0.5045
13159TIP3    H260893   1.207   1.078  15.548  0.4404  0.7535 -0.7607
13160TIP3   OH260894   1.287   6.227   1.596  0.5159  0.0984  0.1244
13160TIP3    H160895   1.342   6.237   1.673 -0.0616  2.6526  0.2803
13160TIP3    H260896   1.197   6.236   1.628 -0.2461 -4.3728 -0.0537
13161TIP3   OH260897   4.189   6.024  16.138  0.1365 -0.0137 -0.1933
13161TIP3    H160898   4.226   5.985  16.217 -0.0278 -0.9626 -0.5708
13161TIP3    H260899   4.242   6.103  16.124 -0.0308  0.3430  1.0256
13162TIP3   OH260900   1.321   3.133  12.270 -0.0247 -0.0264  0.1729
13162TIP3    H160901   1.374   3.060  12.238 -0.2854 -0.0129 -0.3005
13162TIP3    H260902   1.250   3.091  12.319  0.2143 -0.0577  0.4996
13163TIP3   OH260903   4.356   1.686  14.382  0.2586 -0.0002 -0.3154
13163TIP3    H160904   4.445   1.663  14.407  0.5811  0.9618 -0.5456
13163TIP3    H260905   4.313   1.602  14.365  0.4338 -0.6148  2.0299
13164TIP3   OH260906   0.861   0.908   3.951  0.2059 -0.1936  0.0161
13164TIP3    H160907   0.909   0.989   3.937  0.4350 -0.5667 -1.4960
13164TIP3    H260908   0.814   0.922   4.033 -0.0282  1.6010 -0.3891
13165TIP3   OH260909   1.074   2.966   4.580 -0.2631  0.1228 -0.3493
13165TIP3    H160910   0.999   2.927   4.625 -0.1754 -0.7014 -0.8783
13165TIP3    H260911   1.137   2.894   4.572 -0.5644  0.0386 -2.3865
13166TIP3   OH260912   5.451   5.714   1.470 -0.2246  0.0118  0.5807
13166TIP3    H160913   5.526   5.756   1.513 -0.0601  1.7911 -1.2602
13166TIP3    H260914   5.484   5.629   1.442  1.4241  1.0561 -0.8594
13167TIP3   OH260915   6.209   3.791   1.081 -0.2372  0.6621 -0.3969
13167TIP3    H160916   6.304   3.781   1.091 -0.3342 -0.0364 -0.0546
13167TIP3    H260917   6.183   3.847   1.154 -0.3510 -0.8679  0.7996
13168TIP3   OH260918   1.545   6.442  14.029 -0.1914  0.1064  0.1475
13168TIP3    H160919   1.570   6.523  13.984  0.6618  0.9445  2.0080
13168TIP3    H260920   1.606   6.376  13.998  1.5477  1.0899  1.3192
13169TIP3   OH260921   2.601   1.405  13.738 -0.3147  0.6870 -0.5506
13169TIP3    H160922   2.647   1.322  13.750 -0.3895  0.4815 -1.5949
13169TIP3    H260923   2.595   1.442  13.826 -0.9868 -0.7844  0.0599
13170TIP3   OH260924   0.718   2.222   2.125 -0.6676 -0.5131 -0.5006
13170TIP3    H160925   0.698   2.267   2.043  1.3870  2.9641  0.6987
13170TIP3    H260926   0.715   2.290   2.192  3.3417 -1.8736  1.4221
13171TIP3   OH260927   4.275   1.819   4.652 -0.0460 -0.4491  0.8515
13171TIP3    H160928   4.188   1.805   4.691 -0.5488 -0.9587 -0.3873
13171TIP3    H260929   4.256   1.844   4.562  1.1193 -2.1877  0.0739
13172TIP3   OH260930   4.338   1.288  16.177  0.0105 -0.1919  0.1663
13172TIP3    H160931   4.311   1.374  16.146  0.0326  0.3498  1.6034
13172TIP3    H260932   4.283   1.226  16.128 -0.7916  0.6858 -0.0618
13173TIP3   OH260933   3.507   5.316  14.326 -0.3398 -0.1934  0.1989
13173TIP3    H160934   3.528   5.276  14.242  0.8971  1.3822 -0.2841
13173TIP3    H260935   3.556   5.264  14.390 -0.2208 -0.5735 -0.1955
13174TIP3   OH260936   6.450   4.118  16.121 -0.0267 -0.5341  0.3509
13174TIP3    H160937   6.443   4.046  16.059 -1.4298 -1.0836  1.1237
13174TIP3    H260938   6.389   4.097  16.191 -1.9393  2.2786 -0.2837
13175TIP3   OH260939   0.708   1.480  11.985  0.1289 -0.8333  0.0335
13175TIP3    H160940   0.771   1.468  12.056 -0.9978 -0.1243  1.2005
13175TIP3    H260941   0.640   1.414  12.002 -0.1724 -0.6310 -0.3612
13176TIP3   OH260942   5.288   0.870  14.478  0.2333  0.5461 -0.1949
13176TIP3    H160943   5.227   0.906  14.542 -0.4704 -0.3242 -0.3599
13176TIP3    H260944   5.232   0.827  14.413  1.0291 -0.5394 -0.1787
13177TIP3   OH260945   4.085   5.148  11.591 -0.1880  0.4929  0.1400
13177TIP3    H160946   4.031   5.169  11.514  0.1797  0.1703 -0.2091
13177TIP3    H260947   4.129   5.231  11.612  0.0002  0.4880 -0.2287
13178TIP3   OH260948   3.422   5.642   2.060 -0.0041  0.2347 -0.2625
13178TIP3    H160949   3.446   5.654   1.968  1.8686  1.1101  0.3004
13178TIP3    H260950   3.341   5.693   2.070  0.4757  1.2143 -1.1368
13179TIP3   OH260951   2.510   3.163   4.388  0.1668  0.4128  0.4949
13179TIP3    H160952   2.453   3.122   4.453 -0.8802  0.5346 -0.3060
13179TIP3    H260953   2.596   3.167   4.429  0.0327 -1.5265  1.0249
13180TIP3   OH260954   2.562   3.087   2.768  0.1246 -0.3469  0.1082
13180TIP3    H160955   2.478   3.073   2.812 -0.3244 -1.5060 -1.0531
13180TIP3    H260956   2.613   3.138   2.830 -0.3084 -2.2479  2.1620
13181TIP3   OH260957   5.267   2.187   6.117  0.1966  0.3197 -0.3162
13181TIP3    H160958   5.229   2.198   6.204  1.4816  0.3476  0.2567
13181TIP3    H260959   5.220   2.112   6.080  0.2575 -0.2765  0.7631
13182TIP3   OH260960   1.838   1.146   0.670 -0.3673  0.7903  0.1063
13182TIP3    H160961   1.931   1.163   0.655  0.0399 -0.5537  0.8584
13182TIP3    H260962   1.824   1.171   0.762 -0.7758  1.0733 -0.0301
13183TIP3   OH260963   6.082   4.357   2.795  0.4330  0.1462 -0.0540
13183TIP3    H160964   6.096   4.417   2.722 -0.2653  0.7367  0.2856
13183TIP3    H260965   6.113   4.272   2.762  3.4528  1.0437  0.1736
13184TIP3   OH260966   0.435   4.895  11.512  0.0825 -0.3899 -0.6015
13184TIP3    H160967   0.463   4.943  11.590  1.1585 -0.6495 -0.8129
13184TIP3    H260968   0.516   4.868  11.470 -0.4530  0.6981 -2.4402
13185TIP3   OH260969   2.281   0.726   1.948 -0.0996 -0.3622 -0.0171
13185TIP3    H160970   2.262   0.701   2.038 -0.4983 -0.3824 -0.1056
13185TIP3    H260971   2.246   0.654   1.895 -0.5034 -0.0116 -0.2260
13186TIP3   OH260972   5.205   1.264  14.068 -0.7186 -0.0920 -0.4186
13186TIP3    H160973   5.275   1.284  14.007  0.6538 -2.0999  0.3908
13186TIP3    H260974   5.152   1.199  14.023 -1.5240  0.6901 -0.6350
13187TIP3   OH260975   2.216   0.337   1.405  0.6683 -0.1564  0.5005
13187TIP3    H160976   2.172   0.259   1.439  0.8696  0.5954  2.6832
13187TIP3    H260977   2.146   0.388   1.365  0.6701 -1.7805 -1.7339
13188TIP3   OH260978   2.481   4.910  12.701 -0.3960  0.0412  0.3661
13188TIP3    H160979   2.450   4.994  12.734 -0.7584 -0.1654  0.5625
13188TIP3    H260980   2.401   4.867  12.670  0.0864  0.8955 -2.3248
13189TIP3   OH260981   4.704   5.103   1.299  0.7678  0.3825  0.3797
13189TIP3    H160982   4.772   5.062   1.353  1.1567  0.8355  0.2459
13189TIP3    H260983   4.656   5.030   1.261  2.4090 -0.0291 -1.0732
13190TIP3   OH260984   6.628   6.484  14.033  0.0983 -0.1020 -0.4277
13190TIP3    H160985   6.692   6.427  13.990 -1.2465 -1.4171 -0.7464
13190TIP3    H260986   6.613   6.554  13.969  1.3623  0.3696 -0.2511
13191TIP3   OH260987   2.205   6.162  11.216 -0.5755  0.3345 -0.0435
13191TIP3    H160988   2.166   6.158  11.304  0.5836 -1.0494  0.4411
13191TIP3    H260989   2.186   6.251  11.186 -1.3388  0.7128  1.4394
13192TIP3   OH260990   1.570   0.404   5.478 -0.4702 -0.5150  0.6225
13192TIP3    H160991   1.618   0.323   5.465 -0.0435  0.0687 -2.0009
13192TIP3    H260992   1.570   0.446   5.392 -1.1751  1.9965  1.7566
13193TIP3   OH260993   3.792   1.338   3.679 -0.1708 -0.6862  0.0646
13193TIP3    H160994   3.873   1.287   3.688  0.0101 -0.1357  1.9519
13193TIP3    H260995   3.811   1.421   3.724 -0.7940  0.6774 -2.0394
13194TIP3   OH260996   3.854   5.725  12.075 -0.0705 -0.4940 -0.5081
13194TIP3    H160997   3.809   5.788  12.018 -0.7786 -0.3136  0.2311
13194TIP3    H260998   3.941   5.715  12.036 -0.5712 -0.4556 -1.6785
13195TIP3   OH260999   3.871   3.874   5.937  0.6979 -0.1817 -0.6941
13195TIP3    H161000   3.955   3.835   5.959  0.2055 -0.0922  1.6055
13195TIP3    H261001   3.892   3.945   5.876  2.3396  0.1444  0.2074
13196TIP3   OH261002   0.147   1.369   4.346 -0.1099 -0.4190  0.2145
13196TIP3    H161003   0.112   1.340   4.262 -0.6000 -1.0080  0.6202
13196TIP3    H261004   0.186   1.290   4.384 -1.1194 -0.4825  1.1553
13197TIP3   OH261005   2.524   3.406   5.327  0.6290 -0.0194 -0.3018
13197TIP3    H161006   2.475   3.414   5.246 -0.7188 -1.6230  0.2907
13197TIP3    H261007   2.588   3.337   5.310 -0.8207 -1.6309  0.4609
13198TIP3   OH261008   4.107   1.931   5.799  0.3553  0.1268  0.5388
13198TIP3    H161009   4.068   1.996   5.857 -0.8293 -1.5910  1.7959
13198TIP3    H261010   4.034   1.898   5.747  1.4040  1.6924 -2.1408
13199TIP3   OH261011   4.651   3.161   3.194 -0.5395 -0.0082 -0.0182
13199TIP3    H161012   4.705   3.230   3.232 -0.6367  0.2100 -0.2663
13199TIP3    H261013   4.561   3.194   3.202 -0.6391 -0.3784  0.4158
13200TIP3   OH261014   4.756   5.690   2.892 -0.3069 -0.2089 -0.3019
13200TIP3    H161015   4.740   5.627   2.962  1.8605 -2.0514 -1.3141
13200TIP3    H261016   4.724   5.774   2.927 -0.3449 -1.2530  2.4165
13201TIP3   OH261017   1.666   6.641   6.731 -0.0436  0.9382  0.3484
13201TIP3    H161018   1.709   6.570   6.780  1.3033  2.0855  0.9284
13201TIP3    H261019   1.738   6.686   6.687 -1.1746  0.2364 -2.3723
13202TIP3   OH261020   2.727   2.904  15.425  0.2137  0.4352  0.1361
13202TIP3    H161021   2.685   2.960  15.491  0.4066  0.3403  0.3392
13202TIP3    H261022   2.654   2.869  15.374  0.1087  1.1565 -0.2197
13203TIP3   OH261023   4.883   1.029   2.456  0.2266  0.1254  0.0355
13203TIP3    H161024   4.895   1.124   2.464  0.4153  0.1498 -0.5257
13203TIP3    H261025   4.910   1.009   2.367  1.2839 -0.6328  0.5057
13204TIP3   OH261026   3.674   5.506   3.532  0.2885 -0.3625  0.7853
13204TIP3    H161027   3.694   5.494   3.625  0.8169 -0.9226  0.6049
13204TIP3    H261028   3.581   5.482   3.524  0.4336 -1.0307  1.0443
13205TIP3   OH261029   6.324   5.059  16.937 -0.4791 -0.0163 -0.2018
13205TIP3    H161030   6.420   5.054  16.937 -0.4733 -0.4308 -1.7167
13205TIP3    H261031   6.302   5.108  17.017  1.0440  1.0037 -0.3664
13206TIP3   OH261032   3.805   6.497  15.640  0.8613 -0.0708  0.1841
13206TIP3    H161033   3.838   6.569  15.586  0.7881  0.9384  1.4237
13206TIP3    H261034   3.710   6.501  15.629  0.8854 -0.2529 -0.0859
13207TIP3   OH261035   1.601   6.205  13.304 -0.1131 -0.2789  0.2429
13207TIP3    H161036   1.679   6.160  13.336 -0.2630  0.0767  1.1606
13207TIP3    H261037   1.572   6.153  13.229  1.7005  0.2969 -0.9022
13208TIP3   OH261038   0.222   2.381   5.325 -0.3584 -1.1667 -0.2776
13208TIP3    H161039   0.200   2.451   5.387  0.1827 -1.0602 -0.2039
13208TIP3    H261040   0.178   2.406   5.244  0.3438 -0.4218 -0.4310
13209TIP3   OH261041   6.234   0.513   3.109  0.5003 -0.6379  0.1570
13209TIP3    H161042   6.324   0.530   3.137  0.7391 -1.1331 -0.3006
13209TIP3    H261043   6.225   0.562   3.027 -0.9667  2.8913  2.1591
13210TIP3   OH261044   5.218   4.566   4.272  0.1466  0.0706  0.1055
13210TIP3    H161045   5.256   4.480   4.254 -2.4548 -1.8561  2.7403
13210TIP3    H261046   5.278   4.606   4.335 -0.5919 -1.7179  2.0718
13211TIP3   OH261047   4.920   0.622  13.269 -0.4065 -0.0028 -0.6401
13211TIP3    H161048   4.901   0.528  13.272 -0.1868 -0.0228  0.3851
13211TIP3    H261049   4.844   0.660  13.226 -1.1086 -0.5033  0.1271
13212TIP3   OH261050   2.933   2.578   2.342 -0.1420  0.0903  0.3435
13212TIP3    H161051   2.860   2.599   2.283 -0.2681 -0.3595  0.3290
13212TIP3    H261052   3.011   2.581   2.286 -0.4166 -1.7861 -0.2199
13213TIP3   OH261053   6.086   5.858  15.525  0.4461  0.1913 -0.2022
13213TIP3    H161054   6.004   5.830  15.485  0.1976  1.6178 -0.7555
13213TIP3    H261055   6.149   5.789  15.502 -0.4861 -0.7041 -0.1228
13214TIP3   OH261056   2.729   6.122   6.706 -0.1528  0.5257 -0.1905
13214TIP3    H161057   2.666   6.181   6.747 -0.0913  0.7380 -0.4016
13214TIP3    H261058   2.788   6.179   6.657  2.5566  0.7163  2.9895
13215TIP3   OH261059   2.533   4.720  14.448 -0.7020  0.2559 -0.1703
13215TIP3    H161060   2.505   4.753  14.533 -1.1044 -0.1100 -0.1550
13215TIP3    H261061   2.551   4.627  14.463  0.5152  0.4704 -0.1841
13216TIP3   OH261062   1.620   4.213  16.640 -0.2816 -0.0641  0.1367
13216TIP3    H161063   1.696   4.177  16.595  1.5439  1.4436  1.8353
13216TIP3    H261064   1.562   4.137  16.654  0.3673 -1.0599 -2.0978
13217TIP3   OH261065   0.474   5.091   0.388  0.0952 -0.4468 -0.1921
13217TIP3    H161066   0.485   5.186   0.394  0.1593 -0.3681 -1.2468
13217TIP3    H261067   0.382   5.076   0.407  0.1059 -0.1792  0.0773
13218TIP3   OH261068   0.585   2.945  14.232 -0.1933  0.1621 -0.0052
13218TIP3    H161069   0.657   2.910  14.178 -0.8227  1.7389 -1.9804
13218TIP3    H261070   0.541   3.008  14.175 -3.2412 -0.8040  1.1042
13219TIP3   OH261071   6.257   3.368   1.034 -0.0519 -0.0230  0.1396
13219TIP3    H161072   6.278   3.442   0.977 -1.0318  1.4913  1.6479
13219TIP3    H261073   6.259   3.292   0.976  1.8971  1.0267 -1.2791
13220TIP3   OH261074   5.344   1.189  12.508  0.6704  0.5581  0.2480
13220TIP3    H161075   5.283   1.215  12.578  0.9245 -1.7249  1.3814
13220TIP3    H261076   5.296   1.124  12.457  1.3331  0.4941 -0.3116
13221TIP3   OH261077   2.496   2.147   5.175  0.9363 -0.1639  0.5746
13221TIP3    H161078   2.468   2.076   5.118 -0.2870  1.2269 -0.6409
13221TIP3    H261079   2.548   2.205   5.118 -0.6708  1.4813  0.6893
13222TIP3   OH261080   4.388   6.117   5.304  0.1296 -0.3892  0.0787
13222TIP3    H161081   4.336   6.081   5.232  0.7163 -0.1377 -0.4764
13222TIP3    H261082   4.478   6.115   5.273  0.2257  1.2799  0.1259
13223TIP3   OH261083   1.874   2.849   4.688 -0.1967  0.1801  0.0651
13223TIP3    H161084   1.818   2.924   4.710 -0.6594  0.1027 -0.7945
13223TIP3    H261085   1.954   2.889   4.652 -0.6622  0.2677 -0.9014
13224TIP3   OH261086   2.523   6.481  15.856  0.4428  0.1336  0.1822
13224TIP3    H161087   2.561   6.528  15.783 -0.1938 -0.6022 -0.6471
13224TIP3    H261088   2.596   6.435  15.897  0.8018  0.5454  0.0025
13225TIP3   OH261089   2.075   4.520  15.995 -0.0549 -0.5054 -0.0179
13225TIP3    H161090   1.984   4.497  15.977 -0.2911  0.1253  0.3281
13225TIP3    H261091   2.124   4.440  15.978 -0.6324 -0.7542 -0.5426
13226TIP3   OH261092   0.604   0.793   4.487  0.3543  0.0439 -0.2389
13226TIP3    H161093   0.696   0.774   4.508  0.1069  1.0687  1.9932
13226TIP3    H261094   0.570   0.709   4.456  1.9850 -0.4006 -0.9634
13227TIP3   OH261095   1.085   6.246   4.652  0.0961  0.0437 -0.0405
13227TIP3    H161096   1.142   6.265   4.727  1.0077 -1.8162 -0.1867
13227TIP3    H261097   1.105   6.315   4.588  2.1494 -0.4638 -0.0321
13228TIP3   OH261098   6.147   4.857  15.611 -0.2722 -0.3940 -0.1421
13228TIP3    H161099   6.095   4.905  15.676 -0.7842  0.6997 -1.3027
13228TIP3    H261100   6.109   4.883  15.527  0.5742 -1.5239 -0.9020
13229TIP3   OH261101   0.773   4.579  10.780  0.3158 -1.0966 -0.3565
13229TIP3    H161102   0.706   4.645  10.798  1.5994  0.3974 -0.7599
13229TIP3    H261103   0.814   4.562  10.865  0.8758 -0.3174 -0.4566
13230TIP3   OH261104   5.724   5.172  14.428  0.2506 -0.2108  0.0242
13230TIP3    H161105   5.744   5.101  14.489  0.5171 -0.1275  0.0358
13230TIP3    H261106   5.696   5.127  14.348 -0.6346 -0.3116  0.3847
13231TIP3   OH261107   5.008   1.206   5.927  0.4325 -0.3933 -0.3305
13231TIP3    H161108   5.005   1.276   5.861  1.0159 -0.1694 -0.1298
13231TIP3    H261109   5.034   1.251   6.008 -1.2639 -0.4835  0.3093
13232TIP3   OH261110   3.896   1.876   0.712  0.3517  0.3605 -0.3849
13232TIP3    H161111   3.964   1.882   0.779 -0.0129  1.8101 -0.1071
13232TIP3    H261112   3.832   1.814   0.748 -0.2645  1.7457  1.0558
13233TIP3   OH261113   3.502   1.479   3.777 -0.1177  0.4113  0.4499
13233TIP3    H161114   3.508   1.502   3.684  0.4492 -0.5503  0.2337
13233TIP3    H261115   3.584   1.512   3.815 -1.2491  2.7363  1.0954
13234TIP3   OH261116   3.073   2.422  11.489  0.7268 -0.6029 -0.3489
13234TIP3    H161117   3.114   2.418  11.403  2.0066 -0.1964  0.2171
13234TIP3    H261118   3.003   2.487  11.479  0.7225 -0.7194 -1.1261
13235TIP3   OH261119   0.309   5.441   3.105 -0.3219 -0.2442 -0.0233
13235TIP3    H161120   0.227   5.486   3.125 -0.0115  2.4070 -3.6481
13235TIP3    H261121   0.374   5.511   3.102  1.5269 -1.8807  0.0785
13236TIP3   OH261122   4.548   3.844   4.141 -0.3444  0.3491 -0.9643
13236TIP3    H161123   4.518   3.752   4.141 -3.6992  1.2938  0.2318
13236TIP3    H261124   4.609   3.849   4.214 -3.1395 -0.2316  1.6156
13237TIP3   OH261125   0.193   2.909  11.817 -0.1017  0.0466 -0.0233
13237TIP3    H161126   0.160   2.975  11.878 -0.0563 -0.0503  0.1056
13237TIP3    H261127   0.270   2.951  11.777  0.2593 -0.1357  0.4658
13238TIP3   OH261128   3.597   6.221  15.537 -0.0263  0.2111  0.9097
13238TIP3    H161129   3.524   6.255  15.486 -0.0412  1.3398  1.6495
13238TIP3    H261130   3.576   6.244  15.627  1.0399  0.1926  1.1753
13239TIP3   OH261131   0.813   3.702  13.683 -0.4211 -0.5239 -0.0978
13239TIP3    H161132   0.896   3.680  13.724  0.1884  0.5693 -0.7193
13239TIP3    H261133   0.804   3.637  13.613  1.0293  0.6627 -1.4660
13240TIP3   OH261134   3.931   0.615  10.897 -0.4014  0.0595 -0.0948
13240TIP3    H161135   3.967   0.681  10.837 -0.6451  0.6238  0.3671
13240TIP3    H261136   3.986   0.538  10.884 -0.4360  0.1796 -1.0260
13241TIP3   OH261137   4.582   2.943   2.921 -0.6116 -0.1005  0.2143
13241TIP3    H161138   4.636   2.918   2.846 -1.8006 -0.7928 -0.4478
13241TIP3    H261139   4.593   3.037   2.928  0.9105 -0.2489  0.3037
13242TIP3   OH261140   2.847   5.604   3.252  0.2349  1.1883  0.2554
13242TIP3    H161141   2.790   5.533   3.219 -1.1819  2.2555  0.3011
13242TIP3    H261142   2.820   5.615   3.343  1.6332  0.6829  0.7546
13243TIP3   OH261143   5.227   2.729  11.513 -0.3124  0.0541  0.4826
13243TIP3    H161144   5.227   2.767  11.601  1.0649 -0.2497  0.6405
13243TIP3    H261145   5.308   2.761  11.473 -1.1571  0.5742 -0.8659
13244TIP3   OH261146   1.574   6.587   3.796  0.2045 -0.1073  0.0661
13244TIP3    H161147   1.669   6.592   3.802  0.1597 -0.6949  1.7601
13244TIP3    H261148   1.554   6.494   3.805 -0.5820  0.1315  0.9696
13245TIP3   OH261149   6.684   1.963  17.230  0.5662  0.1960  0.3145
13245TIP3    H161150   6.762   2.004  17.268  0.0714  0.7013  0.8052
13245TIP3    H261151   6.611   2.007  17.272 -0.0082  0.5361 -0.9745
13246TIP3   OH261152   0.513   3.601   1.552  0.0646  0.3670 -0.0392
13246TIP3    H161153   0.569   3.585   1.476  1.2930  0.8936  0.7373
13246TIP3    H261154   0.492   3.694   1.547 -1.3439  0.0494 -0.6960
13247TIP3   OH261155   4.762   6.389  15.593  0.3341  0.1564  0.1890
13247TIP3    H161156   4.790   6.329  15.661  1.1198  0.3841  0.0674
13247TIP3    H261157   4.765   6.337  15.512  0.8499  0.3128  0.1084
13248TIP3   OH261158   3.566   4.999   4.486 -0.0283 -0.3976  0.3306
13248TIP3    H161159   3.514   5.048   4.423 -1.0554  1.0171  2.1562
13248TIP3    H261160   3.589   4.918   4.441 -1.6700  0.0400 -1.4301
13249TIP3   OH261161   3.411   3.885  10.871 -0.0951 -0.3606 -0.0512
13249TIP3    H161162   3.461   3.806  10.888 -0.3016 -0.7013 -0.9830
13249TIP3    H261163   3.333   3.855  10.824 -0.2291  0.3784 -0.3169
13250TIP3   OH261164   6.575   1.436   0.262  0.2824 -0.6825 -0.1611
13250TIP3    H161165   6.667   1.449   0.283 -0.1321  1.6414  0.4880
13250TIP3    H261166   6.530   1.508   0.306 -1.8174 -1.5801 -0.7219
13251TIP3   OH261167   5.887   0.340   0.954 -0.2443  0.1106  0.1053
13251TIP3    H161168   5.808   0.346   0.900 -1.5667 -1.7723  1.6641
13251TIP3    H261169   5.885   0.418   1.009  0.7136  1.6547 -1.9065
13252TIP3   OH261170   6.343   6.734   4.109  0.3701 -0.0129  0.6233
13252TIP3    H161171   6.255   6.701   4.130  1.2444 -2.2112  1.0278
13252TIP3    H261172   6.385   6.664   4.060  1.2498  1.8190 -1.4346
13253TIP3   OH261173   0.026   4.713  11.744 -0.7174 -0.1396  0.0385
13253TIP3    H161174   0.035   4.658  11.666 -0.0333 -0.8975  0.6287
13253TIP3    H261175   0.057   4.657  11.816  0.4133  1.1658  0.5996
13254TIP3   OH261176   6.435   4.164   4.234 -0.1124 -0.2982  0.2767
13254TIP3    H161177   6.364   4.215   4.194  0.0764 -0.0267  0.2836
13254TIP3    H261178   6.399   4.076   4.244  0.1324 -0.6013 -1.3151
13255TIP3   OH261179   0.559   3.097   4.345  0.4494 -0.3532 -0.0615
13255TIP3    H161180   0.473   3.062   4.325  0.5964 -0.7833  0.0558
13255TIP3    H261181   0.543   3.189   4.368 -0.0043 -0.4928  0.1954
13256TIP3   OH261182   2.831   2.754   1.628  0.1580  0.2425  0.4239
13256TIP3    H161183   2.790   2.675   1.592  0.9876 -0.7530  1.5717
13256TIP3    H261184   2.864   2.801   1.552 -1.0646 -0.0983 -0.3389
13257TIP3   OH261185   1.538   2.480   2.451 -0.2851 -0.1206  0.4128
13257TIP3    H161186   1.559   2.400   2.404 -0.1156  0.4552 -0.5335
13257TIP3    H261187   1.540   2.548   2.383  0.3740  0.8075  1.3340
13258TIP3   OH261188   3.834   1.174   0.923  0.0725 -0.5729 -0.0920
13258TIP3    H161189   3.801   1.263   0.920  0.9087 -0.2492 -0.0440
13258TIP3    H261190   3.924   1.180   0.891  1.0199 -0.9700  2.2440
13259TIP3   OH261191   4.632   4.032  14.419 -0.7850 -0.0076  0.3643
13259TIP3    H161192   4.716   4.051  14.460 -0.3693 -0.3168 -0.3323
13259TIP3    H261193   4.572   4.017  14.493 -0.1534 -0.1406  0.8564
13260TIP3   OH261194   4.912   5.649   0.079 -0.1373  0.3270  0.2078
13260TIP3    H161195   4.960   5.649  -0.004 -0.3879 -1.5220  0.0162
13260TIP3    H261196   4.842   5.584   0.066 -0.8636  0.8278  1.4863
13261TIP3   OH261197   2.135   1.788   6.340 -0.3762  0.1886  0.2515
13261TIP3    H161198   2.066   1.764   6.278  0.5745 -0.3341 -0.6342
13261TIP3    H261199   2.151   1.881   6.323 -0.1782  0.0683 -0.2381
13262TIP3   OH261200   4.049   3.857   3.470 -0.8278  0.0462  0.3589
13262TIP3    H161201   4.024   3.944   3.502  1.2222  1.3089 -1.2047
13262TIP3    H261202   3.982   3.835   3.405 -0.0252  1.6490 -1.0674
13263TIP3   OH261203   1.860   5.886   3.472  0.0405 -0.1683  0.2130
13263TIP3    H161204   1.913   5.933   3.536 -1.7511  0.4253  1.3386
13263TIP3    H261205   1.821   5.954   3.417  1.0870 -0.6425 -1.1865
13264TIP3   OH261206   6.353   5.242   4.642  0.0238 -0.5205  0.7559
13264TIP3    H161207   6.419   5.223   4.575  0.7123 -0.2950  1.3614
13264TIP3    H261208   6.270   5.216   4.601  0.4129 -0.2821 -0.2287
13265TIP3   OH261209   5.133   6.358   5.588 -0.1389 -0.6927  0.4114
13265TIP3    H161210   5.225   6.353   5.612 -0.3932 -1.0001  1.3473
13265TIP3    H261211   5.120   6.449   5.560  0.1762 -0.3446  1.3856
13266TIP3   OH261212   2.202   3.708  14.959  0.4942  0.3769 -0.0807
13266TIP3    H161213   2.251   3.710  14.876  2.3665 -0.4786  0.9293
13266TIP3    H261214   2.152   3.789  14.960  0.3119  0.3347 -2.1046
13267TIP3   OH261215   4.989   0.659  16.160 -0.0764  0.0021  0.9165
13267TIP3    H161216   4.992   0.738  16.214 -1.2850 -0.0333  1.0732
13267TIP3    H261217   4.897   0.633  16.162 -0.4575  0.7757 -2.2822
13268TIP3   OH261218   0.896   3.467   1.181 -0.0284 -0.3029 -0.4781
13268TIP3    H161219   0.911   3.553   1.220  0.2837  0.7500 -2.7461
13268TIP3    H261220   0.875   3.410   1.255 -0.4520  1.7560  1.0746
13269TIP3   OH261221   5.244   4.171   1.907 -0.2382  0.5872  0.8111
13269TIP3    H161222   5.215   4.210   1.824  2.0123  1.6429  0.4251
13269TIP3    H261223   5.200   4.223   1.974 -0.0228  1.4891  0.2742
13270TIP3   OH261224   1.988   4.162  11.119  0.4135  0.0226 -0.5151
13270TIP3    H161225   2.049   4.088  11.115 -0.6922 -0.8960 -0.8436
13270TIP3    H261226   1.986   4.196  11.030  1.3842  0.8569 -0.2356
13271TIP3   OH261227   3.277   3.834  15.537 -0.2329 -0.0553  0.1898
13271TIP3    H161228   3.248   3.900  15.600 -2.1625 -2.2143  1.6790
13271TIP3    H261229   3.350   3.790  15.580  1.0954  1.0271 -0.8326
13272TIP3   OH261230   0.389   0.582  12.104 -0.2703  0.5246  0.3542
13272TIP3    H161231   0.308   0.609  12.061  0.3807 -0.2671 -1.5053
13272TIP3    H261232   0.456   0.641  12.068  0.1446  0.5362  1.1223
13273TIP3   OH261233   0.932   1.212  13.818 -0.2536  0.1048 -0.0607
13273TIP3    H161234   0.858   1.204  13.758  0.0512  1.1657 -0.5963
13273TIP3    H261235   0.896   1.254  13.896  0.2214  3.0065 -1.2796
13274TIP3   OH261236   4.797   5.598   0.381  0.2895 -0.7395  0.2872
13274TIP3    H161237   4.888   5.577   0.363  0.8739 -0.1327  2.3300
13274TIP3    H261238   4.797   5.691   0.404 -1.0158 -0.4897 -0.5701
13275TIP3   OH261239   4.507   5.176   5.386  0.0494  0.0762 -0.1472
13275TIP3    H161240   4.600   5.179   5.362  0.2414 -1.5917  0.2537
13275TIP3    H261241   4.479   5.088   5.360 -1.3194  0.4189  0.1192
13276TIP3   OH261242   6.075   5.292   1.040 -0.6232 -0.0003 -0.2025
13276TIP3    H161243   6.018   5.320   1.112  1.0791  2.5694  0.2644
13276TIP3    H261244   6.051   5.201   1.025 -1.8874 -0.2828  2.8172
13277TIP3   OH261245   2.604   0.263   0.062 -0.6634  0.7244  0.0781
13277TIP3    H161246   2.624   0.173   0.089 -1.1010  0.6465  0.1403
13277TIP3    H261247   2.690   0.301   0.043 -0.4339  0.4559  0.5506
13278TIP3   OH261248   1.867   4.520   1.726 -0.4033 -0.2941 -0.0261
13278TIP3    H161249   1.933   4.579   1.762  0.9128 -1.9037  0.3588
13278TIP3    H261250   1.824   4.482   1.803 -1.6473  0.5769 -0.2757
13279TIP3   OH261251   1.302   0.915   1.172 -0.0917 -0.2165 -0.1095
13279TIP3    H161252   1.206   0.913   1.172 -0.2291  1.7925 -2.2810
13279TIP3    H261253   1.326   0.948   1.258 -1.2996 -1.4758  0.7309
13280TIP3   OH261254   5.165   5.182   2.616 -0.0902  0.1790  0.5864
13280TIP3    H161255   5.197   5.219   2.534 -0.4373  0.4305  0.5609
13280TIP3    H261256   5.080   5.144   2.594  0.4535 -1.0405  0.5151
13281TIP3   OH261257   2.838   5.877   5.273 -0.1873  0.6586  0.5356
13281TIP3    H161258   2.810   5.922   5.352  1.1326  1.1562  0.7330
13281TIP3    H261259   2.909   5.931   5.238 -0.5021  0.2467 -0.7835
13282TIP3   OH261260   5.861   5.693  12.523 -0.3414  0.1438 -0.2262
13282TIP3    H161261   5.806   5.759  12.564 -0.7381 -0.2476 -0.1220
13282TIP3    H261262   5.884   5.633  12.593 -1.0093 -0.5174 -0.5570
13283TIP3   OH261263   5.003   1.819   5.054  0.2782  0.3751 -0.2739
13283TIP3    H161264   4.936   1.792   4.991 -0.3023  0.5112  0.2731
13283TIP3    H261265   5.081   1.833   5.002  0.1396 -0.7069 -0.8089
13284TIP3   OH261266   3.095   5.934  15.851 -0.1915  0.2586  0.4619
13284TIP3    H161267   3.128   5.900  15.934  0.6557 -0.6598 -0.2362
13284TIP3    H261268   3.019   5.879  15.831  0.2859 -0.2671  0.0729
13285TIP3   OH261269   0.159   4.962  17.203 -0.3101  0.6733 -0.0284
13285TIP3    H161270   0.223   4.965  17.132  0.5567 -2.0778  0.4903
13285TIP3    H261271   0.198   4.901  17.267 -2.1203  1.2248  1.7073
13286TIP3   OH261272   2.347   0.670   3.120  0.9317 -0.0041 -0.7930
13286TIP3    H161273   2.390   0.604   3.175  0.0821  1.1878  1.4246
13286TIP3    H261274   2.282   0.620   3.070  0.7315 -0.9911  0.3785
13287TIP3   OH261275   5.977   2.992   2.744 -0.2287  0.6365  0.4979
13287TIP3    H161276   5.971   2.972   2.837  2.4558 -0.1022  0.5959
13287TIP3    H261277   5.952   3.084   2.738  0.1267  0.8659  2.0409
13288TIP3   OH261278   2.697   0.756  15.158  0.2877 -0.0173 -0.0148
13288TIP3    H161279   2.653   0.671  15.163 -0.5058  0.4344  1.1045
13288TIP3    H261280   2.676   0.788  15.070 -1.8308  0.2555  0.5274
13289TIP3   OH261281   2.975   2.122   0.210 -0.0981  0.4099  0.5073
13289TIP3    H161282   2.919   2.181   0.160  0.4970  0.7180  0.2094
13289TIP3    H261283   3.039   2.178   0.253  1.2892 -0.0958 -0.8046
13290TIP3   OH261284   3.750   4.037   2.339  0.6122  0.4807 -0.1321
13290TIP3    H161285   3.689   3.968   2.365  1.0108  0.3873  0.5736
13290TIP3    H261286   3.835   3.992   2.331  0.8643  0.8713  0.2848
13291TIP3   OH261287   0.085   0.570  10.785 -0.3248 -0.7757  0.2961
13291TIP3    H161288   0.106   0.477  10.794 -0.8529 -0.9406 -0.1149
13291TIP3    H261289   0.162   0.615  10.818  0.7409 -1.3599 -1.2520
13292TIP3   OH261290   0.530   0.952  15.740  0.3360  0.0958  0.0084
13292TIP3    H161291   0.465   1.009  15.781  1.8572 -0.0938  2.8737
13292TIP3    H261292   0.490   0.865  15.740 -0.3075  0.3815 -0.4659
13293TIP3   OH261293   1.014   6.568  11.649  0.0294 -0.2030  0.6297
13293TIP3    H161294   1.101   6.532  11.663  0.2306  0.1456  0.2835
13293TIP3    H261295   0.965   6.496  11.609 -0.2131 -0.8195  1.9557
13294TIP3   OH261296   3.122   1.188  17.022 -0.3359 -0.2822 -0.0531
13294TIP3    H161297   3.085   1.258  16.969 -0.2576  0.3922  0.7585
13294TIP3    H261298   3.051   1.125  17.031  0.3640 -1.6305 -2.9594
13295TIP3   OH261299   3.730   0.574   3.670 -0.0292  0.2795  0.0356
13295TIP3    H161300   3.681   0.534   3.742 -1.7344  2.0275 -0.0606
13295TIP3    H261301   3.801   0.621   3.713  0.1446 -0.2918  0.3921
13296TIP3   OH261302   1.190   5.268   3.596  0.0506  0.1659  0.0626
13296TIP3    H161303   1.198   5.326   3.672 -1.7655 -0.5120  0.8496
13296TIP3    H261304   1.110   5.298   3.552 -0.0006 -0.6961 -0.4490
13297TIP3   OH261305   3.594   5.094   2.500  0.4045 -0.2252  0.0788
13297TIP3    H161306   3.586   5.073   2.408  1.0901 -0.0852 -0.0183
13297TIP3    H261307   3.583   5.011   2.546 -1.7119 -0.0543 -0.0003
13298TIP3   OH261308   1.337   2.591  13.798 -0.3930 -0.5256  0.3079
13298TIP3    H161309   1.295   2.675  13.783 -2.0154 -1.0464  1.6392
13298TIP3    H261310   1.430   2.607  13.780 -0.6884  1.4730  0.3444
13299TIP3   OH261311   0.623   6.056   1.319 -0.4126  0.7426  0.3057
13299TIP3    H161312   0.657   6.074   1.231  1.4279  0.2265  0.8591
13299TIP3    H261313   0.619   6.142   1.361  0.2912  0.8082  0.2454
13300TIP3   OH261314   3.883   3.024  13.387  0.4621 -0.3966  0.1410
13300TIP3    H161315   3.907   2.932  13.380  1.9955 -0.2286  2.0876
13300TIP3    H261316   3.793   3.029  13.354  0.5312 -2.4872 -0.4534
13301TIP3   OH261317   6.406   5.835  11.845 -0.0892  0.2249 -0.1903
13301TIP3    H161318   6.453   5.919  11.847 -1.0602  0.8325 -1.4609
13301TIP3    H261319   6.458   5.781  11.786  0.8757 -0.3284  1.0980
13302TIP3   OH261320   2.984   5.524  11.100 -0.0511 -0.6669 -0.0280
13302TIP3    H161321   3.033   5.489  11.025  0.5369  0.3446 -0.1243
13302TIP3    H261322   2.979   5.450  11.161  1.6876 -0.7908  0.0272
13303TIP3   OH261323   5.206   5.183   1.850 -0.0123 -0.1895 -0.1302
13303TIP3    H161324   5.192   5.090   1.832  0.1572 -0.2227 -0.0964
13303TIP3    H261325   5.163   5.229   1.779 -0.7280 -0.2725  0.2365
13304TIP3   OH261326   1.290   1.997  15.269  0.0474  0.6668 -0.2386
13304TIP3    H161327   1.214   1.942  15.288 -0.5339  0.9596 -1.5644
13304TIP3    H261328   1.289   2.065  15.336 -0.0778 -0.0973  0.5377
13305TIP3   OH261329   1.289   0.076  15.480  0.6450 -0.0512  0.4531
13305TIP3    H161330   1.197   0.054  15.470  0.4433  0.6696  0.6938
13305TIP3    H261331   1.314   0.118  15.398  0.7352 -0.1524  0.4273
13306TIP3   OH261332   0.224   5.087   3.014 -0.4122  0.1713  0.5133
13306TIP3    H161333   0.219   5.011   2.957  0.6880  0.1214  0.4670
13306TIP3    H261334   0.281   5.148   2.967  1.8255 -0.4780  2.2043
13307TIP3   OH261335   2.619   3.983   0.520  0.4237  0.4468  0.0692
13307TIP3    H161336   2.546   4.024   0.566  0.8882  1.8853 -0.4435
13307TIP3    H261337   2.609   3.889   0.538 -2.1994  0.4717 -0.9071
13308TIP3   OH261338   4.955   1.439  15.524 -1.1644 -0.4271  0.4006
13308TIP3    H161339   4.925   1.354  15.493 -2.4120 -0.1157  0.6652
13308TIP3    H261340   4.894   1.461  15.595 -2.7242  1.9378 -1.4941
13309TIP3   OH261341   6.073   6.410   1.368  0.0184  0.0843  0.1421
13309TIP3    H161342   6.085   6.500   1.336  0.1713 -0.0544 -0.1921
13309TIP3    H261343   6.154   6.390   1.414  2.2778 -1.6484 -3.9862
13310TIP3   OH261344   6.538   6.267  15.268 -0.3499 -0.3831 -0.0181
13310TIP3    H161345   6.569   6.315  15.345 -0.9165 -0.1656  0.0740
13310TIP3    H261346   6.474   6.204  15.302  1.0309 -1.8502 -0.0112
13311TIP3   OH261347   0.291   1.766  15.525  0.0917 -0.0299  0.0717
13311TIP3    H161348   0.255   1.821  15.594  0.0047 -0.1966  0.1593
13311TIP3    H261349   0.222   1.765  15.458 -0.5113 -1.1848  0.6789
13312TIP3   OH261350   4.059   5.913  11.689 -0.1577  0.3299 -0.0413
13312TIP3    H161351   4.053   5.910  11.593 -1.3341  0.4073  0.0133
13312TIP3    H261352   4.045   6.005  11.711 -1.7730  0.0266  0.2918
13313TIP3   OH261353   2.653   0.461  14.721 -0.7961 -0.3557 -0.4207
13313TIP3    H161354   2.646   0.451  14.816  0.8021 -0.4368 -0.2808
13313TIP3    H261355   2.569   0.498  14.694 -0.6810  1.2002  1.2298
13314TIP3   OH261356   0.843   6.725   6.059  0.2506  0.0015 -0.4968
13314TIP3    H161357   0.854   6.685   6.145  0.4038  1.4818  0.1910
13314TIP3    H261358   0.850   6.651   5.998 -1.8263 -1.4121  0.8139
13315TIP3   OH261359   5.462   4.062  15.017 -0.1106  0.3365  0.3838
13315TIP3    H161360   5.515   4.051  15.096 -0.3215 -1.7106  0.2881
13315TIP3    H261361   5.458   3.975  14.978  1.2697  1.4982 -2.7602
13316TIP3   OH261362   1.561   5.163   2.137  0.0506  0.3948  0.5380
13316TIP3    H161363   1.650   5.193   2.156  0.1448 -0.0187  0.7629
13316TIP3    H261364   1.568   5.068   2.132 -0.3098  0.3832  0.1770
13317TIP3   OH261365   1.215   1.850  15.694 -0.6637 -0.3585 -0.0900
13317TIP3    H161366   1.281   1.784  15.713 -1.0145 -0.1564  2.0433
13317TIP3    H261367   1.178   1.824  15.609  0.7099 -1.6146 -0.3374
13318TIP3   OH261368   2.496   2.093  15.341  0.6341  0.2536 -0.2019
13318TIP3    H161369   2.468   2.019  15.395  1.0491  0.0524 -0.2549
13318TIP3    H261370   2.561   2.056  15.282  0.6781  0.6151 -0.3833
13319TIP3   OH261371   0.185   6.384   3.390 -0.1484 -0.2716  0.4372
13319TIP3    H161372   0.129   6.399   3.314 -0.6574 -0.1840  0.8239
13319TIP3    H261373   0.126   6.395   3.465  0.3530 -0.3384  0.8410
13320TIP3   OH261374   3.981   6.111   3.592 -0.1895 -0.4011 -0.1400
13320TIP3    H161375   3.942   6.186   3.548 -0.0952  0.0002  0.4463
13320TIP3    H261376   3.906   6.058   3.620 -0.2745 -0.2635 -0.1059
13321TIP3   OH261377   5.463   1.584  14.499 -0.0987 -0.4478 -0.1757
13321TIP3    H161378   5.437   1.496  14.527  0.2048 -0.5562 -0.2276
13321TIP3    H261379   5.556   1.589  14.519 -0.3123  0.2115  0.7223
13322TIP3   OH261380   0.468   4.155   3.416 -0.3698  0.1863 -0.7484
13322TIP3    H161381   0.455   4.142   3.322  0.1579  0.8362 -0.9207
13322TIP3    H261382   0.563   4.148   3.428 -0.1940  2.3503 -0.6353
13323TIP3   OH261383   1.918   0.415  12.149  0.7308  0.0187  0.4217
13323TIP3    H161384   1.895   0.502  12.115  0.3642  0.7756  2.4879
13323TIP3    H261385   1.836   0.366  12.146  0.4714  0.4048  1.1370
13324TIP3   OH261386   1.484   5.147  15.427 -0.7791 -0.3571  0.1637
13324TIP3    H161387   1.419   5.089  15.390  1.3970 -3.2425  0.5172
13324TIP3    H261388   1.443   5.180  15.508 -2.7614  0.1613 -0.9909
13325TIP3   OH261389   6.647   6.260  11.134 -0.0199 -0.5352 -0.3134
13325TIP3    H161390   6.674   6.183  11.082 -0.2281 -0.9322  0.1591
13325TIP3    H261391   6.573   6.229  11.186 -0.3872  0.1139 -0.4383
13326TIP3   OH261392   0.857   2.785  13.153 -0.4518 -0.2063 -0.1145
13326TIP3    H161393   0.885   2.725  13.223 -0.8320 -1.0411 -0.6633
13326TIP3    H261394   0.908   2.865  13.168  1.3145 -1.2378 -0.3571
13327TIP3   OH261395   3.698   2.537  12.357 -0.2110 -0.2302 -0.0853
13327TIP3    H161396   3.753   2.562  12.283  1.2070 -0.6640  0.7702
13327TIP3    H261397   3.724   2.447  12.377  0.7071  0.4219  1.9700
13328TIP3   OH261398   4.207   4.303  14.373 -0.0439 -0.2731 -0.5556
13328TIP3    H161399   4.242   4.256  14.449 -0.0109 -1.8301 -1.4636
13328TIP3    H261400   4.128   4.345  14.404  0.2985 -0.3674  0.4842
13329TIP3   OH261401   2.902   1.279   2.816 -0.3485  0.4517 -0.3773
13329TIP3    H161402   2.866   1.298   2.902  0.2759 -0.4433  0.0896
13329TIP3    H261403   2.870   1.191   2.796 -0.0939  0.4654 -0.8541
13330TIP3   OH261404   0.141   4.543  11.952  0.0301  0.2352  0.2951
13330TIP3    H161405   0.064   4.503  11.992 -0.1351 -0.5769 -0.7830
13330TIP3    H261406   0.194   4.573  12.025 -0.9304  0.0812  1.0740
13331TIP3   OH261407   2.704   6.624  13.259  0.0166  0.3437 -0.3433
13331TIP3    H161408   2.763   6.565  13.306 -1.8851 -1.1361  0.2961
13331TIP3    H261409   2.759   6.661  13.189  1.9429 -0.2032  0.7895
13332TIP3   OH261410   1.957   3.177   2.414 -0.0631  0.2163  0.1051
13332TIP3    H161411   2.034   3.170   2.470  0.3308 -0.5706 -0.5146
13332TIP3    H261412   1.883   3.163   2.474  0.1829  2.0220  0.9015
13333TIP3   OH261413   3.581   3.858   4.136  0.0625  0.0136 -0.2100
13333TIP3    H161414   3.524   3.811   4.197  0.8134  1.1368  1.4275
13333TIP3    H261415   3.636   3.790   4.097 -0.7905 -0.7861 -0.0600
13334TIP3   OH261416   1.076   0.898  17.346 -0.2552  0.3252 -0.4979
13334TIP3    H161417   0.991   0.860  17.370 -0.4047  0.2004 -1.1998
13334TIP3    H261418   1.057   0.953  17.271  0.3419  0.0295 -0.8748
13335TIP3   OH261419   3.477   5.337  16.820 -0.0714  0.0838  0.3560
13335TIP3    H161420   3.534   5.402  16.861 -1.4866  0.4127  1.9094
13335TIP3    H261421   3.486   5.259  16.875  0.6911 -0.6795 -0.8002
13336TIP3   OH261422   1.564   6.161  11.865  0.0948  0.0020  0.0914
13336TIP3    H161423   1.572   6.065  11.862 -1.6571 -0.2609  1.7459
13336TIP3    H261424   1.559   6.181  11.958  2.1007  1.9262 -0.1484
13337TIP3   OH261425   1.422   6.274   5.722  0.2756  0.0948  0.1512
13337TIP3    H161426   1.349   6.323   5.761  0.7023 -0.2588  1.4523
13337TIP3    H261427   1.405   6.183   5.746  1.0379 -0.0126  0.3136
13338TIP3   OH261428   0.280   3.482   1.632 -0.3989  0.2638 -0.0977
13338TIP3    H161429   0.371   3.509   1.622 -0.5009 -0.0496 -2.5533
13338TIP3    H261430   0.273   3.453   1.723  1.7468  0.9646  0.3450
13339TIP3   OH261431   6.243   5.870   4.227 -0.0490 -0.4724 -0.2828
13339TIP3    H161432   6.215   5.891   4.317  1.9639 -0.7784  0.4745
13339TIP3    H261433   6.228   5.776   4.219 -0.6004 -0.3758 -0.4180
13340TIP3   OH261434   0.252   2.921  13.768 -0.2838 -0.2547 -0.0425
13340TIP3    H161435   0.272   2.916  13.674  0.7664 -1.0331  0.2128
13340TIP3    H261436   0.284   3.007  13.794 -1.6842  0.4849 -0.6269
13341TIP3   OH261437   0.309   1.537  14.053  0.0430 -0.1626  0.3064
13341TIP3    H161438   0.218   1.551  14.026  0.1129 -0.0035  0.1561
13341TIP3    H261439   0.311   1.446  14.082  0.0656 -0.4600 -0.5959
13342TIP3   OH261440   1.029   0.255  16.477 -0.5218 -0.1331  0.7363
13342TIP3    H161441   0.980   0.248  16.395  0.1148  0.2670  0.3047
13342TIP3    H261442   1.103   0.195  16.465  1.8367  2.7457 -0.6930
13343TIP3   OH261443   1.652   6.425   2.281  0.1192  0.1314  0.0471
13343TIP3    H161444   1.556   6.426   2.278  0.1401  0.1379 -2.0638
13343TIP3    H261445   1.673   6.450   2.371 -1.8605 -0.7798  0.8346
13344TIP3   OH261446   0.840   5.007  15.375 -0.1581 -0.2112  0.0285
13344TIP3    H161447   0.784   4.987  15.300  0.3262  0.9151 -0.6534
13344TIP3    H261448   0.870   4.921  15.405 -0.8709 -0.7209 -0.6559
13345TIP3   OH261449   2.728   6.210   0.180 -0.1749 -0.0434 -0.2813
13345TIP3    H161450   2.814   6.182   0.150  0.6729  0.8010  1.2309
13345TIP3    H261451   2.666   6.151   0.135  1.1930 -0.9053 -1.1040
13346TIP3   OH261452   5.577   2.880   4.512  0.0403  0.2104 -0.0664
13346TIP3    H161453   5.551   2.955   4.565 -1.8540  0.4704 -1.2526
13346TIP3    H261454   5.494   2.838   4.488  1.0556 -3.7472  2.5195
13347TIP3   OH261455   0.126   2.716  14.538 -0.1446  0.0735 -0.7772
13347TIP3    H161456   0.099   2.808  14.540  3.1809  1.2608  3.0539
13347TIP3    H261457   0.053   2.668  14.578 -0.5704  1.6210  0.4098
13348TIP3   OH261458   1.983   0.655  14.722  0.1851  0.2369  0.0386
13348TIP3    H161459   1.926   0.720  14.681 -0.7052  0.5876  1.7114
13348TIP3    H261460   2.029   0.614  14.650  0.1670  2.1563 -1.1401
13349TIP3   OH261461   5.211   4.316  14.573 -0.0010 -0.1647  0.1360
13349TIP3    H161462   5.265   4.378  14.622  0.6071 -0.6761  0.1233
13349TIP3    H261463   5.135   4.300  14.629  0.6628 -0.7027  0.8977
13350TIP3   OH261464   5.507   2.809  16.133 -0.0914  0.0840  0.3403
13350TIP3    H161465   5.431   2.862  16.157  0.2036  0.9314 -0.5168
13350TIP3    H261466   5.568   2.821  16.205 -0.6557 -0.3756  0.9021
13351TIP3   OH261467   1.385   6.491  16.393  0.6563 -0.1436  0.4159
13351TIP3    H161468   1.315   6.533  16.444 -0.9421 -1.3014 -0.7067
13351TIP3    H261469   1.343   6.416  16.352  2.5134 -0.7087 -0.5734
13352TIP3   OH261470   6.108   2.269   5.018  0.3417 -0.0294  0.4094
13352TIP3    H161471   6.087   2.271   5.111 -0.7148  0.7757  0.1687
13352TIP3    H261472   6.189   2.320   5.010  0.1236  0.3832  0.8119
13353TIP3   OH261473   4.923   1.678   0.571 -0.2818  0.5812  0.2209
13353TIP3    H161474   4.958   1.765   0.552  0.5697  0.3076  0.5227
13353TIP3    H261475   4.998   1.627   0.600 -0.5325 -0.6115 -1.1060
13354TIP3   OH261476   4.886   3.368  15.250 -0.5998  0.3579 -0.5059
13354TIP3    H161477   4.921   3.279  15.256 -0.7503  0.3069 -0.3813
13354TIP3    H261478   4.926   3.404  15.170 -2.6690 -0.7833 -2.1537
13355TIP3   OH261479   4.892   3.156  12.140  0.3725  0.1558 -1.0782
13355TIP3    H161480   4.797   3.147  12.135  0.3855 -0.6408 -0.1681
13355TIP3    H261481   4.925   3.104  12.067  0.0994  1.1374 -1.9293
13356TIP3   OH261482   6.317   0.985   6.044  0.0047  0.9025 -0.6189
13356TIP3    H161483   6.372   1.059   6.019  0.3067  0.5257 -1.0894
13356TIP3    H261484   6.306   0.994   6.139 -1.1002  2.3113 -0.8443
13357TIP3   OH261485   1.994   1.110  11.300 -0.6847 -0.3521  0.1593
13357TIP3    H161486   1.999   1.194  11.347  0.2549  0.1371 -0.7677
13357TIP3    H261487   1.946   1.131  11.220  2.9576  0.3792 -2.1007
13358TIP3   OH261488   2.930   2.686   6.024  0.2500 -0.1762  0.7266
13358TIP3    H161489   2.907   2.759   6.081 -2.1491 -0.3206  0.0511
13358TIP3    H261490   2.875   2.613   6.054  1.3846 -1.2273  0.3449
13359TIP3   OH261491   4.117   0.103  12.561  0.1305  0.0026  0.0398
13359TIP3    H161492   4.102   0.009  12.559 -0.4924  0.0924  0.4210
13359TIP3    H261493   4.031   0.142  12.577  0.5218  0.5884  0.8132
13360TIP3   OH261494   0.849   3.957  14.733 -0.0512  0.0067  0.5742
13360TIP3    H161495   0.906   3.978  14.659  0.2802  0.3151  0.9172
13360TIP3    H261496   0.839   3.862  14.729  2.4099 -0.3904  1.8897
13361TIP3   OH261497   2.252   1.729   1.043  0.3508 -0.5092  0.3820
13361TIP3    H161498   2.201   1.658   1.081 -1.3725  0.4398 -0.0783
13361TIP3    H261499   2.318   1.749   1.109 -0.4701 -1.1222  1.4049
13362TIP3   OH261500   6.451   5.476   0.440  0.1596  0.1208  0.3464
13362TIP3    H161501   6.533   5.522   0.461 -0.6976  2.1363 -0.4267
13362TIP3    H261502   6.474   5.383   0.444  2.2237  0.5998  1.1352
13363TIP3   OH261503   2.801   2.400  11.201  0.6604 -0.1703 -0.5874
13363TIP3    H161504   2.823   2.397  11.108 -2.2082 -3.5387 -1.3963
13363TIP3    H261505   2.866   2.342  11.242  0.8359 -0.1065 -0.7687
13364TIP3   OH261506   6.252   3.851  12.544 -0.3502 -0.2014  0.3158
13364TIP3    H161507   6.331   3.835  12.493 -1.1744 -0.4694 -0.9245
13364TIP3    H261508   6.284   3.879  12.630  1.0790  0.1033 -0.2843
13365TIP3   OH261509   1.945   6.605  14.480  0.4292 -0.2447 -0.0795
13365TIP3    H161510   1.928   6.695  14.506  3.2356  0.3164  0.1170
13365TIP3    H261511   1.946   6.607  14.384  0.6471 -0.0038 -0.0751
13366TIP3   OH261512   4.664   3.257   1.414  0.0586 -0.2438 -0.2709
13366TIP3    H161513   4.583   3.257   1.465  0.2841  0.4634  0.1079
13366TIP3    H261514   4.686   3.164   1.403 -0.4616 -0.4230  0.1685
13367TIP3   OH261515   6.345   5.600   3.031  0.0962 -0.4864  0.3500
13367TIP3    H161516   6.296   5.555   2.962 -1.2211  0.7963  0.3812
13367TIP3    H261517   6.298   5.578   3.112  0.0245  0.1461  0.4852
13368TIP3   OH261518   6.644   0.703  12.022  0.0130  0.3614 -0.2530
13368TIP3    H161519   6.671   0.795  12.011  1.4567  0.3322  2.1823
13368TIP3    H261520   6.584   0.704  12.097  0.9944 -0.7745  0.5956
13369TIP3   OH261521   1.787   0.536   4.749 -0.6219  0.6039  0.1817
13369TIP3    H161522   1.752   0.572   4.668  0.1914 -0.6867 -0.7954
13369TIP3    H261523   1.882   0.539   4.737 -0.5041  0.0062  0.9005
13370TIP3   OH261524   3.314   2.415   5.143  0.2329 -0.0375 -0.2532
13370TIP3    H161525   3.297   2.458   5.227  1.6226  0.8056 -0.3770
13370TIP3    H261526   3.255   2.459   5.082 -1.6125 -1.4109  0.4288
13371TIP3   OH261527   0.269   6.668   5.505 -0.1196  0.2722 -0.1318
13371TIP3    H161528   0.335   6.656   5.574  0.5235 -1.5048 -0.9750
13371TIP3    H261529   0.199   6.608   5.530 -0.4121  0.4984 -0.4157
13372TIP3   OH261530   5.080   3.907   2.355  0.3989  0.2945 -0.4027
13372TIP3    H161531   5.172   3.929   2.341  1.3031 -2.5208  0.4212
13372TIP3    H261532   5.073   3.815   2.329 -2.2358  0.4269 -0.4816
13373TIP3   OH261533   6.584   6.352   1.636  0.1305  0.0777 -0.1156
13373TIP3    H161534   6.615   6.273   1.591 -0.7576 -0.3938  0.0789
13373TIP3    H261535   6.597   6.333   1.729  0.1969  0.2926 -0.0798
13374TIP3   OH261536   2.797   1.669   1.411  0.0359  0.6386 -0.4606
13374TIP3    H161537   2.766   1.667   1.321  0.7884  1.3697 -0.7501
13374TIP3    H261538   2.744   1.737   1.453 -0.1287  0.4880 -0.4244
13375TIP3   OH261539   3.468   0.782  15.783  0.4102 -0.0621  0.5125
13375TIP3    H161540   3.536   0.716  15.797 -0.4410 -0.9267  0.7154
13375TIP3    H261541   3.492   0.824  15.700  0.2756 -1.5562 -0.3341
13376TIP3   OH261542   1.972   0.218  11.471  0.4448  0.0027  0.2520
13376TIP3    H161543   1.976   0.158  11.546  0.7662 -0.6147 -0.2450
13376TIP3    H261544   1.879   0.233  11.457  0.3044 -1.2251 -0.2650
13377TIP3   OH261545   2.726   5.558  15.395  0.0193  0.0236  0.1294
13377TIP3    H161546   2.644   5.591  15.358  1.5852  1.7789 -2.0553
13377TIP3    H261547   2.764   5.504  15.325  1.0692 -0.1885  0.8370
13378TIP3   OH261548   4.466   3.862  16.030 -0.5339  0.0889 -0.1555
13378TIP3    H161549   4.432   3.871  15.941  1.0244  0.4678 -0.7489
13378TIP3    H261550   4.419   3.787  16.067 -2.0248  0.6243 -0.8784
13379TIP3   OH261551   5.530   4.462  16.631 -0.6466  0.1606 -0.3278
13379TIP3    H161552   5.450   4.426  16.669  0.6052 -1.4665  0.8897
13379TIP3    H261553   5.546   4.410  16.553  0.4496 -1.1526  0.7165
13380TIP3   OH261554   3.395   2.372  11.654 -0.0566 -0.1775  0.2659
13380TIP3    H161555   3.391   2.463  11.684  0.5862 -0.3192  0.8012
13380TIP3    H261556   3.430   2.378  11.565  1.0002  0.0347  0.6836
13381TIP3   OH261557   5.265   1.467  15.068  0.3056 -0.3031  0.4622
13381TIP3    H161558   5.298   1.380  15.093  0.8760 -0.3221 -0.2906
13381TIP3    H261559   5.185   1.478  15.119 -1.9826 -2.9115 -2.1069
13382TIP3   OH261560   0.519   4.979   1.156  0.5820  0.2917  0.2658
13382TIP3    H161561   0.579   5.043   1.117  0.2218 -0.0722 -0.9403
13382TIP3    H261562   0.515   4.908   1.091 -0.3933 -0.1337  0.7773
13383TIP3   OH261563   1.529   4.822  12.331  0.2995  0.3436  0.0257
13383TIP3    H161564   1.619   4.791  12.340  0.2376  0.1242 -0.1000
13383TIP3    H261565   1.485   4.752  12.283  0.4312  1.0989 -1.2716
13384TIP3   OH261566   3.281   6.282  13.011 -0.3316  0.9380 -0.0166
13384TIP3    H161567   3.234   6.348  13.062  0.8286  1.7122  0.0839
13384TIP3    H261568   3.293   6.209  13.072  0.0300  1.3937  0.4665
13385TIP3   OH261569   6.729   5.536   1.675  0.3805 -0.1786  0.6470
13385TIP3    H161570   6.734   5.606   1.740 -0.6625 -1.6798  2.4652
13385TIP3    H261571   6.689   5.577   1.599 -1.8175  0.8665  2.2520
13386TIP3   OH261572   3.248   2.632   0.927  0.1491  0.9997  0.2984
13386TIP3    H161573   3.230   2.576   0.852  2.2444  0.0188  0.4575
13386TIP3    H261574   3.162   2.662   0.956 -0.8566 -0.2928 -1.2048
13387TIP3   OH261575   1.999   1.999  12.129 -0.4652 -0.6472 -0.0747
13387TIP3    H161576   1.930   2.048  12.175 -1.4091 -1.6955 -0.3361
13387TIP3    H261577   1.964   1.986  12.041  0.6704 -0.0138 -0.6392
13388TIP3   OH261578   0.043   1.168   3.019  0.0533 -0.4105 -0.7677
13388TIP3    H161579  -0.042   1.201   2.988  0.8105 -0.3391 -2.8546
13388TIP3    H261580   0.108   1.218   2.970  1.3015 -1.5775 -0.3660
13389TIP3   OH261581   0.668   6.177  14.583 -0.0013 -0.0581  0.1348
13389TIP3    H161582   0.701   6.264  14.603 -0.5273  0.3936 -0.8919
13389TIP3    H261583   0.619   6.151  14.661  0.5584  0.3565  0.6341
13390TIP3   OH261584   5.317   6.368   3.068  0.1977 -0.2140 -0.0307
13390TIP3    H161585   5.286   6.278   3.058 -0.3457 -0.1561  1.0216
13390TIP3    H261586   5.364   6.368   3.152  1.8694  0.0339 -0.9264
13391TIP3   OH261587   4.493   2.709   4.339  0.1619 -0.7789 -0.0064
13391TIP3    H161588   4.486   2.749   4.252  0.6435 -0.8002 -0.0581
13391TIP3    H261589   4.429   2.638   4.338  0.6079 -1.1803 -0.5666
13392TIP3   OH261590   5.758   6.722   5.884  0.0355 -1.1199 -0.0612
13392TIP3    H161591   5.730   6.812   5.867  2.0703 -0.9983 -3.6134
13392TIP3    H261592   5.732   6.706   5.975 -0.8350  2.8439  0.5649
13393TIP3   OH261593   4.843   2.724   3.065 -0.0235 -0.6392 -0.4844
13393TIP3    H161594   4.866   2.803   3.114 -1.3382 -1.5406  1.7460
13393TIP3    H261595   4.912   2.661   3.087 -0.0293 -0.7121 -0.6748
13394TIP3   OH261596   4.642   6.199   5.637  0.6769 -0.6591 -0.5216
13394TIP3    H161597   4.682   6.283   5.616 -0.1614 -0.5601 -1.8376
13394TIP3    H261598   4.560   6.221   5.680  1.7367 -0.8612  1.7596
13395TIP3   OH261599   0.198   1.457  15.196 -0.0311 -0.7282 -0.5609
13395TIP3    H161600   0.287   1.493  15.190 -0.1363 -0.2386  0.5471
13395TIP3    H261601   0.199   1.381  15.138  0.7800 -0.0763 -1.4259
13396TIP3   OH261602   3.377   1.770  16.662 -0.0874  0.4191  0.1872
13396TIP3    H161603   3.469   1.785  16.685  0.3985 -1.4176 -0.4259
13396TIP3    H261604   3.328   1.813  16.731  1.2573  0.0484  1.4159
13397TIP3   OH261605   4.292   0.865   3.760 -0.5088 -0.7082 -0.2336
13397TIP3    H161606   4.287   0.880   3.665 -0.6064 -2.1586 -0.4797
13397TIP3    H261607   4.201   0.867   3.790 -0.3882  1.2733  0.1149
13398TIP3   OH261608   1.546   3.255  11.754 -0.2662  0.3043  0.4092
13398TIP3    H161609   1.622   3.308  11.777  0.9699 -1.5199  0.7496
13398TIP3    H261610   1.499   3.244  11.836  0.9572 -1.3175  0.9475
13399TIP3   OH261611   5.639   4.300   2.969 -0.2332 -0.3567  0.1399
13399TIP3    H161612   5.638   4.249   3.050  1.2172  3.6823  3.0338
13399TIP3    H261613   5.731   4.317   2.952 -0.6519  1.6135 -0.4089
13400TIP3   OH261614   3.752   4.205  16.922  0.1278  0.4861 -0.9634
13400TIP3    H161615   3.838   4.245  16.907  0.8965 -0.3152  1.0820
13400TIP3    H261616   3.743   4.202  17.017 -1.4265 -1.0157 -1.1180
13401TIP3   OH261617   3.205   4.056  11.787 -0.3478 -0.3637  0.3063
13401TIP3    H161618   3.175   4.121  11.850 -0.2649  0.8923 -0.9093
13401TIP3    H261619   3.193   3.972  11.832 -0.7115  0.4526  1.8050
13402TIP3   OH261620   5.139   1.972   1.561 -0.2649 -0.5031  0.3376
13402TIP3    H161621   5.089   1.892   1.547 -1.4320  0.0649  1.0261
13402TIP3    H261622   5.090   2.019   1.630  1.6511 -0.2646  1.6108
13403TIP3   OH261623   1.340   2.566   2.633  0.2804 -0.4245  0.0271
13403TIP3    H161624   1.345   2.539   2.725 -3.6196  0.0227  0.5676
13403TIP3    H261625   1.407   2.515   2.589  2.3225 -0.6521  3.0870
13404TIP3   OH261626   5.127   6.368  16.583 -0.8016 -0.4089  0.0322
13404TIP3    H161627   5.118   6.458  16.613 -3.0848  0.4343 -2.7377
13404TIP3    H261628   5.053   6.322  16.623 -0.9866 -0.4772 -0.3846
13405TIP3   OH261629   3.752   5.815   5.344 -0.2422  0.3936  0.1570
13405TIP3    H161630   3.750   5.805   5.249  0.3197  0.6486  0.1145
13405TIP3    H261631   3.793   5.735   5.376 -1.9738 -0.4881  0.3285
13406TIP3   OH261632   1.531   0.007   6.923 -0.1205 -0.0909  0.1868
13406TIP3    H161633   1.599  -0.038   6.872 -0.5907 -0.7386  0.1188
13406TIP3    H261634   1.558   0.099   6.923 -0.0754 -0.0875 -1.1823
13407TIP3   OH261635   1.974   5.045  13.085  0.1331  0.4116 -0.2208
13407TIP3    H161636   1.969   5.140  13.096 -0.9078  0.5630 -1.8079
13407TIP3    H261637   2.061   5.030  13.049 -0.5340  1.0295 -2.1785
13408TIP3   OH261638   3.346   5.710  17.077 -0.1824  0.3384 -0.8631
13408TIP3    H161639   3.308   5.642  17.021 -1.6158  2.8645 -3.1661
13408TIP3    H261640   3.279   5.728  17.142 -0.3841  0.5366 -1.1268
13409TIP3   OH261641   3.681   3.730  12.160 -0.2177  0.3134  0.4301
13409TIP3    H161642   3.660   3.642  12.130  1.3894  0.0898 -0.1085
13409TIP3    H261643   3.621   3.746  12.232 -0.0174 -1.5149  1.0404
13410TIP3   OH261644   4.508   6.691  17.017  0.0788 -0.1892 -0.5901
13410TIP3    H161645   4.455   6.724  16.944  0.1786  0.1788 -0.4965
13410TIP3    H261646   4.444   6.655  17.078 -0.0044 -0.5223 -0.8706
13411TIP3   OH261647   5.853   0.100   3.711 -0.2728  0.1676 -0.3666
13411TIP3    H161648   5.788   0.170   3.713 -1.7208 -1.1115 -0.4519
13411TIP3    H261649   5.894   0.107   3.625 -1.5806 -0.0818 -1.0367
13412TIP3   OH261650   1.177   3.793   0.364  0.6805 -0.1772 -0.3990
13412TIP3    H161651   1.270   3.774   0.362  0.5115 -1.1337  0.1282
13412TIP3    H261652   1.163   3.836   0.448  0.5722 -0.4997 -0.2485
13413TIP3   OH261653   1.573   0.860  11.971  0.1617 -0.2193 -0.2126
13413TIP3    H161654   1.631   0.933  11.947  0.3983 -0.6523 -0.9925
13413TIP3    H261655   1.491   0.880  11.925  0.1507 -0.3247 -0.2378
13414TIP3   OH261656   6.646   6.022   6.233 -0.2992  0.3943  0.1974
13414TIP3    H161657   6.659   6.033   6.327  0.1352  0.5857  0.1162
13414TIP3    H261658   6.731   6.040   6.194 -0.2668 -0.4658 -0.1731
13415TIP3   OH261659   4.337   0.160   2.723 -0.0171 -0.4564  0.7174
13415TIP3    H161660   4.279   0.218   2.672  1.3969  1.0158  0.6968
13415TIP3    H261661   4.293   0.152   2.808 -1.2218 -1.0077  0.0698
13416TIP3   OH261662   0.041   2.792  17.345  0.2279  0.4380 -0.3661
13416TIP3    H161663   0.072   2.828  17.428 -0.6552  1.5582 -0.5023
13416TIP3    H261664  -0.054   2.797  17.351  0.1609  0.8918 -1.5957
13417TIP3   OH261665   1.497   4.467  14.119  0.4963  0.2555 -0.0264
13417TIP3    H161666   1.458   4.552  14.139 -0.7159 -0.4452  0.7120
13417TIP3    H261667   1.452   4.439  14.039 -1.3216 -0.9800  1.3405
13418TIP3   OH261668   4.620   5.660  10.539  0.1755 -0.1893 -0.5375
13418TIP3    H161669   4.604   5.580  10.590 -0.1427  0.5220  0.5041
13418TIP3    H261670   4.648   5.628  10.453  0.8939 -1.4232  0.1208
13419TIP3   OH261671   0.150   0.542  16.119 -0.1470  0.0767 -0.3365
13419TIP3    H161672   0.241   0.552  16.094 -0.0056 -1.0884 -0.3234
13419TIP3    H261673   0.101   0.587  16.050  0.3686 -0.6644 -1.2051
13420TIP3   OH261674   1.385   6.377   2.289  0.5337  0.0467  0.1674
13420TIP3    H161675   1.405   6.286   2.269  0.1511 -0.0285  0.1185
13420TIP3    H261676   1.321   6.373   2.360 -0.3617  0.2406 -0.6103
13421TIP3   OH261677   3.076   1.476   5.329  0.4725  0.4618  1.4635
13421TIP3    H161678   3.048   1.388   5.352  0.4099  0.7019  2.3418
13421TIP3    H261679   3.003   1.532   5.356 -1.6832  0.4556 -3.3423
13422TIP3   OH261680   5.396   1.729   4.466  0.0766  0.2887  0.0343
13422TIP3    H161681   5.328   1.672   4.503 -0.7329  0.0126 -1.7949
13422TIP3    H261682   5.469   1.720   4.527 -0.6916 -1.2528  0.7987
13423TIP3   OH261683   1.515   1.864   2.001  0.1098  0.0053 -0.7506
13423TIP3    H161684   1.566   1.819   2.068  1.7071  1.9281 -0.5737
13423TIP3    H261685   1.425   1.835   2.015  0.8104 -1.7539  0.4013
13424TIP3   OH261686   1.470   5.009  12.683  0.1548  0.1515 -0.7028
13424TIP3    H161687   1.385   5.052  12.696  0.6140  0.7151  0.5320
13424TIP3    H261688   1.451   4.938  12.622 -1.4445 -0.4224  0.3817
13425TIP3   OH261689   6.065   6.025  15.958 -0.0778 -0.0162  0.0312
13425TIP3    H161690   6.084   6.068  15.875  0.0454  0.9576  0.5509
13425TIP3    H261691   5.970   6.008  15.955 -0.5150  2.0837  0.6154
13426TIP3   OH261692   5.696   5.958   5.608  0.5197 -0.2721 -0.0875
13426TIP3    H161693   5.608   5.930   5.631  1.2443 -1.8932  0.8680
13426TIP3    H261694   5.736   5.986   5.690  0.6183  1.3655 -0.6560
13427TIP3   OH261695   2.099   3.103  11.543 -0.3970  0.4034  0.1390
13427TIP3    H161696   2.075   3.044  11.614  0.1302 -2.7404 -2.1066
13427TIP3    H261697   2.053   3.069  11.466  1.6300  1.6156 -1.7190
13428TIP3   OH261698   3.893   5.216  15.871 -0.6138  0.3385 -0.0555
13428TIP3    H161699   3.855   5.128  15.869 -0.3782  0.1571  1.5708
13428TIP3    H261700   3.827   5.270  15.914  0.3833  0.2992  1.6114
13429TIP3   OH261701   3.354   4.856  15.320  0.4997  0.0552 -0.3536
13429TIP3    H161702   3.361   4.940  15.366 -1.1181 -0.2183  0.4714
13429TIP3    H261703   3.306   4.877  15.239 -1.0804 -0.2272  0.4601
13430TIP3   OH261704   0.060   0.921  16.003  0.4287 -0.1693  0.1233
13430TIP3    H161705   0.040   0.887  16.090  0.1745  0.9997  0.5358
13430TIP3    H261706   0.070   0.843  15.949 -1.0410 -0.9021  0.8335
13431TIP3   OH261707   2.783   4.905   4.778 -0.3841 -0.5926 -0.2492
13431TIP3    H161708   2.776   4.823   4.828  0.1947  0.3985  1.5510
13431TIP3    H261709   2.877   4.919   4.768 -0.4914 -0.5217 -1.2351
13432TIP3   OH261710   2.866   6.271   2.011 -0.6873  0.1496  0.0583
13432TIP3    H161711   2.950   6.318   2.017 -0.6865  0.1470  0.0716
13432TIP3    H261712   2.808   6.332   1.965 -1.0318  0.6747  1.1282
13433TIP3   OH261713   2.869   5.445   3.595  0.7257 -0.0206  0.1779
13433TIP3    H161714   2.864   5.475   3.686  0.7017 -0.9245  0.4832
13433TIP3    H261715   2.818   5.510   3.546  0.8130  0.5259  0.7899
13434TIP3   OH261716   0.426   3.224  14.579 -0.8426 -0.2370 -0.9440
13434TIP3    H161717   0.462   3.137  14.559 -0.2867 -0.6840  1.6109
13434TIP3    H261718   0.488   3.285  14.541  0.7579 -1.0100  0.3113
13435TIP3   OH261719   4.203   0.942   6.611 -0.1581  0.2034  0.2414
13435TIP3    H161720   4.155   0.866   6.644 -0.5618  1.3151  2.4007
13435TIP3    H261721   4.291   0.934   6.648 -0.3632  1.0433  0.9459
13436TIP3   OH261722   0.619   6.532  16.159  0.0654 -0.1116 -0.2687
13436TIP3    H161723   0.541   6.477  16.162 -0.2782  0.1500 -2.5652
13436TIP3    H261724   0.646   6.541  16.251 -0.5908 -3.0269  0.3039
13437TIP3   OH261725   0.954   2.361  13.049 -0.6599 -0.1884  0.2194
13437TIP3    H161726   1.033   2.318  13.016 -0.5747  1.1494 -1.4196
13437TIP3    H261727   0.895   2.363  12.974 -1.0399  1.6361  0.5372
13438TIP3   OH261728   5.993   3.256  14.832 -0.0729 -0.7152 -0.1616
13438TIP3    H161729   5.934   3.296  14.768 -0.1050 -0.5021 -0.0006
13438TIP3    H261730   5.984   3.311  14.910 -0.9408 -1.6793  0.4318
13439TIP3   OH261731   4.914   3.495  15.531  0.2095  0.3224 -0.1832
13439TIP3    H161732   4.965   3.502  15.450  1.8287 -0.0012  0.7663
13439TIP3    H261733   4.890   3.403  15.537 -0.1643  0.4012 -0.4325
13440TIP3   OH261734   0.021   0.589   2.431 -0.0592 -0.0979 -0.2275
13440TIP3    H161735  -0.019   0.631   2.507  0.9090 -1.8860  1.3686
13440TIP3    H261736   0.114   0.583   2.453  0.2890 -0.3842 -1.6981
13441TIP3   OH261737   6.084   0.125  15.913  0.6282 -0.3208 -0.0781
13441TIP3    H161738   6.020   0.084  15.854 -0.1210  1.7319 -0.7944
13441TIP3    H261739   6.042   0.121  15.999  0.3508 -0.5810 -0.2205
13442TIP3   OH261740   2.605   5.254  17.187 -0.0975  0.0824 -0.2282
13442TIP3    H161741   2.681   5.306  17.163  0.3690  0.1213  1.2416
13442TIP3    H261742   2.615   5.172  17.139  0.6190  0.2781 -0.4177
13443TIP3   OH261743   0.461   4.431   3.757  0.3185  0.3112 -0.2289
13443TIP3    H161744   0.529   4.368   3.783 -0.3771  0.6162  2.6400
13443TIP3    H261745   0.386   4.377   3.733 -0.5620 -0.1305  3.0161
13444TIP3   OH261746   2.897   6.745   0.759 -0.5593  0.0012  0.2688
13444TIP3    H161747   2.836   6.702   0.819  0.0363 -1.1726  0.0632
13444TIP3    H261748   2.919   6.678   0.695 -2.8798  1.8311 -2.6713
13445TIP3   OH261749   2.337   0.778  14.203 -0.1615  0.0971 -0.5708
13445TIP3    H161750   2.258   0.826  14.179  0.5477  0.3928 -2.4450
13445TIP3    H261751   2.361   0.728  14.125  0.2970 -1.7345  0.6538
13446TIP3   OH261752   0.261   1.614   4.049  0.0175 -0.2139  0.4509
13446TIP3    H161753   0.295   1.592   3.962 -0.1833 -0.3453  0.4042
13446TIP3    H261754   0.177   1.656   4.031  0.0342 -0.1282  0.5756
13447TIP3   OH261755   5.821   4.855   4.519 -0.5495  0.5272  0.1153
13447TIP3    H161756   5.914   4.834   4.518 -0.7665 -0.4761 -0.1363
13447TIP3    H261757   5.786   4.814   4.440 -1.0876  1.5228 -0.1863
13448TIP3   OH261758   2.901   1.142   4.347  0.1812  0.2328 -0.3187
13448TIP3    H161759   2.905   1.170   4.438 -0.3844 -1.6193  0.3270
13448TIP3    H261760   2.828   1.190   4.309  1.0877  1.8336 -0.1462
13449TIP3   OH261761   2.059   4.724  15.612 -0.2454 -0.4027 -0.3167
13449TIP3    H161762   2.154   4.733  15.612 -0.2532  0.7425 -3.3240
13449TIP3    H261763   2.043   4.630  15.599  0.3833 -0.7855  1.4014
13450TIP3   OH261764   4.187   5.580   3.328  0.2130 -0.4394 -0.0243
13450TIP3    H161765   4.122   5.612   3.392 -0.1349 -0.3856 -0.3980
13450TIP3    H261766   4.172   5.486   3.324 -0.6270 -0.2883 -0.9488
13451TIP3   OH261767   1.474   3.464  11.033  0.9799 -0.1563  0.0671
13451TIP3    H161768   1.492   3.552  11.066  0.4511  0.1862 -0.5196
13451TIP3    H261769   1.502   3.405  11.103  0.1313  0.5228  1.0072
13452TIP3   OH261770   6.146   0.289  11.720 -0.2107 -0.4540 -0.7537
13452TIP3    H161771   6.158   0.287  11.815 -0.2645 -0.0431 -0.7363
13452TIP3    H261772   6.208   0.224  11.687 -0.2039 -0.6113 -0.4358
13453TIP3   OH261773   5.956   5.615  15.470  1.1754  0.2666  0.6093
13453TIP3    H161774   5.957   5.522  15.489  0.6974  0.1600  0.1245
13453TIP3    H261775   6.025   5.627  15.404 -0.2564 -0.1367 -1.0413
13454TIP3   OH261776   5.510   3.516   0.031  0.4457 -0.0449  0.7967
13454TIP3    H161777   5.503   3.563  -0.052  0.5234 -0.7270  0.3934
13454TIP3    H261778   5.552   3.578   0.091  2.8097 -0.3837 -0.3986
13455TIP3   OH261779   1.138   2.803  16.683 -0.4143 -0.5922  0.2471
13455TIP3    H161780   1.134   2.707  16.693 -0.5009 -0.5054  1.1839
13455TIP3    H261781   1.079   2.836  16.751 -0.6864  0.1227 -0.3272
13456TIP3   OH261782   0.029   2.409   5.761 -1.0144 -0.1486 -0.3753
13456TIP3    H161783   0.039   2.423   5.855 -1.8860  0.1375 -0.3118
13456TIP3    H261784  -0.065   2.393   5.749 -0.9387 -0.0189 -1.2121
13457TIP3   OH261785   1.983   5.388  13.019  0.5531  0.2803  0.3596
13457TIP3    H161786   1.908   5.411  13.074  1.2958  1.7479  0.7891
13457TIP3    H261787   2.059   5.412  13.071  1.3409 -0.9372 -0.1834
13458TIP3   OH261788   6.588   4.372   4.528  0.1885  0.0418  0.3797
13458TIP3    H161789   6.621   4.377   4.618  1.1051 -2.6286  0.2752
13458TIP3    H261790   6.661   4.402   4.474 -0.0908  0.8835  0.4444
13459TIP3   OH261791   6.161   0.302  12.650 -0.3783 -0.0237 -0.1695
13459TIP3    H161792   6.236   0.261  12.693 -1.1986 -1.0166  0.3762
13459TIP3    H261793   6.131   0.236  12.586 -1.3388 -0.0408  0.2779
13460TIP3   OH261794   5.106   5.390   4.665 -0.8100 -0.0601 -0.5700
13460TIP3    H161795   5.125   5.427   4.579 -0.7291  0.4174 -0.3497
13460TIP3    H261796   5.126   5.297   4.656  3.7340  0.6151  0.2147
13461TIP3   OH261797   3.332   6.281  15.430  0.6488 -0.0938  0.5305
13461TIP3    H161798   3.259   6.322  15.477  0.2454 -1.1914  0.8813
13461TIP3    H261799   3.292   6.212  15.378  1.2781  0.1828 -0.3537
13462TIP3   OH261800   1.931   3.142   1.426  0.3891 -0.4051 -0.2318
13462TIP3    H161801   1.987   3.180   1.493 -0.5182 -0.4424  0.5833
13462TIP3    H261802   1.886   3.069   1.471 -0.3707 -0.3130 -0.8170
13463TIP3   OH261803   0.749   4.300   4.243  0.0029 -0.2435  0.3113
13463TIP3    H161804   0.671   4.260   4.204 -1.0123  3.2646 -1.6863
13463TIP3    H261805   0.716   4.353   4.315  0.2426  2.2472 -1.3111
13464TIP3   OH261806   1.708   4.452  16.759 -0.3065 -0.3998 -0.5536
13464TIP3    H161807   1.634   4.470  16.816 -0.4822 -2.1274 -0.1847
13464TIP3    H261808   1.708   4.357  16.748 -0.0015 -0.1828 -3.0765
13465TIP3   OH261809   1.263   4.465  13.918 -0.8393 -0.1481 -0.4426
13465TIP3    H161810   1.186   4.484  13.864 -1.9574  1.3193  1.4882
13465TIP3    H261811   1.332   4.520  13.882 -1.8962  1.7355  0.2470
13466TIP3   OH261812   5.418   3.875   1.373 -0.1083  0.4908 -0.1340
13466TIP3    H161813   5.462   3.802   1.416 -1.5250 -0.7935 -0.7449
13466TIP3    H261814   5.485   3.942   1.363  1.2414 -0.7305  0.4586
13467TIP3   OH261815   6.159   2.128   1.710 -0.2553  0.3971  0.0927
13467TIP3    H161816   6.122   2.053   1.664 -1.5478  0.0341  1.6702
13467TIP3    H261817   6.235   2.153   1.657 -0.1912 -1.5832 -0.8342
13468TIP3   OH261818   0.337   4.622   4.233  0.1291  0.4712 -0.2702
13468TIP3    H161819   0.368   4.606   4.322 -1.0190  1.3081  0.3029
13468TIP3    H261820   0.319   4.716   4.231 -1.5085  0.1692 -0.8333
13469TIP3   OH261821   2.101   6.092  13.281 -0.4058 -0.6481 -0.0439
13469TIP3    H161822   2.126   6.090  13.189 -2.4218 -0.4962 -0.6459
13469TIP3    H261823   2.122   6.005  13.314  2.2854 -0.0862 -0.0185
13470TIP3   OH261824   1.217   5.961   2.698  0.1431  0.3310  0.3935
13470TIP3    H161825   1.189   5.884   2.747  0.5741  0.8246  1.4571
13470TIP3    H261826   1.150   6.026   2.715 -0.5285  0.0396 -0.9776
13471TIP3   OH261827   0.670   2.496   1.314  0.3299  0.5304  0.3887
13471TIP3    H161828   0.714   2.570   1.272 -0.2917  0.2323 -0.8324
13471TIP3    H261829   0.697   2.420   1.262 -2.1717  0.4309 -0.9261
13472TIP3   OH261830   5.843   2.659  16.647 -0.1161 -0.5651 -0.1999
13472TIP3    H161831   5.932   2.690  16.663 -0.5688  0.5343  0.3203
13472TIP3    H261832   5.788   2.735  16.667 -1.3736 -2.0018  2.2092
13473TIP3   OH261833   0.506   6.647   4.724  0.2501  0.3302 -0.0383
13473TIP3    H161834   0.574   6.703   4.689  1.5554 -1.1365  0.0620
13473TIP3    H261835   0.482   6.688   4.808  0.9194  0.9227 -0.1301
13474TIP3   OH261836   5.239   6.668  13.514 -0.7724  0.9225  0.1349
13474TIP3    H161837   5.255   6.648  13.606 -2.0505  0.9969  0.3982
13474TIP3    H261838   5.314   6.722  13.488  0.7181 -0.8878  0.4981
13475TIP3   OH261839   0.768   2.467  13.336  0.2884 -0.2285 -0.2569
13475TIP3    H161840   0.851   2.502  13.305 -0.1680 -0.0669 -1.3377
13475TIP3    H261841   0.742   2.403  13.269  0.3396 -1.5060  0.8928
13476TIP3   OH261842   6.511   2.365  16.032  0.8904 -0.6825 -0.2433
13476TIP3    H161843   6.447   2.295  16.016  1.2765 -1.1121  0.0355
13476TIP3    H261844   6.521   2.367  16.127  1.0702 -0.4194 -0.2679
13477TIP3   OH261845   1.915   5.337   2.447  0.1188  0.0375 -0.2087
13477TIP3    H161846   2.010   5.344   2.445  0.1407 -0.3325 -0.7782
13477TIP3    H261847   1.887   5.399   2.514  0.6335  1.5732 -1.3543
13478TIP3   OH261848   6.745   0.540  17.053 -0.1168 -0.1140  0.6080
13478TIP3    H161849   6.652   0.519  17.061 -0.0922 -0.3232  0.3759
13478TIP3    H261850   6.787   0.496  17.126 -0.1066 -0.6267  0.2973
13479TIP3   OH261851   5.900   0.251  11.162  0.0605  0.6239 -0.1517
13479TIP3    H161852   5.993   0.274  11.165 -0.0190  0.7911  1.7093
13479TIP3    H261853   5.894   0.169  11.211 -0.7103  0.2897 -0.7784
13480TIP3   OH261854   5.127   4.508   3.042 -0.2731  0.0596 -0.2899
13480TIP3    H161855   5.057   4.451   3.075 -0.0164  1.0595  2.1791
13480TIP3    H261856   5.081   4.584   3.006 -0.5338 -0.7730 -1.8046
13481TIP3   OH261857   2.198   3.147  15.752  0.0961  0.4895 -0.5223
13481TIP3    H161858   2.190   3.080  15.821  0.8821  2.0539  1.1882
13481TIP3    H261859   2.122   3.134  15.696 -1.5939  0.2601  1.7038
13482TIP3   OH261860   6.463   0.700  15.769 -0.3852  0.1186 -0.6685
13482TIP3    H161861   6.393   0.637  15.782  0.0153 -0.7405 -2.4860
13482TIP3    H261862   6.529   0.654  15.717  1.7532  0.7566  1.2824
13483TIP3   OH261863   1.071   3.042   3.239 -0.6425 -0.0387 -0.1572
13483TIP3    H161864   1.164   3.054   3.223 -0.8529 -0.4114 -1.8776
13483TIP3    H261865   1.061   2.948   3.253 -0.9079 -0.1855 -1.2496
13484TIP3   OH261866   2.028   6.086  14.842  0.0179  0.6402  0.5267
13484TIP3    H161867   2.053   6.050  14.927 -0.1387  1.1005  0.7736
13484TIP3    H261868   2.015   6.009  14.786  3.1856  0.3595  0.0098
13485TIP3   OH261869   4.869   2.293   6.049  0.2471  0.3251  0.2502
13485TIP3    H161870   4.953   2.335   6.066 -0.3112  1.3357  0.5766
13485TIP3    H261871   4.826   2.290   6.135  0.2856 -0.9524  0.2445
13486TIP3   OH261872   5.304   3.098  15.487 -0.3984 -1.1091  0.2371
13486TIP3    H161873   5.319   3.075  15.579 -1.6364 -0.0761  0.7182
13486TIP3    H261874   5.302   3.193  15.485  1.4107 -1.0276 -1.1946
13487TIP3   OH261875   5.923   5.712  16.779 -0.1464 -0.6174  0.1005
13487TIP3    H161876   5.997   5.688  16.723 -0.3689  1.5281 -1.1905
13487TIP3    H261877   5.956   5.784  16.833 -1.6805  1.5716 -1.6986
13488TIP3   OH261878   5.151   5.096   4.544 -0.8890 -0.0033 -0.0489
13488TIP3    H161879   5.099   5.023   4.579  0.2763 -0.5947  0.5151
13488TIP3    H261880   5.234   5.091   4.593  0.5194 -0.3696 -2.3311
13489TIP3   OH261881   6.226   2.108  15.591 -0.2828  0.1660 -0.3545
13489TIP3    H161882   6.184   2.165  15.656  1.0809  0.1319  0.6062
13489TIP3    H261883   6.201   2.020  15.618 -1.4722  0.2356 -1.1736
13490TIP3   OH261884   4.602   2.358  16.044  0.3042  0.3037  0.2249
13490TIP3    H161885   4.546   2.387  15.973 -1.5473  0.7573  1.7947
13490TIP3    H261886   4.555   2.284  16.083  0.0651  1.5496  2.4307
13491TIP3   OH261887   0.531   6.041  11.124 -0.0788  0.4997 -0.0983
13491TIP3    H161888   0.480   6.027  11.205  1.7506 -0.4565  0.9401
13491TIP3    H261889   0.488   5.985  11.059 -1.1018  0.6805  0.3903
13492TIP3   OH261890   4.803   2.960   5.784  0.0190 -0.0628  0.4740
13492TIP3    H161891   4.834   3.049   5.771 -0.4404  0.4431  2.4677
13492TIP3    H261892   4.871   2.905   5.746  0.3756  1.1199 -0.6553
13493TIP3   OH261893   6.059   3.073  13.691 -0.3642  0.3006  0.6026
13493TIP3    H161894   6.074   3.000  13.631  0.4936  1.9016 -1.2485
13493TIP3    H261895   6.062   3.034  13.778  0.1306 -1.8378 -0.3138
13494TIP3   OH261896   4.351   3.798   5.380 -0.0605 -0.4265  0.0980
13494TIP3    H161897   4.436   3.832   5.407 -0.3867 -0.5080  1.2873
13494TIP3    H261898   4.289   3.868   5.401 -0.4679 -0.9229  0.5827
13495TIP3   OH261899   2.143   5.114  12.615 -0.6993  0.0385 -0.0304
13495TIP3    H161900   2.060   5.068  12.628  1.0261 -3.1015  0.6820
13495TIP3    H261901   2.160   5.106  12.521 -0.2936 -1.0400  0.1277
13496TIP3   OH261902   3.508   2.346  16.682  0.4612  0.6088 -0.0772
13496TIP3    H161903   3.594   2.347  16.640  0.5497  1.3429  0.1044
13496TIP3    H261904   3.526   2.318  16.772  0.3929 -0.0662 -0.2716
13497TIP3   OH261905   2.279   6.297  14.275 -0.3941 -0.4907  0.4094
13497TIP3    H161906   2.364   6.300  14.231 -0.9048  0.3580 -0.5676
13497TIP3    H261907   2.215   6.307  14.204 -1.2591  0.7061  1.3275
13498TIP3   OH261908   2.001   0.038  16.748 -0.5436 -0.0365 -0.8439
13498TIP3    H161909   2.023   0.019  16.840  0.5417 -0.2828 -1.1415
13498TIP3    H261910   2.077   0.086  16.715 -1.1105  0.4103 -1.5047
13499TIP3   OH261911   2.323   3.438  11.562  0.5571 -0.4723  0.4444
13499TIP3    H161912   2.390   3.380  11.526  0.5963  0.4276 -1.0001
13499TIP3    H261913   2.372   3.511  11.601  0.4584 -0.6005  0.8157
13500TIP3   OH261914   0.552   5.886  14.877  0.7058 -0.6579  0.4360
13500TIP3    H161915   0.543   5.970  14.831  0.6817  0.3644  2.2117
13500TIP3    H261916   0.463   5.863  14.902  0.6015 -1.6907 -0.7544
13501TIP3   OH261917   0.076   4.502  12.907 -0.1784  0.1459  0.1123
13501TIP3    H161918   0.032   4.423  12.936 -1.8383  0.9869 -0.0043
13501TIP3    H261919   0.010   4.550  12.857  0.8876  1.4334 -0.1299
13502TIP3   OH261920   0.956   4.780  11.628 -0.0591  0.2500 -0.2687
13502TIP3    H161921   0.924   4.697  11.591  0.7658  0.6334 -1.9379
13502TIP3    H261922   1.030   4.754  11.684  0.1537 -0.1630 -0.7303
13503TIP3   OH261923   0.169   2.930  11.132  0.5616 -0.0366  0.0362
13503TIP3    H161924   0.157   2.909  11.040 -0.7844  0.5961  0.0414
13503TIP3    H261925   0.081   2.923  11.170  0.8988  0.8019  1.0350
13504TIP3   OH261926   2.363   2.527  12.331  0.2608  0.1503  0.0482
13504TIP3    H161927   2.344   2.476  12.252 -2.7652  0.3981  0.4868
13504TIP3    H261928   2.336   2.471  12.404  0.3213  0.9865  0.7382
13505TIP3   OH261929   1.580   3.567  15.882  0.6952  0.1118 -0.1872
13505TIP3    H161930   1.525   3.589  15.957  0.7150 -1.6443  0.3998
13505TIP3    H261931   1.587   3.648  15.832 -2.6695  0.3886 -0.4539
13506TIP3   OH261932   3.979   4.620  12.713 -0.0682 -0.3779 -1.0141
13506TIP3    H161933   3.919   4.672  12.658 -0.8655  0.4666  0.5594
13506TIP3    H261934   3.954   4.529  12.697 -1.6268 -0.0547 -0.6218
13507TIP3   OH261935   1.757   4.005   3.597 -0.5228  0.1462 -0.4794
13507TIP3    H161936   1.690   4.050   3.547 -1.6580  1.1459  1.7740
13507TIP3    H261937   1.763   3.918   3.557 -2.0791  0.5387 -1.6635
13508TIP3   OH261938   5.783   2.417   5.996  0.0666 -0.2421  0.2153
13508TIP3    H161939   5.726   2.342   5.982 -0.2053 -0.2738  1.3726
13508TIP3    H261940   5.871   2.380   5.999  0.1363 -0.2298 -1.2971
13509TIP3   OH261941   1.966   3.792   3.867 -0.3233 -0.2962  0.3221
13509TIP3    H161942   2.001   3.706   3.844 -0.4420 -0.6263  1.3364
13509TIP3    H261943   1.872   3.776   3.877 -0.1380 -0.4098  2.0858
13510TIP3   OH261944   0.387   6.457   5.952  0.0461 -1.0059 -0.4813
13510TIP3    H161945   0.409   6.540   5.994 -0.8167 -2.0253  2.1784
13510TIP3    H261946   0.321   6.480   5.887 -0.7721  0.3273  0.7502
13511TIP3   OH261947   5.256   1.258   2.828  0.0134  0.1990  0.2269
13511TIP3    H161948   5.309   1.235   2.904 -0.3611 -0.9565  0.1577
13511TIP3    H261949   5.167   1.266   2.862  0.0109  0.7434  0.0971
13512TIP3   OH261950   4.589   2.008  11.855 -0.1935 -0.2929  0.4422
13512TIP3    H161951   4.542   2.041  11.779  1.2704  0.2414 -0.2784
13512TIP3    H261952   4.666   2.064  11.862 -0.3531 -0.2323  2.4275
13513TIP3   OH261953   3.670   6.459   3.682  0.8142  0.4992 -0.1689
13513TIP3    H161954   3.634   6.378   3.718  2.3140 -1.3868 -2.5878
13513TIP3    H261955   3.752   6.472   3.729  1.7254 -0.7691 -1.3300
13514TIP3   OH261956   2.805   0.708  12.751  0.2697 -0.9706  0.1863
13514TIP3    H161957   2.756   0.691  12.832  0.1903  0.5807  0.4972
13514TIP3    H261958   2.753   0.667  12.683 -2.6284  2.1418  0.2276
13515TIP3   OH261959   3.338   2.116   6.013  0.7977  0.2114  0.3368
13515TIP3    H161960   3.341   2.174   6.089  0.5330 -3.0360  3.0503
13515TIP3    H261961   3.245   2.102   5.997  0.8590  0.5199 -0.3355
13516TIP3   OH261962   1.066   4.330  16.075  0.1396  0.4341 -0.0212
13516TIP3    H161963   1.161   4.325  16.085  0.0302 -0.2832  0.7563
13516TIP3    H261964   1.041   4.244  16.039 -0.0930  1.0465 -1.3923
13517TIP3   OH261965   1.225   3.942   0.612 -0.3536  0.5034  0.4252
13517TIP3    H161966   1.202   4.017   0.558 -1.0612 -0.7361 -1.0656
13517TIP3    H261967   1.159   3.941   0.681 -0.0672  1.4819  0.7404
13518TIP3   OH261968   5.033   2.947  15.568 -0.0980  0.1626  0.7212
13518TIP3    H161969   5.102   2.927  15.631 -0.6208  0.5969  1.4500
13518TIP3    H261970   5.057   2.898  15.489  0.4964 -0.4919  1.2950
13519TIP3   OH261971   3.047   1.710   2.126  0.7622 -0.2460 -0.4340
13519TIP3    H161972   3.032   1.729   2.218  1.9209 -0.0707 -0.2710
13519TIP3    H261973   3.083   1.791   2.090 -0.5169 -0.0066 -1.2657
13520TIP3   OH261974   0.606   6.148   5.489  0.2586  0.2144 -0.1146
13520TIP3    H161975   0.536   6.194   5.535  1.2595  0.3940  1.3110
13520TIP3    H261976   0.579   6.056   5.489 -0.5637  0.4473 -0.7147
13521TIP3   OH261977   1.920   0.774  16.260  0.1921  0.0438  0.2276
13521TIP3    H161978   1.915   0.801  16.168  0.3988  0.3871  0.3142
13521TIP3    H261979   2.013   0.755  16.274  0.5499  2.0255  0.9165
13522TIP3   OH261980   4.452   2.117  16.842 -0.2413 -0.2211  0.1619
13522TIP3    H161981   4.499   2.196  16.869  0.3579 -0.8707  1.0700
13522TIP3    H261982   4.520   2.051  16.832 -0.9390 -1.2265  1.6310
13523TIP3   OH261983   4.240   6.206   2.348  0.5917 -0.1597 -0.3832
13523TIP3    H161984   4.145   6.218   2.336  0.9867  0.9176 -3.1548
13523TIP3    H261985   4.268   6.163   2.268  2.4266 -0.9125  0.6130
13524TIP3   OH261986   2.290   4.147  14.933 -0.2175  0.5084  0.0120
13524TIP3    H161987   2.324   4.229  14.896 -0.4284 -0.2915 -2.1313
13524TIP3    H261988   2.268   4.094  14.856 -3.9930 -0.0170  1.2334
13525TIP3   OH261989   4.859   0.359  13.207 -0.6285 -0.9844  0.4847
13525TIP3    H161990   4.809   0.337  13.286 -2.0362 -0.0468 -0.1026
13525TIP3    H261991   4.812   0.317  13.136  0.3830 -1.4597  0.0822
13526TIP3   OH261992   2.709   6.589   5.561  0.2089  0.1808 -0.5627
13526TIP3    H161993   2.746   6.634   5.485 -0.7457  0.0731 -1.1169
13526TIP3    H261994   2.725   6.496   5.543 -1.5362  0.0265 -1.5135
13527TIP3   OH261995   0.299   1.501   6.502  0.1392 -0.0928 -0.4834
13527TIP3    H161996   0.295   1.592   6.532  1.9950 -0.4199  0.9943
13527TIP3    H261997   0.221   1.460   6.539  0.8697  0.2157  1.5416
13528TIP3   OH261998   0.533   0.399  11.872  0.1463  0.4332 -0.3359
13528TIP3    H161999   0.605   0.341  11.896 -0.5130 -0.2381  0.0960
13528TIP3    H262000   0.510   0.444  11.953 -1.6471 -1.3423  0.2219
13529TIP3   OH262001   3.258   4.759  11.404 -0.6568  0.0829  0.1849
13529TIP3    H162002   3.268   4.818  11.329  0.1838  0.0009  0.2263
13529TIP3    H262003   3.274   4.672  11.368  0.4347  0.1015  0.5775
13530TIP3   OH262004   4.377   3.294   6.141 -0.3403  0.7919  0.0984
13530TIP3    H162005   4.302   3.246   6.178 -1.1184  1.3023 -0.7833
13530TIP3    H262006   4.397   3.247   6.060 -0.2600  1.1680 -0.1013
13531TIP3   OH262007   0.821   0.837   4.796  0.0624 -0.0604 -0.5268
13531TIP3    H162008   0.726   0.827   4.788 -0.0743  0.3490  0.4476
13531TIP3    H262009   0.844   0.898   4.726 -0.3486 -0.3582 -0.9324
13532TIP3   OH262010   3.162   0.022  11.587  0.6060 -0.2820 -0.4361
13532TIP3    H162011   3.117  -0.062  11.595 -0.5438  0.3359 -0.2265
13532TIP3    H262012   3.183   0.047  11.677 -0.4959  0.3984 -0.3481
13533TIP3   OH262013   5.598   1.169   1.001 -0.1646 -0.1063  0.4835
13533TIP3    H162014   5.606   1.206   0.913  0.5883  1.3338  1.1110
13533TIP3    H262015   5.660   1.096   1.003  0.4235  0.3740  0.0696
13534TIP3   OH262016   3.458   1.876   5.046 -0.2956  0.1453  0.5927
13534TIP3    H162017   3.546   1.902   5.017  0.1442 -0.3208  1.4454
13534TIP3    H262018   3.448   1.786   5.015 -0.8676  0.5117 -0.3234
13535TIP3   OH262019   0.145   3.227   5.608  0.1426 -0.4701  0.1046
13535TIP3    H162020   0.189   3.293   5.554 -0.1220  0.3727  0.8942
13535TIP3    H262021   0.178   3.243   5.697  0.4076 -1.6941  0.2473
13536TIP3   OH262022   5.221   4.484   3.311 -0.1037 -0.1792  0.3749
13536TIP3    H162023   5.149   4.526   3.358 -0.1859  0.6573 -0.4595
13536TIP3    H262024   5.210   4.514   3.220  0.7871 -0.7440  0.0709
13537TIP3   OH262025   1.484   3.190  14.532  0.0198  1.4000  0.1885
13537TIP3    H162026   1.509   3.270  14.579  1.6530  0.6132  0.7264
13537TIP3    H262027   1.562   3.136  14.533 -1.5608 -1.0716  1.5626
13538TIP3   OH262028   5.804   6.065  15.940 -0.3372 -0.0468 -0.1564
13538TIP3    H162029   5.740   6.128  15.975  0.6939  0.3298  1.1585
13538TIP3    H262030   5.799   6.075  15.845 -2.5148 -0.3436 -0.1072
13539TIP3   OH262031   1.722   1.675  15.117  0.2669  0.0826 -0.1840
13539TIP3    H162032   1.661   1.617  15.072  0.5761 -0.5383  0.1980
13539TIP3    H262033   1.748   1.739  15.050  1.3350 -1.2942 -1.1225
13540TIP3   OH262034   0.115   3.857  12.352 -0.1669  0.0260  0.2324
13540TIP3    H162035   0.154   3.874  12.266  2.1243 -1.8935  0.7602
13540TIP3    H262036   0.148   3.927  12.407  1.1553 -0.5728  0.2458
13541TIP3   OH262037   3.167   4.463  12.621  0.9854  0.6485  0.2246
13541TIP3    H162038   3.249   4.510  12.607  1.2375 -0.0800 -0.8416
13541TIP3    H262039   3.190   4.370  12.614  0.1338  0.4196  0.2931
13542TIP3   OH262040   0.556   3.095   2.808 -0.4470 -0.3500  0.2121
13542TIP3    H162041   0.462   3.077   2.812 -0.7289  1.1746  1.2018
13542TIP3    H262042   0.562   3.190   2.801  1.0426 -0.3082  1.5355
13543TIP3   OH262043   2.423   5.629   0.851  0.1447  0.6034  0.1314
13543TIP3    H162044   2.365   5.696   0.887 -0.9515 -0.1722 -0.1491
13543TIP3    H262045   2.438   5.656   0.761 -1.0351  0.0050 -0.2543
13544TIP3   OH262046   4.566   0.603   4.601  0.2074 -0.1350 -0.6610
13544TIP3    H162047   4.621   0.626   4.526  0.9212  3.0175  0.6264
13544TIP3    H262048   4.485   0.651   4.586 -0.0305 -0.2992  0.0667
13545TIP3   OH262049   5.222   2.075   2.655 -0.2420 -0.0958  0.6025
13545TIP3    H162050   5.307   2.076   2.610  0.3505  0.3725  1.6785
13545TIP3    H262051   5.174   2.003   2.615  0.4486 -0.0084 -0.4189
13546TIP3   OH262052   1.010   5.359  12.797  0.0300  0.3243  0.1989
13546TIP3    H162053   0.980   5.450  12.792  0.0391  0.3607  0.7106
13546TIP3    H262054   1.015   5.330  12.706 -0.8790  0.5393  0.0702
13547TIP3   OH262055   5.032   2.951   5.029  0.4778 -0.1037  0.5442
13547TIP3    H162056   5.067   2.863   5.019  0.3786  0.0029 -1.0889
13547TIP3    H262057   5.104   3.002   5.064  0.9468 -0.5651  0.2686
13548TIP3   OH262058   6.665   0.925  14.720 -0.6444 -0.6488 -0.4908
13548TIP3    H162059   6.623   0.885  14.644 -2.3756  0.3147 -0.1013
13548TIP3    H262060   6.593   0.964  14.769  0.7226  1.0568  0.2644
13549TIP3   OH262061   6.239   6.216  17.232  0.3312 -1.0324 -0.6519
13549TIP3    H162062   6.242   6.248  17.141  0.3883  0.9365 -0.0091
13549TIP3    H262063   6.153   6.242  17.264  0.4277 -1.4525 -0.0340
13550TIP3   OH262064   2.765   0.381  12.323 -0.0863  0.5557  0.0180
13550TIP3    H162065   2.761   0.331  12.241 -0.5393 -1.0280  0.9606
13550TIP3    H262066   2.859   0.400  12.334 -0.1076  1.7010 -1.3435
13551TIP3   OH262067   2.356   1.067  16.636 -0.4839  0.0960  0.1344
13551TIP3    H162068   2.416   1.141  16.633  1.0363 -1.1077 -0.6276
13551TIP3    H262069   2.337   1.055  16.729 -0.9286  1.5555  0.2479
13552TIP3   OH262070   6.483   5.502  13.399  0.2407  0.4884  0.0167
13552TIP3    H162071   6.573   5.484  13.371  0.0554 -0.3772 -0.0468
13552TIP3    H262072   6.442   5.416  13.403 -0.9652  0.9646 -1.2215
13553TIP3   OH262073   4.336   4.046   2.299 -0.4435 -0.2886 -0.5047
13553TIP3    H162074   4.422   4.046   2.257 -0.9465 -0.0690 -1.5645
13553TIP3    H262075   4.355   4.039   2.393  0.8635  2.2334 -0.4845
13554TIP3   OH262076   5.685   5.614   1.789  0.6764 -0.5008 -0.2268
13554TIP3    H162077   5.699   5.680   1.721  0.8232  0.0336  0.3132
13554TIP3    H262078   5.591   5.597   1.787  0.3602  0.9409  0.7114
13555TIP3   OH262079   2.254   3.188  16.140 -0.8700  0.0968 -0.0963
13555TIP3    H162080   2.310   3.162  16.067  1.0215 -1.3160  1.7318
13555TIP3    H262081   2.225   3.276  16.118  0.2686  0.0239 -2.1482
13556TIP3   OH262082   3.951   1.485   4.338 -0.0475  0.4891  0.3266
13556TIP3    H162083   4.013   1.492   4.265 -0.4609  1.0646  0.0188
13556TIP3    H262084   3.869   1.519   4.303  0.1674  2.4675  1.5390
13557TIP3   OH262085   6.755   3.019   3.034  0.0165  0.3757  0.1395
13557TIP3    H162086   6.675   2.986   2.993 -0.3938  1.3729  0.1095
13557TIP3    H262087   6.765   3.107   2.999  1.1270  0.2721  0.1600
13558TIP3   OH262088   2.637   6.221   3.174  0.3756  0.2390  0.4231
13558TIP3    H162089   2.551   6.252   3.204 -1.0945 -2.2435 -0.8621
13558TIP3    H262090   2.665   6.160   3.243  0.0863 -0.5000 -0.0930
13559TIP3   OH262091   2.037   4.825   4.859 -0.0570  0.0974 -0.1440
13559TIP3    H162092   1.988   4.907   4.872  2.5959  1.7371  0.1408
13559TIP3    H262093   2.112   4.833   4.917  0.4239 -2.4700 -0.3331
13560TIP3   OH262094   2.427   4.894   3.816 -0.2091 -0.0108 -0.3365
13560TIP3    H162095   2.474   4.937   3.887  1.1550  0.8382 -1.7125
13560TIP3    H262096   2.495   4.855   3.761 -1.2716 -1.3551 -0.7684
13561TIP3   OH262097   4.351   1.080  12.620  0.6543 -0.8150 -0.2142
13561TIP3    H162098   4.390   1.157  12.579 -0.0287 -1.1767 -1.6442
13561TIP3    H262099   4.257   1.096  12.617  0.5859 -0.3482  2.3655
13562TIP3   OH262100   2.613   3.599  15.369  0.1635  0.3564 -0.7451
13562TIP3    H162101   2.680   3.534  15.389 -0.2462  0.9332  3.6227
13562TIP3    H262102   2.541   3.549  15.330  0.6672 -1.4845  0.5403
13563TIP3   OH262103   0.716   1.176   6.365 -0.0793 -0.0924 -0.1085
13563TIP3    H162104   0.718   1.210   6.275 -0.6934  1.2005  0.3430
13563TIP3    H262105   0.808   1.174   6.392  0.1330 -0.7259 -0.8416
13564TIP3   OH262106   0.141   5.576  15.207 -0.0112  0.2745  0.0228
13564TIP3    H162107   0.179   5.646  15.153  3.0566 -0.4441  1.0453
13564TIP3    H262108   0.102   5.515  15.144 -2.0796  2.3863 -0.9335
13565TIP3   OH262109   1.890   2.988  12.028  0.5967  0.4011  0.1840
13565TIP3    H162110   1.947   3.057  12.064 -0.0015  0.4306  1.1258
13565TIP3    H262111   1.916   2.909  12.076  0.1185  0.3372  0.3458
13566TIP3   OH262112   6.016   1.041   6.756  0.1634  0.5156 -0.0622
13566TIP3    H162113   5.975   1.120   6.792 -0.6681 -0.9651  2.5229
13566TIP3    H262114   5.948   1.003   6.700 -0.7150 -0.0351  1.3249
13567TIP3   OH262115   4.361   3.857   1.733 -0.2614 -0.4285 -0.0134
13567TIP3    H162116   4.279   3.815   1.710 -0.0098 -1.3126  0.6420
13567TIP3    H262117   4.427   3.810   1.681 -0.0883 -0.2178  0.0155
13568TIP3   OH262118   5.664   0.738  16.148  0.6131 -0.2320  1.0558
13568TIP3    H162119   5.579   0.705  16.177  0.5717  0.6538  2.0043
13568TIP3    H262120   5.653   0.756  16.055 -0.1636 -0.3509  1.1199
13569TIP3   OH262121   6.228   1.287   0.010  0.0984 -0.1508  0.1634
13569TIP3    H162122   6.249   1.195  -0.004  0.0856 -0.0155 -0.7903
13569TIP3    H262123   6.313   1.330   0.021  0.1365 -0.1677 -0.0716
13570TIP3   OH262124   5.538   5.255  14.144 -0.1521  0.1380  0.2956
13570TIP3    H162125   5.470   5.322  14.147  0.5688  0.8762  2.7657
13570TIP3    H262126   5.504   5.184  14.199  0.7041  0.1643  0.8796
13571TIP3   OH262127   3.651   5.659   5.780  0.1869  0.0336  0.4324
13571TIP3    H162128   3.639   5.754   5.786  1.2706  0.2787 -0.7322
13571TIP3    H262129   3.562   5.624   5.776 -0.2597  0.8901  1.9924
13572TIP3   OH262130   3.725   1.905   5.344  0.3368 -0.6958  0.4384
13572TIP3    H162131   3.762   1.856   5.271  0.4347 -0.3764  0.2710
13572TIP3    H262132   3.745   1.997   5.324 -1.1759 -0.4388 -0.0299
13573TIP3   OH262133   4.491   3.444   0.605 -0.7621  0.1543 -0.0900
13573TIP3    H162134   4.543   3.519   0.575 -0.5422 -0.5173 -1.4885
13573TIP3    H262135   4.438   3.479   0.677  0.4410  1.2530  0.3009
13574TIP3   OH262136   0.342   4.649  15.980 -0.2204 -0.0377  0.4028
13574TIP3    H162137   0.290   4.723  15.945  2.2452  2.2302  1.2390
13574TIP3    H262138   0.321   4.647  16.073  0.1477 -0.0527  0.4836
13575TIP3   OH262139   2.665   5.358   6.230 -0.0152  0.0936  0.0800
13575TIP3    H162140   2.622   5.279   6.263 -0.4407  0.3240  0.0883
13575TIP3    H262141   2.745   5.365   6.281 -0.1372 -0.1502  0.3066
13576TIP3   OH262142   6.384   3.636  15.935  0.3184  0.1836 -0.5067
13576TIP3    H162143   6.297   3.638  15.895 -0.0108  1.4657  0.2130
13576TIP3    H262144   6.375   3.575  16.009  0.5552 -1.0963 -1.4852
13577TIP3   OH262145   1.036   4.938   3.835  0.3597  0.2418  0.1447
13577TIP3    H162146   0.963   4.953   3.895  0.2885  1.7381 -0.2628
13577TIP3    H262147   1.006   4.868   3.777 -1.5485  2.0363 -1.1777
13578TIP3   OH262148   0.491   1.599  11.859  0.2552  0.2850 -0.2400
13578TIP3    H162149   0.560   1.555  11.908  1.6764 -0.6770 -2.9015
13578TIP3    H262150   0.487   1.687  11.896  2.1490  0.0140  0.7085
13579TIP3   OH262151   2.486   4.025   1.885 -0.2632  0.3456  0.1351
13579TIP3    H162152   2.557   4.080   1.919 -0.4422  0.9062 -0.3814
13579TIP3    H262153   2.487   3.948   1.942  1.0628  0.1196 -0.1483
13580TIP3   OH262154   3.060   4.825   1.678 -0.1175 -0.4354  0.4026
13580TIP3    H162155   3.093   4.737   1.659 -2.4181 -1.6162  1.5011
13580TIP3    H262156   3.023   4.819   1.766  0.5791  1.9472  0.9234
13581TIP3   OH262157   2.396   5.095   4.448 -0.5108 -0.1303 -0.5480
13581TIP3    H162158   2.337   5.135   4.512  0.7776  0.2845  0.4224
13581TIP3    H262159   2.477   5.081   4.496 -0.1723 -1.8005 -1.5123
13582TIP3   OH262160   5.858   3.568  17.161 -0.1934  0.8559 -0.3786
13582TIP3    H162161   5.889   3.645  17.207  0.5290  1.0315 -1.1298
13582TIP3    H262162   5.800   3.602  17.093  0.0959  0.7344 -0.6867
13583TIP3   OH262163   2.187   2.660   3.077 -0.5596 -0.0789  0.1103
13583TIP3    H162164   2.221   2.602   3.145  1.1370  0.8200  0.0842
13583TIP3    H262165   2.177   2.604   3.000  0.7936 -0.4219  0.1584
13584TIP3   OH262166   3.482   5.338  14.894  0.0715 -0.5096  0.4238
13584TIP3    H162167   3.440   5.385  14.966  2.0631  0.7410  0.8676
13584TIP3    H262168   3.556   5.394  14.869  1.5210 -2.5787 -0.2270
13585TIP3   OH262169   2.312   0.053  12.377  0.1981  0.5815 -0.7166
13585TIP3    H162170   2.343   0.143  12.392  1.9166 -0.1072  0.2472
13585TIP3    H262171   2.386   0.010  12.335 -0.5870 -0.3987 -1.1100
13586TIP3   OH262172   6.212   4.648  13.384  0.5016  0.2237 -0.4861
13586TIP3    H162173   6.228   4.572  13.329 -0.4996  0.1527 -0.6921
13586TIP3    H262174   6.294   4.659  13.434  2.0438  1.2311 -3.0607
13587TIP3   OH262175   5.578   5.518   3.297  0.1710 -0.4785  0.3726
13587TIP3    H162176   5.485   5.514   3.274  0.7122 -1.7619 -1.8229
13587TIP3    H262177   5.590   5.448   3.361 -0.4795  0.1446  1.1959
13588TIP3   OH262178   4.908   3.160   2.050  0.7789 -0.1532 -0.0049
13588TIP3    H162179   4.915   3.086   2.110 -0.2219 -1.7504 -1.7275
13588TIP3    H262180   4.824   3.201   2.072 -0.6308 -2.0048 -1.5229
13589TIP3   OH262181   2.137   0.486  14.510  0.3562  0.0387 -0.2657
13589TIP3    H162182   2.206   0.420  14.514  0.0898 -0.2378 -0.2256
13589TIP3    H262183   2.144   0.523  14.422  0.5155 -0.0305 -0.2824
13590TIP3   OH262184   1.614   4.021   3.990 -0.5923 -0.2489  0.0856
13590TIP3    H162185   1.664   4.096   3.960  0.5995 -1.0105  0.0928
13590TIP3    H262186   1.579   4.047   4.075  0.8596 -0.1249  0.6698
13591TIP3   OH262187   2.439   0.793   0.935  0.0718  0.5625 -0.0809
13591TIP3    H162188   2.465   0.885   0.930  0.0609  0.5861  0.2308
13591TIP3    H262189   2.443   0.761   0.845 -1.7459  1.3710 -0.5030
13592TIP3   OH262190   5.789   4.619  16.147  0.2267  0.3703  0.0059
13592TIP3    H162191   5.741   4.693  16.186  0.3930  0.3027  0.3469
13592TIP3    H262192   5.878   4.652  16.136 -0.0782  0.7720 -1.3975
13593TIP3   OH262193   4.475   3.736   5.821  0.3725  0.4100 -0.0958
13593TIP3    H162194   4.522   3.701   5.896 -0.4802 -1.2430 -0.2759
13593TIP3    H262195   4.446   3.823   5.849  0.6516  0.0932  1.2364
13594TIP3   OH262196   2.077   6.236   5.950  0.2752  0.2266 -0.3186
13594TIP3    H162197   2.031   6.184   5.884  0.4117  0.3921 -0.5458
13594TIP3    H262198   2.095   6.174   6.021  2.1852 -0.5572 -1.4192
13595TIP3   OH262199   2.680   6.433  12.840  0.2402  0.1616  0.0623
13595TIP3    H162200   2.588   6.410  12.829  0.3264 -0.4243  0.5833
13595TIP3    H262201   2.679   6.528  12.856 -0.3198  0.0485  0.7158
13596TIP3   OH262202   1.687   2.803  11.502  0.1698  0.3654 -0.5581
13596TIP3    H162203   1.718   2.727  11.550  0.2043  0.6956 -0.0466
13596TIP3    H262204   1.692   2.875  11.565  1.9952  1.2103 -1.5866
13597TIP3   OH262205   5.116   1.512   2.537 -0.6074  0.0335  0.1325
13597TIP3    H162206   5.064   1.481   2.611  1.7012 -1.0694  1.4025
13597TIP3    H262207   5.193   1.553   2.577  0.5785 -0.3499 -1.6275
13598TIP3   OH262208   3.926   4.999  14.080  0.0557 -0.4148  0.1041
13598TIP3    H162209   3.964   4.963  14.159 -0.0335 -2.0192 -0.5483
13598TIP3    H262210   3.959   4.943  14.009  0.5169  1.2425 -1.0735
13599TIP3   OH262211   3.727   3.539  13.879 -0.2621 -0.1440  0.6407
13599TIP3    H162212   3.759   3.604  13.817 -0.1760  0.7821  1.6150
13599TIP3    H262213   3.704   3.590  13.957  1.7938 -1.4850  2.2380
13600TIP3   OH262214   0.602   2.890  15.348 -0.4214  0.3905  1.6266
13600TIP3    H162215   0.532   2.832  15.379 -0.0494 -1.0302 -0.0567
13600TIP3    H262216   0.682   2.837  15.357 -0.1496  0.3793 -0.4973
13601TIP3   OH262217   3.306   0.266   4.460  0.4991 -0.9902  0.0136
13601TIP3    H162218   3.220   0.301   4.435 -0.4689 -2.5603  0.9406
13601TIP3    H262219   3.367   0.337   4.443 -1.1443  0.5793  0.3742
13602TIP3   OH262220   5.235   1.918   0.811  0.7878  0.7369 -0.5802
13602TIP3    H162221   5.329   1.910   0.828  1.1464 -0.2591 -2.7621
13602TIP3    H262222   5.201   1.963   0.889  2.9080  0.3431  0.6657
13603TIP3   OH262223   3.004   4.473   4.486  0.4293  0.5011 -0.2280
13603TIP3    H162224   2.966   4.407   4.427 -0.4031  1.3632 -0.6862
13603TIP3    H262225   3.096   4.477   4.461  0.3731 -0.1023 -0.5637
13604TIP3   OH262226   4.920   1.171  13.940 -0.5374 -0.1998  0.6721
13604TIP3    H162227   4.869   1.191  13.861  1.5388 -1.8494 -1.2382
13604TIP3    H262228   4.957   1.084  13.922  2.0200  0.4352  2.3833
13605TIP3   OH262229   6.056   2.549   3.305 -0.5513  0.5155  0.0712
13605TIP3    H162230   6.075   2.550   3.398  0.1082  0.6368 -0.0564
13605TIP3    H262231   6.017   2.463   3.288  2.3181 -0.8596 -0.0939
13606TIP3   OH262232   5.842   0.663   5.834  0.5204 -0.2656 -1.0138
13606TIP3    H162233   5.792   0.673   5.753 -1.2182 -1.8307 -0.2089
13606TIP3    H262234   5.862   0.570   5.838  3.0321  0.2106 -0.9717
13607TIP3   OH262235   3.243   3.964  15.017  0.0288  0.2667 -0.6288
13607TIP3    H162236   3.285   3.967  15.103  1.0070 -0.5091 -1.0543
13607TIP3    H262237   3.303   3.912  14.963 -1.4806 -0.9222 -1.2596
13608TIP3   OH262238   6.285   5.645  15.635 -0.1376  0.0297  0.1344
13608TIP3    H162239   6.215   5.646  15.700 -0.3192 -0.7049 -0.0372
13608TIP3    H262240   6.352   5.588  15.674 -0.4458 -0.7948 -0.5111
13609TIP3   OH262241   3.489   6.310   1.398  0.6034 -0.4647 -0.1832
13609TIP3    H162242   3.515   6.226   1.361 -1.9111 -0.6108 -1.9036
13609TIP3    H262243   3.459   6.289   1.487 -5.4453 -2.8086 -2.2493
13610TIP3   OH262244   3.386   3.591   0.466 -0.4950  0.2038 -0.5602
13610TIP3    H162245   3.384   3.496   0.460  1.6708  0.1645 -1.3548
13610TIP3    H262246   3.352   3.610   0.554  0.8864 -1.4343  0.3808
13611TIP3   OH262247   2.087   3.306  10.423  0.7520 -0.0598  0.2311
13611TIP3    H162248   2.017   3.371  10.423 -0.6817 -1.5402 -0.5875
13611TIP3    H262249   2.066   3.247  10.496  1.2435 -0.4215  0.0868
13612TIP3   OH262250   2.864   6.115  12.563  0.8316 -0.6755  0.0056
13612TIP3    H162251   2.851   6.163  12.645  0.7039  0.8413 -0.8754
13612TIP3    H262252   2.926   6.045  12.586  0.8125 -0.2598  1.3860
13613TIP3   OH262253   1.462   2.258  16.360  0.1059  0.1104 -0.5419
13613TIP3    H162254   1.424   2.309  16.431 -1.9673 -0.8380 -0.9047
13613TIP3    H262255   1.388   2.233  16.305  1.1579 -2.3402 -0.9910
13614TIP3   OH262256   1.505   4.478  14.646 -0.1396  0.4644  0.1417
13614TIP3    H162257   1.455   4.402  14.613  0.8615  0.4361 -1.4138
13614TIP3    H262258   1.465   4.553  14.602 -0.2912  0.7165  0.6951
13615TIP3   OH262259   5.425   6.183   3.483 -0.2728 -0.6442  0.0711
13615TIP3    H162260   5.408   6.128   3.560  1.4496 -0.3129  0.7422
13615TIP3    H262261   5.348   6.172   3.428 -1.1499 -1.6184  1.4237
13616TIP3   OH262262   4.385   6.670   3.130  0.6477  0.1321  0.4409
13616TIP3    H162263   4.405   6.604   3.196  0.1859 -1.0341 -0.5541
13616TIP3    H262264   4.305   6.712   3.161 -0.2497 -1.2440  0.0284
13617TIP3   OH262265   1.404   2.635  11.980 -0.1408  0.0597 -0.0627
13617TIP3    H162266   1.394   2.689  11.901 -0.0234  0.2093  0.0230
13617TIP3    H262267   1.324   2.583  11.983  0.2742 -0.6488 -0.8066
13618TIP3   OH262268   4.321   3.750  12.197  0.0381  0.2812  0.6201
13618TIP3    H162269   4.288   3.795  12.275 -1.9192 -1.9264  1.1882
13618TIP3    H262270   4.270   3.669  12.193  2.6363 -1.4092 -0.9020
13619TIP3   OH262271   2.370   0.443   2.237 -0.3253 -0.0562  0.1721
13619TIP3    H162272   2.420   0.524   2.247 -0.2292 -0.1184  0.2001
13619TIP3    H262273   2.383   0.417   2.146  0.1682 -0.3811  0.3342
13620TIP3   OH262274   6.664   4.951  15.603  0.2012 -0.7244  0.4758
13620TIP3    H162275   6.648   4.899  15.524  0.0286 -1.5293  1.0265
13620TIP3    H262276   6.670   4.886  15.673  1.7770 -0.1361  0.9269
13621TIP3   OH262277   5.236   6.050  13.572 -0.0195  0.5677  0.2393
13621TIP3    H162278   5.326   6.039  13.541 -1.1145 -1.8598 -2.6673
13621TIP3    H262279   5.218   5.970  13.621 -1.1654 -0.0786 -1.1381
13622TIP3   OH262280   0.198   4.937   4.400 -0.0942  0.4713 -1.1986
13622TIP3    H162281   0.246   4.894   4.329 -0.3192 -0.5403 -0.7690
13622TIP3    H262282   0.265   4.955   4.466 -0.2726 -0.9835 -0.5800
13623TIP3   OH262283   4.178   4.434   5.057 -0.3466 -0.0845 -0.5842
13623TIP3    H162284   4.248   4.496   5.075 -0.8031  0.6934 -1.3889
13623TIP3    H262285   4.138   4.417   5.142  0.8379 -0.5837 -0.1061
13624TIP3   OH262286   6.416   6.564   3.002 -0.1136 -0.0688  0.5112
13624TIP3    H162287   6.492   6.542   2.949 -0.7712 -0.2632 -0.3837
13624TIP3    H262288   6.376   6.480   3.022  0.1742 -0.0028  1.4080
13625TIP3   OH262289   3.237   3.027   2.402  0.5989 -0.1791 -0.2188
13625TIP3    H162290   3.305   3.085   2.370  0.9526  1.2429  2.7395
13625TIP3    H262291   3.166   3.034   2.339  1.6085  1.5242 -1.2162
13626TIP3   OH262292   1.723   4.110   2.476  0.5912  0.4643  0.1586
13626TIP3    H162293   1.801   4.161   2.452  2.4301 -1.9200  0.6232
13626TIP3    H262294   1.687   4.081   2.392  1.7989 -0.5631 -0.0380
13627TIP3   OH262295   1.535   1.367   1.998 -0.7667 -0.1139 -0.2106
13627TIP3    H162296   1.466   1.416   1.953 -1.0790  1.5977  1.9853
13627TIP3    H262297   1.490   1.293   2.038 -0.7273 -0.8336 -1.4479
13628TIP3   OH262298   5.309   3.189  14.242  0.3676  0.0523 -0.5827
13628TIP3    H162299   5.332   3.264  14.188  0.3095 -0.4634 -1.3420
13628TIP3    H262300   5.328   3.113  14.187 -0.1660 -0.4701 -0.0637
13629TIP3   OH262301   3.468   4.978  13.679  0.0708  0.3688  0.0624
13629TIP3    H162302   3.396   4.928  13.641 -0.4156  2.0830 -1.4404
13629TIP3    H262303   3.429   5.023  13.754  0.8617 -2.4765  2.3503
13630TIP3   OH262304   3.099   5.298  11.741  0.0483 -0.4500 -0.6056
13630TIP3    H162305   3.115   5.227  11.803 -0.5781  0.8375  1.1177
13630TIP3    H262306   3.005   5.314  11.746 -0.3791 -1.5403 -3.3656
13631TIP3   OH262307   2.345   4.797  15.652 -0.2698  0.1712  0.0006
13631TIP3    H162308   2.378   4.859  15.718  1.5071 -0.0181 -0.6672
13631TIP3    H262309   2.403   4.808  15.577  1.1540 -3.4270  0.3929
13632TIP3   OH262310   3.808   3.505   6.033 -0.3114 -0.2130 -0.1803
13632TIP3    H162311   3.742   3.529   6.098 -0.5730 -1.1033 -0.1042
13632TIP3    H262312   3.879   3.467   6.084  0.0887  0.3539 -0.3023
13633TIP3   OH262313   5.187   0.989  15.146 -0.4484  0.3872 -0.3686
13633TIP3    H162314   5.141   0.990  15.062  0.9516 -0.6662 -1.1909
13633TIP3    H262315   5.236   0.907  15.145 -1.5232 -0.3605  2.1333
13634TIP3   OH262316   2.653   2.293   3.353  0.9026  0.1200  0.4076
13634TIP3    H162317   2.728   2.347   3.378  1.2522 -0.9578  1.8159
13634TIP3    H262318   2.682   2.249   3.272  2.2481 -1.0740  1.4767
13635TIP3   OH262319   0.431   2.761  16.262 -0.4529 -0.4187 -0.6104
13635TIP3    H162320   0.343   2.797  16.277 -0.3981 -0.2401 -0.7112
13635TIP3    H262321   0.480   2.833  16.222 -0.6935 -0.9946 -2.0023
13636TIP3   OH262322   6.525   6.179  11.823  0.1925  0.4248 -0.0465
13636TIP3    H162323   6.451   6.189  11.764 -0.4112 -2.0857  0.1855
13636TIP3    H262324   6.486   6.175  11.911  0.3007 -2.5633 -0.0229
13637TIP3   OH262325   4.846   0.829   5.272 -0.1754  0.8621 -0.3278
13637TIP3    H162326   4.929   0.857   5.234 -1.0438  0.6047 -2.6161
13637TIP3    H262327   4.849   0.733   5.270  0.3762  0.7947  1.8087
13638TIP3   OH262328   0.941   2.475  12.762  0.0189 -0.3423 -0.1810
13638TIP3    H162329   0.972   2.546  12.705  1.4453 -0.9721 -0.2346
13638TIP3    H262330   0.880   2.518  12.822  0.7436  0.9161 -0.2994
13639TIP3   OH262331   1.662   1.261  16.192 -0.3960  0.3876 -0.3571
13639TIP3    H162332   1.580   1.220  16.164 -0.9280  0.6800  0.6997
13639TIP3    H262333   1.634   1.332  16.250  0.5863  0.9757 -0.5864
13640TIP3   OH262334   0.618   4.119   0.391 -0.0304 -0.0086  0.4826
13640TIP3    H162335   0.617   4.192   0.329 -0.8547 -1.4698 -1.2979
13640TIP3    H262336   0.705   4.081   0.382 -0.0973 -0.1285  0.3503
13641TIP3   OH262337   6.582   0.964  15.480 -0.3598  0.4878  0.7040
13641TIP3    H162338   6.658   0.947  15.536  0.1984  2.0578  0.4816
13641TIP3    H262339   6.518   1.003  15.539  0.3191  2.3769  0.2880
13642TIP3   OH262340   2.988   0.355  13.929 -0.3951 -0.3168  0.2872
13642TIP3    H162341   3.025   0.414  13.995 -0.4933  0.3009 -0.1977
13642TIP3    H262342   2.944   0.287  13.980  1.2809 -1.0036  0.8787
13643TIP3   OH262343   0.124   1.260   1.243 -0.2721 -0.3240 -0.2117
13643TIP3    H162344   0.193   1.198   1.269 -0.1487 -0.3310 -0.5604
13643TIP3    H262345   0.090   1.292   1.327  0.5368  0.0980 -0.0281
13644TIP3   OH262346   2.164   3.743  13.834 -0.0841 -0.9636 -0.2929
13644TIP3    H162347   2.095   3.798  13.872 -0.3149 -0.4512 -1.4117
13644TIP3    H262348   2.149   3.657  13.872 -0.9357 -0.7092 -0.0238
13645TIP3   OH262349   6.377   2.248   3.443 -0.6858  0.1669  0.2599
13645TIP3    H162350   6.469   2.226   3.458 -0.9129 -0.0861  1.3038
13645TIP3    H262351   6.337   2.165   3.418 -1.2138 -0.3759  2.6623
13646TIP3   OH262352   4.528   5.095  12.146  0.1443 -0.3985 -0.4941
13646TIP3    H162353   4.545   5.098  12.241  0.0146  1.2620 -0.4887
13646TIP3    H262354   4.532   5.002  12.124 -0.3072 -0.8680  1.2249
13647TIP3   OH262355   6.188   5.866  14.191  0.4367 -0.4114 -0.2590
13647TIP3    H162356   6.165   5.957  14.170  0.6262 -0.4778 -0.7543
13647TIP3    H262357   6.104   5.820  14.190  0.0037  0.1514  2.1373
13648TIP3   OH262358   6.447   4.724  11.640 -0.1924  0.0269 -0.1293
13648TIP3    H162359   6.453   4.820  11.645 -1.1858  0.1712 -1.1693
13648TIP3    H262360   6.505   4.700  11.567 -0.7713 -0.0301 -0.5861
13649TIP3   OH262361   2.033   1.883   5.219 -0.2726  0.0490  0.1735
13649TIP3    H162362   1.987   1.814   5.171  0.8189 -0.1107 -0.6849
13649TIP3    H262363   2.039   1.955   5.157 -1.1291  0.8271  0.9598
13650TIP3   OH262364   4.805   6.379   6.229  0.5596 -0.3228  0.1970
13650TIP3    H162365   4.783   6.443   6.298  0.4805  1.6012 -1.5118
13650TIP3    H262366   4.794   6.428   6.148 -1.1529 -3.0451 -1.3290
13651TIP3   OH262367   6.424   0.800   4.478 -0.2572  0.0193  0.9199
13651TIP3    H162368   6.507   0.793   4.432  0.0375 -1.0416  1.5793
13651TIP3    H262369   6.402   0.894   4.474  1.7121  0.5871  2.0350
13652TIP3   OH262370   0.894   5.649   1.073  0.3629 -0.3086 -0.9769
13652TIP3    H162371   0.888   5.733   1.120 -2.2341 -0.0250 -1.6594
13652TIP3    H262372   0.884   5.583   1.141 -0.9900  0.0570 -0.7728
13653TIP3   OH262373   2.892   5.170   1.695  0.3221 -0.0672 -0.0673
13653TIP3    H162374   2.808   5.189   1.736  0.8483 -0.2399  1.1139
13653TIP3    H262375   2.948   5.142   1.767  0.9017 -1.6290 -1.0740
13654TIP3   OH262376   0.699   1.440   2.412 -0.0051 -1.0303  0.2150
13654TIP3    H162377   0.650   1.491   2.477  0.9300  0.8401 -0.4830
13654TIP3    H262378   0.776   1.409   2.459  0.5694  0.1518  0.0828
13655TIP3   OH262379   4.912   4.499   5.985  0.1173 -0.5043 -0.3389
13655TIP3    H162380   4.886   4.558   5.914 -1.5494 -0.5320  0.2143
13655TIP3    H262381   4.879   4.541   6.064  0.5878 -1.2558  0.2675
13656TIP3   OH262382   6.731   3.560  13.918  0.0029  0.5683  0.0444
13656TIP3    H162383   6.688   3.642  13.891  0.9628  0.6465 -1.3531
13656TIP3    H262384   6.715   3.500  13.846 -2.3372 -1.1771  1.8630
13657TIP3   OH262385   4.552   5.008  15.808 -0.1236 -0.4293  0.2599
13657TIP3    H162386   4.568   4.920  15.773  0.0278 -0.0184 -0.7535
13657TIP3    H262387   4.486   4.995  15.876 -1.5442 -1.1219 -1.1782
13658TIP3   OH262388   5.454   2.806   3.430  0.2198  0.2034 -0.5282
13658TIP3    H162389   5.455   2.846   3.517 -1.1238  1.0191 -0.8500
13658TIP3    H262390   5.495   2.721   3.442 -0.3027  0.1290  0.9954
13659TIP3   OH262391   5.716   0.052  12.364 -0.4245  1.2017 -0.2297
13659TIP3    H162392   5.808   0.041  12.388 -0.8295  0.7130  1.2140
13659TIP3    H262393   5.681   0.111  12.430 -0.6259  3.3542 -2.1556
13660TIP3   OH262394   2.785   1.573   1.154 -0.3278  0.5117 -0.1609
13660TIP3    H162395   2.693   1.591   1.132 -0.5846 -0.3533  0.2006
13660TIP3    H262396   2.807   1.496   1.102  0.0579  0.4339  0.1186
13661TIP3   OH262397   2.347   2.997  15.035  0.3505 -0.2061 -0.1635
13661TIP3    H162398   2.285   3.044  14.978 -2.3543 -2.4406  0.7386
13661TIP3    H262399   2.312   2.908  15.041  2.5281 -1.0223  2.1316
13662TIP3   OH262400   0.240   1.099  15.890  0.2082  0.0884 -0.2695
13662TIP3    H162401   0.194   1.158  15.830 -0.2116  2.2894  2.0119
13662TIP3    H262402   0.176   1.032  15.913 -0.3599  0.5027 -0.6250
13663TIP3   OH262403   0.804   1.098  14.502 -0.5207  0.4764  0.7931
13663TIP3    H162404   0.730   1.051  14.463 -0.2569  1.4789 -1.0021
13663TIP3    H262405   0.787   1.190  14.482  1.7084  0.6529 -0.6237
13664TIP3   OH262406   3.475   3.422   6.208 -0.4319  0.8616 -0.8278
13664TIP3    H162407   3.527   3.488   6.253 -0.6102  1.3774 -1.3699
13664TIP3    H262408   3.539   3.357   6.179 -0.3641  0.2835  0.5448
13665TIP3   OH262409   0.006   0.530  14.768 -0.5651  0.1785 -0.9717
13665TIP3    H162410   0.078   0.468  14.769 -0.1977  0.5807 -1.9778
13665TIP3    H262411  -0.064   0.486  14.816 -0.1582 -0.8185 -1.2800
13666TIP3   OH262412   0.801   0.005   4.233  0.0519  0.0709  0.3754
13666TIP3    H162413   0.848  -0.077   4.216 -1.2762 -0.5837 -0.2976
13666TIP3    H262414   0.851   0.071   4.186  0.7320 -0.4814  0.3021
13667TIP3   OH262415   1.786   4.774  12.358 -0.8487 -0.0454 -0.1593
13667TIP3    H162416   1.829   4.708  12.304  0.4334  1.6018 -1.2850
13667TIP3    H262417   1.858   4.825  12.395 -1.7446  2.4938 -1.6626
13668TIP3   OH262418   1.897   5.851  13.507 -0.3236 -0.2031 -0.2708
13668TIP3    H162419   1.986   5.887  13.504 -0.5283  0.2755 -0.5396
13668TIP3    H262420   1.896   5.799  13.588  0.3708 -0.6592 -0.5435
13669TIP3   OH262421   2.819   2.719   2.139 -0.2088  0.0108 -0.5187
13669TIP3    H162422   2.832   2.812   2.158 -0.8108  0.1241 -0.6559
13669TIP3    H262423   2.782   2.717   2.051 -0.1875 -0.3605 -0.5209
13670TIP3   OH262424   2.928   0.184   3.464 -0.4127  0.0449  0.5148
13670TIP3    H162425   3.002   0.125   3.451 -1.5638 -1.5295  0.8049
13670TIP3    H262426   2.905   0.174   3.556 -2.5737 -1.5257 -0.1161
13671TIP3   OH262427   1.373   5.430   5.093 -0.0831 -0.5422 -1.0168
13671TIP3    H162428   1.332   5.477   5.020  0.2264  0.0950 -0.7835
13671TIP3    H262429   1.359   5.486   5.169  1.6286 -0.0555 -1.0076
13672TIP3   OH262430   6.177   6.654  11.296 -0.4858 -0.0438  0.4537
13672TIP3    H162431   6.159   6.739  11.336 -0.1650 -0.0269  0.5714
13672TIP3    H262432   6.165   6.591  11.366  0.9351  0.0671  0.8257
13673TIP3   OH262433   4.495   4.181  11.838  0.2183  0.1174  0.0623
13673TIP3    H162434   4.549   4.141  11.770 -0.9119 -1.3808  0.0051
13673TIP3    H262435   4.480   4.270  11.808  0.7548 -0.1464 -1.0297
13674TIP3   OH262436   5.379   2.957  17.114  0.4084 -0.0783  0.2297
13674TIP3    H162437   5.303   2.901  17.131 -0.1953  0.6414 -0.0818
13674TIP3    H262438   5.452   2.895  17.104 -0.0011 -0.7405  1.1916
13675TIP3   OH262439   3.155   4.362  14.598 -0.0058 -0.0366  0.1051
13675TIP3    H162440   3.072   4.349  14.644 -0.6213  2.5037 -0.1467
13675TIP3    H262441   3.209   4.288  14.626 -1.1842  0.0270  2.9577
13676TIP3   OH262442   5.234   1.505   4.059  0.5084  0.2699 -0.7039
13676TIP3    H162443   5.234   1.554   4.142  0.8665 -1.1589  0.1807
13676TIP3    H262444   5.156   1.535   4.014  0.7372  1.6820 -0.2288
13677TIP3   OH262445   4.766   2.381  15.278  0.1374  0.6484 -0.5613
13677TIP3    H162446   4.805   2.466  15.261  1.5445  0.5514  1.7027
13677TIP3    H262447   4.742   2.383  15.371  1.0465 -1.6830 -0.1950
13678TIP3   OH262448   4.239   2.771   6.815 -0.5553  0.8655 -0.2939
13678TIP3    H162449   4.314   2.809   6.770  0.1344  0.7322  0.7159
13678TIP3    H262450   4.226   2.685   6.773 -1.1711  1.5347 -1.5499
13679TIP3   OH262451   5.277   2.433  16.156 -0.6018  0.2815 -0.0419
13679TIP3    H162452   5.215   2.503  16.135  1.2287  1.9288 -0.2540
13679TIP3    H262453   5.312   2.405  16.071 -1.0241 -0.6387  0.0706
13680TIP3   OH262454   4.065   3.217  11.787  0.0154  0.1738 -0.2980
13680TIP3    H162455   4.139   3.243  11.842  0.1285 -1.2954  0.3057
13680TIP3    H262456   4.103   3.203  11.700  0.2491  0.4083 -0.2351
13681TIP3   OH262457   3.576   5.839   0.629 -0.0312 -0.4966 -0.1307
13681TIP3    H162458   3.493   5.880   0.605  1.2613  2.6598  0.4021
13681TIP3    H262459   3.624   5.834   0.547 -0.0119 -0.5405 -0.1167
13682TIP3   OH262460   1.190   4.583   0.546 -0.1874 -0.2258 -0.8682
13682TIP3    H162461   1.237   4.657   0.586  1.1546 -0.9891 -0.9667
13682TIP3    H262462   1.183   4.606   0.454  0.8083 -0.4876 -1.0218
13683TIP3   OH262463   0.430   3.888   6.887 -0.5582 -0.7402  0.3949
13683TIP3    H162464   0.351   3.925   6.847 -0.8354 -0.5250  1.1262
13683TIP3    H262465   0.406   3.798   6.909  0.2383 -1.5368 -1.7373
13684TIP3   OH262466   0.636   2.447  11.033  0.5234  0.3513  0.3162
13684TIP3    H162467   0.655   2.539  11.054  0.1182  0.6698 -0.6279
13684TIP3    H262468   0.716   2.416  10.991  1.1540 -0.1394  1.8513
13685TIP3   OH262469   4.959   1.765   1.506  0.0745 -0.2484  0.1072
13685TIP3    H162470   4.924   1.722   1.584  2.0171 -0.9375  0.6620
13685TIP3    H262471   4.907   1.730   1.434 -1.5585  0.1749  1.0439
13686TIP3   OH262472   6.127   4.555  12.974  0.2363  0.2377  0.2710
13686TIP3    H162473   6.201   4.614  12.966 -0.0358  0.3871 -1.2840
13686TIP3    H262474   6.167   4.467  12.975  0.4854  0.3496  0.2801
13687TIP3   OH262475   0.004   5.731   2.738  0.4107 -0.0316 -0.2091
13687TIP3    H162476  -0.074   5.713   2.685 -1.1947  0.0699  2.0076
13687TIP3    H262477  -0.018   5.809   2.788  2.7961  1.3033 -1.0293
13688TIP3   OH262478   2.606   2.938  14.878 -0.7200  0.1034  0.7183
13688TIP3    H162479   2.595   2.849  14.912 -1.1471  0.1989  0.8449
13688TIP3    H262480   2.638   2.926  14.789 -0.3616 -0.1688  0.8810
13689TIP3   OH262481   2.506   0.199   3.810  0.2455 -0.4596 -0.0721
13689TIP3    H162482   2.450   0.233   3.740  0.2239  0.3931  0.3491
13689TIP3    H262483   2.445   0.158   3.871  0.1257  0.0588  0.1562
13690TIP3   OH262484   4.156   1.046   0.068 -0.4979 -0.3701  0.0361
13690TIP3    H162485   4.150   1.119   0.007 -1.1083 -1.4983 -1.3037
13690TIP3    H262486   4.221   1.074   0.133 -0.6969  1.3267 -0.4494
13691TIP3   OH262487   0.253   1.979  12.433 -0.3115 -0.5224  0.2761
13691TIP3    H162488   0.264   1.988  12.528  4.0729 -1.8869  0.1267
13691TIP3    H262489   0.289   2.059  12.397 -0.7202 -0.5793 -0.2583
13692TIP3   OH262490   6.696   3.820  16.727 -0.1028 -0.4907  0.2891
13692TIP3    H162491   6.699   3.915  16.715  2.8385 -0.5327 -0.2505
13692TIP3    H262492   6.612   3.793  16.690 -1.9915  2.0355  2.3385
13693TIP3   OH262493   0.346   0.794   5.893 -0.0545  0.7004  0.0026
13693TIP3    H162494   0.368   0.710   5.853 -0.2624  1.0768 -0.9316
13693TIP3    H262495   0.372   0.860   5.828 -0.1315  1.3475  0.6119
13694TIP3   OH262496   4.960   4.136  12.999 -0.3148  0.5938  0.2903
13694TIP3    H162497   4.902   4.205  12.967 -0.7276  1.2550  2.3057
13694TIP3    H262498   4.964   4.150  13.094  3.0438  0.4978  0.2812
13695TIP3   OH262499   3.904   4.489  11.462 -0.6383 -0.1691 -0.6166
13695TIP3    H162500   3.847   4.475  11.537 -1.1322  1.0738 -0.7355
13695TIP3    H262501   3.847   4.526  11.394  0.2086  0.7616 -0.8545
13696TIP3   OH262502   1.273   4.058   1.550 -0.3927  0.2353 -0.1889
13696TIP3    H162503   1.200   4.100   1.596 -0.6763 -0.2243 -0.2117
13696TIP3    H262504   1.260   3.965   1.566 -0.4923  0.0665 -1.1949
13697TIP3   OH262505   3.880   3.039  15.465  0.2862  0.3258  0.0718
13697TIP3    H162506   3.916   3.010  15.381  3.0728 -0.6969  1.4845
13697TIP3    H262507   3.787   3.053  15.448  0.6479 -0.3446 -3.0306
13698TIP3   OH262508   6.380   2.274  13.247 -0.2623 -0.0703 -0.4664
13698TIP3    H162509   6.351   2.211  13.180  0.1241 -0.1906 -0.5261
13698TIP3    H262510   6.466   2.303  13.216 -1.0166  1.5309 -1.1568
13699TIP3   OH262511   2.499   0.221  12.904  0.1791  0.3319 -0.4554
13699TIP3    H162512   2.408   0.211  12.931  0.7083 -0.8988  1.0591
13699TIP3    H262513   2.495   0.247  12.812 -1.6882  0.5428 -0.3424
13700TIP3   OH262514   6.564   5.221   0.376 -0.4736 -0.1694 -0.2166
13700TIP3    H162515   6.590   5.175   0.296  0.1325 -2.0458  0.9945
13700TIP3    H262516   6.610   5.176   0.446 -1.8517  0.6984  1.3259
13701TIP3   OH262517   2.709   4.882  12.133 -0.3253 -0.1526  0.2066
13701TIP3    H162518   2.709   4.968  12.176  3.2523 -0.0361  0.2624
13701TIP3    H262519   2.681   4.821  12.202 -0.5517  0.6757  0.8688
13702TIP3   OH262520   0.105   6.076   4.023 -0.1884 -0.1634  0.3342
13702TIP3    H162521   0.121   6.152   3.967 -3.0385 -0.3565 -0.9044
13702TIP3    H262522   0.161   6.090   4.099  0.2898  2.5449 -0.4141
13703TIP3   OH262523   6.385   2.173  14.543 -0.1875 -0.1489 -0.4411
13703TIP3    H162524   6.302   2.218  14.558  0.8804  1.7274  0.1872
13703TIP3    H262525   6.417   2.209  14.461  0.3018 -0.4150 -0.3707
13704TIP3   OH262526   3.071   3.464   1.543 -0.6077  0.0319 -0.0704
13704TIP3    H162527   3.092   3.383   1.496 -1.0372  0.9140 -1.8391
13704TIP3    H262528   3.155   3.495   1.576 -0.4564 -1.1777  0.7331
13705TIP3   OH262529   6.420   3.546  12.471 -0.0827  0.1002  0.2821
13705TIP3    H162530   6.441   3.615  12.409 -1.0221  1.4035  1.3550
13705TIP3    H262531   6.327   3.529  12.457 -0.0462 -0.3703  0.5854
13706TIP3   OH262532   4.830   4.613   2.466  0.0386  0.3797 -0.5368
13706TIP3    H162533   4.900   4.572   2.415 -0.0454 -2.4794  1.3601
13706TIP3    H262534   4.875   4.670   2.528  0.6026 -0.1849 -0.4156
13707TIP3   OH262535   2.430   1.928  16.038 -0.6396  0.2958 -0.0636
13707TIP3    H162536   2.355   1.935  15.979 -0.0783  1.6805 -0.6592
13707TIP3    H262537   2.404   1.978  16.116 -0.0783  1.3874 -0.5647
13708TIP3   OH262538   6.718   1.178   6.044  0.7003 -0.6129  0.1804
13708TIP3    H162539   6.623   1.186   6.057  0.9565  0.2868  1.7915
13708TIP3    H262540   6.753   1.165   6.132  2.3165  2.1438  0.0600
13709TIP3   OH262541   1.583   4.109   4.279  0.0829 -0.4085 -0.2928
13709TIP3    H162542   1.676   4.120   4.256  0.0921 -2.8141 -1.7735
13709TIP3    H262543   1.583   4.095   4.373  0.9510  1.7394  0.0901
13710TIP3   OH262544   0.310   2.434  15.735 -0.8492  0.1013  0.1423
13710TIP3    H162545   0.364   2.487  15.677 -0.5886 -1.8834 -1.5493
13710TIP3    H262546   0.296   2.489  15.812  0.6962  1.9673 -0.8270
13711TIP3   OH262547   3.210   3.365   3.625 -0.3772 -0.1712  0.1988
13711TIP3    H162548   3.169   3.295   3.675  0.6572 -0.8288  0.1539
13711TIP3    H262549   3.218   3.329   3.536 -2.3496  1.0397 -0.5455
13712TIP3   OH262550   5.088   3.628   2.790 -0.1971  0.1223  0.3440
13712TIP3    H162551   5.092   3.543   2.746  0.8200 -0.6919  1.9253
13712TIP3    H262552   4.994   3.650   2.790 -0.4233 -0.7540 -0.5096
13713TIP3   OH262553   5.744   0.944   3.386 -0.3499 -0.0530  0.5710
13713TIP3    H162554   5.665   0.933   3.438 -1.7351 -0.9905 -1.6113
13713TIP3    H262555   5.798   0.868   3.408 -1.2055 -0.7854  0.1968
13714TIP3   OH262556   5.741   6.147   3.356  0.3213  0.0946  0.8181
13714TIP3    H162557   5.804   6.216   3.376 -0.1982  1.3922 -1.6503
13714TIP3    H262558   5.741   6.141   3.260 -0.5640 -2.5094  0.9085
13715TIP3   OH262559   5.910   4.502  17.024  0.0383 -0.0029 -0.2637
13715TIP3    H162560   5.965   4.447  16.968  0.6873  2.0196 -1.7497
13715TIP3    H262561   5.962   4.582  17.037 -1.5895  1.0128  0.2503
13716TIP3   OH262562   5.276   2.391   4.122 -0.6196  0.3776  0.0003
13716TIP3    H162563   5.272   2.433   4.207  0.7816  0.8628 -0.1493
13716TIP3    H262564   5.351   2.332   4.127 -2.3884 -2.0309  0.1368
13717TIP3   OH262565   1.287   4.394  13.012 -0.7794  0.0817 -0.0015
13717TIP3    H162566   1.268   4.487  13.005 -2.7772 -0.2392  0.5314
13717TIP3    H262567   1.308   4.380  13.104 -1.3880 -0.1344  0.1075
13718TIP3   OH262568   6.027   4.087   5.327  0.0467 -0.4947  0.1865
13718TIP3    H162569   6.058   4.171   5.363 -0.2926  0.2109 -1.0916
13718TIP3    H262570   6.101   4.027   5.337  0.8906  0.4183 -0.3588
13719TIP3   OH262571   0.217   2.448   1.634 -0.7061  0.0738 -0.7886
13719TIP3    H162572   0.162   2.405   1.699 -0.0370 -1.6892 -1.3529
13719TIP3    H262573   0.296   2.473   1.681  0.0557 -1.7836 -1.0297
13720TIP3   OH262574   6.526   0.792   3.087  0.3368  0.1251  0.6558
13720TIP3    H162575   6.496   0.706   3.116  0.7331  0.0197  0.7539
13720TIP3    H262576   6.481   0.854   3.144  0.3059 -0.0324  0.8019
13721TIP3   OH262577   3.837   5.151   2.714  0.3135 -0.2422  0.0099
13721TIP3    H162578   3.898   5.206   2.762  0.1954 -0.4351  0.3824
13721TIP3    H262579   3.786   5.107   2.782 -0.4527  0.1496 -0.2920
13722TIP3   OH262580   3.498   2.472   4.367 -0.0587 -0.7907  0.2363
13722TIP3    H162581   3.428   2.432   4.314 -0.9404  0.5482  0.3289
13722TIP3    H262582   3.459   2.482   4.453 -1.2759  3.4669 -0.5810
13723TIP3   OH262583   5.751   0.139  16.733 -0.2399  0.4031  0.1812
13723TIP3    H162584   5.807   0.153  16.656 -1.1549 -0.8231 -0.7354
13723TIP3    H262585   5.672   0.099  16.699  0.2105 -2.3256  1.9745
13724TIP3   OH262586   6.559   0.315   0.880  0.3263  0.2795 -0.0354
13724TIP3    H162587   6.520   0.396   0.847 -0.2982 -0.6493 -1.7117
13724TIP3    H262588   6.629   0.344   0.938 -2.3772  2.0309  2.5922
13725TIP3   OH262589   3.906   2.877   4.259  0.1669  0.0393  0.2527
13725TIP3    H162590   3.844   2.805   4.275  0.4793  0.0626  1.7522
13725TIP3    H262591   3.888   2.939   4.330 -0.9542  2.0803 -1.7170
13726TIP3   OH262592   4.636   3.240   3.876 -0.3525 -0.2647  0.7559
13726TIP3    H162593   4.589   3.323   3.876 -1.8806 -0.9628 -2.3509
13726TIP3    H262594   4.572   3.175   3.905  0.0974 -0.6641  0.8857
13727TIP3   OH262595   6.695   4.837  16.017  0.0696  0.2931 -0.0554
13727TIP3    H162596   6.688   4.863  16.109  3.0891 -0.8956  0.6320
13727TIP3    H262597   6.704   4.920  15.969 -1.6963  0.9348  0.6426
13728TIP3   OH262598   0.017   4.892   6.019 -0.3939  0.2451  0.3138
13728TIP3    H162599  -0.077   4.885   6.033  0.0335 -1.4456  2.9479
13728TIP3    H262600   0.046   4.802   6.005  1.0709  0.4865  1.5402
13729TIP3   OH262601   6.666   2.825   6.066 -0.4407 -0.7080  0.1883
13729TIP3    H162602   6.723   2.894   6.100  0.8215 -1.0610 -1.1310
13729TIP3    H262603   6.667   2.757   6.134  0.9153 -0.8084  0.0964
13730TIP3   OH262604   0.037   1.451   2.426  0.2640 -0.3064  0.4367
13730TIP3    H162605   0.021   1.396   2.349  0.3057 -0.6343  0.6623
13730TIP3    H262606   0.109   1.508   2.399 -0.6842  0.6013 -0.2855
13731TIP3   OH262607   1.429   4.800   0.095  0.6852 -0.1577 -0.2798
13731TIP3    H162608   1.422   4.706   0.110  0.2014 -0.1761 -0.6012
13731TIP3    H262609   1.522   4.820   0.110  0.6729 -0.5732  0.3981
13732TIP3   OH262610   4.024   6.746  17.131  0.1601  0.5631  0.1757
13732TIP3    H162611   3.991   6.817  17.076 -0.8964 -0.3347 -0.3874
13732TIP3    H262612   4.015   6.667  17.078 -2.8189 -0.6714  2.2391
13733TIP3   OH262613   5.769   1.483  17.016  0.4118  0.3697 -0.2158
13733TIP3    H162614   5.831   1.460  17.085 -0.8278 -0.2957  0.7114
13733TIP3    H262615   5.690   1.432  17.036  0.0405  0.0850 -2.1815
13734TIP3   OH262616   0.754   5.126  14.163  0.1890  0.3129  0.2938
13734TIP3    H162617   0.673   5.142  14.211 -1.0920 -1.8198 -1.0067
13734TIP3    H262618   0.822   5.164  14.218 -1.5524  1.1031  2.0199
13735TIP3   OH262619   0.507   6.374  12.558  0.1192 -0.0547 -0.0544
13735TIP3    H162620   0.478   6.380  12.649 -0.3331 -1.0649 -0.1145
13735TIP3    H262621   0.461   6.445  12.513 -0.3127 -0.0761  0.3438
13736TIP3   OH262622   2.954   2.450  16.292  0.0595 -0.3425 -0.1230
13736TIP3    H162623   2.868   2.419  16.322  0.5817 -0.0735  1.8185
13736TIP3    H262624   2.948   2.449  16.197 -1.7106 -1.3931 -0.0498
13737TIP3   OH262625   0.148   3.240   3.596 -0.2637 -0.0217 -0.1290
13737TIP3    H162626   0.126   3.222   3.505  1.6208  2.0578 -1.0711
13737TIP3    H262627   0.193   3.160   3.626  0.2927 -0.2316 -1.4554
13738TIP3   OH262628   6.013   4.420   3.288  0.6034 -0.1676 -0.4081
13738TIP3    H162629   6.061   4.341   3.311  0.9534  0.3997  0.9144
13738TIP3    H262630   6.009   4.471   3.369 -0.0850  0.9299 -1.0898
13739TIP3   OH262631   4.963   0.182  11.784  0.3373  0.1878  0.0001
13739TIP3    H162632   4.980   0.254  11.845  1.1005  0.9974 -1.1278
13739TIP3    H262633   4.909   0.221  11.716 -0.1987 -0.6166 -0.0493
13740TIP3   OH262634   5.593   2.949   3.136 -0.4324  0.0460 -0.6560
13740TIP3    H162635   5.652   3.014   3.174 -1.4636  0.5461  0.1244
13740TIP3    H262636   5.634   2.865   3.158  0.2939  0.3962 -0.6417
13741TIP3   OH262637   3.648   3.078   1.531  0.0793 -0.1786  0.2930
13741TIP3    H162638   3.651   3.149   1.466  2.8470  1.8988  2.4024
13741TIP3    H262639   3.741   3.059   1.548 -0.5878 -2.0468  2.1722
13742TIP3   OH262640   0.507   0.861  16.068 -0.0680  0.1366  0.0505
13742TIP3    H162641   0.557   0.827  15.994 -0.1583  0.7563 -0.2999
13742TIP3    H262642   0.568   0.859  16.141  0.2594  0.2602 -0.2197
13743TIP3   OH262643   2.629   6.102  14.964 -0.3998  0.0887  0.3820
13743TIP3    H162644   2.536   6.100  14.989 -0.1995 -0.4763  1.1113
13743TIP3    H262645   2.637   6.036  14.895 -0.5349  0.1431  0.3125
13744TIP3   OH262646   2.142   0.940  14.123 -0.6251  0.3148  0.4667
13744TIP3    H162647   2.123   0.976  14.036 -0.7032  1.3209  0.8907
13744TIP3    H262648   2.169   1.016  14.175 -1.7126 -0.0729  1.6394
13745TIP3   OH262649   3.949   5.718   2.075 -0.0302  0.1706  0.4737
13745TIP3    H162650   3.913   5.630   2.076  1.4435 -0.4866 -0.8076
13745TIP3    H262651   4.040   5.708   2.102  0.9782  0.8124 -2.3101
13746TIP3   OH262652   2.296   4.221   5.772 -0.1310  0.5828 -0.7644
13746TIP3    H162653   2.286   4.207   5.866 -2.6019  1.9367 -0.7255
13746TIP3    H262654   2.275   4.137   5.733 -3.0685  0.9218 -0.1605
13747TIP3   OH262655   0.759   2.934   0.348 -0.4234 -1.0474  0.3760
13747TIP3    H162656   0.703   2.943   0.425 -0.2302  1.3115  0.3212
13747TIP3    H262657   0.732   3.006   0.291  0.3742 -1.9274 -1.1530
13748TIP3   OH262658   1.624   5.728  16.433  0.0913  0.3187  0.2099
13748TIP3    H162659   1.712   5.710  16.399 -0.1962  0.2650 -0.5183
13748TIP3    H262660   1.636   5.802  16.493  0.5548  0.6486 -0.2839
13749TIP3   OH262661   2.221   5.638  11.290  0.1315  0.2266 -0.1244
13749TIP3    H162662   2.142   5.673  11.331  1.5864  1.0398  2.2103
13749TIP3    H262663   2.206   5.544  11.286 -0.8941  0.3501  0.3898
13750TIP3   OH262664   4.924   5.440   2.905  0.4176 -0.1796  0.3649
13750TIP3    H162665   4.998   5.402   2.954 -0.3183 -0.2082  1.4827
13750TIP3    H262666   4.945   5.533   2.900  0.1086 -0.0322  1.4870
13751TIP3   OH262667   0.755   2.932  11.909  0.5257  0.4437  0.3114
13751TIP3    H162668   0.702   2.870  11.960  0.2506  1.3962  1.2379
13751TIP3    H262669   0.823   2.961  11.970 -0.2573  2.1734  0.4289
13752TIP3   OH262670   3.031   0.518   2.375  0.1351 -0.0197  0.0398
13752TIP3    H162671   3.056   0.577   2.304 -0.8922 -0.9077 -1.1063
13752TIP3    H262672   3.007   0.577   2.447  0.1710  0.9394 -0.7014
13753TIP3   OH262673   2.270   2.858   1.115  0.5494  0.0704 -0.0566
13753TIP3    H162674   2.277   2.809   1.033 -1.4011  2.5796 -1.8759
13753TIP3    H262675   2.191   2.824   1.157  0.3647  0.2640 -0.2546
13754TIP3   OH262676   4.474   2.259   2.653 -0.3166  0.1276  1.0937
13754TIP3    H162677   4.500   2.273   2.562 -0.7510  1.1090  1.1106
13754TIP3    H262678   4.525   2.183   2.681 -2.5802 -2.3278 -0.9647
13755TIP3   OH262679   2.638   2.630   0.685  0.1224  0.2933 -0.1612
13755TIP3    H162680   2.646   2.550   0.632  1.3205  1.2151 -1.4340
13755TIP3    H262681   2.569   2.680   0.642 -0.2716  0.1719  0.3299
13756TIP3   OH262682   0.981   1.793  13.759  0.0409 -0.2953 -0.1768
13756TIP3    H162683   1.002   1.710  13.802 -0.3322 -1.3642 -1.9961
13756TIP3    H262684   0.936   1.844  13.827  1.0305 -1.2181  1.2255
13757TIP3   OH262685   5.157   5.789  10.615  0.0566 -0.0792 -0.1600
13757TIP3    H162686   5.194   5.724  10.675  0.0218  0.3749  0.3663
13757TIP3    H262687   5.219   5.863  10.620  0.9913 -0.6880 -2.0103
13758TIP3   OH262688   6.284   1.001   6.786 -0.0768 -0.8789 -0.2640
13758TIP3    H162689   6.313   1.083   6.826  1.4933 -1.0871 -0.9059
13758TIP3    H262690   6.189   1.010   6.780 -0.0430  0.4363  0.6572
13759TIP3   OH262691   2.227   6.432   1.784  0.0443  0.5695  0.1288
13759TIP3    H162692   2.316   6.408   1.811 -0.4234 -0.2744  0.9634
13759TIP3    H262693   2.188   6.350   1.756 -0.7915  0.7756  0.6811
13760TIP3   OH262694   2.445   6.631   4.068 -0.2109 -0.0150  0.0374
13760TIP3    H162695   2.445   6.549   4.018  0.9208  0.4557 -0.7694
13760TIP3    H262696   2.533   6.668   4.054 -0.9426  1.7170 -0.2480
13761TIP3   OH262697   2.482   4.842   0.896 -0.0358  0.0748 -0.3663
13761TIP3    H162698   2.543   4.825   0.968 -0.6727 -0.0075  0.1642
13761TIP3    H262699   2.529   4.902   0.839  0.5965 -0.0930 -0.0374
13762TIP3   OH262700   3.647   6.426  15.912 -0.6751 -0.4787 -0.0566
13762TIP3    H162701   3.621   6.335  15.898 -2.6755  0.2568 -1.6144
13762TIP3    H262702   3.699   6.449  15.835  0.4213 -0.4763  0.6648
13763TIP3   OH262703   1.952   4.643  16.327  0.0239  0.1538 -0.3280
13763TIP3    H162704   1.888   4.574  16.347  1.1382 -0.9836 -0.5938
13763TIP3    H262705   1.944   4.705  16.400 -0.4131 -0.6762  0.3426
13764TIP3   OH262706   5.659   0.357   1.772 -0.0960 -0.4856 -0.1400
13764TIP3    H162707   5.593   0.341   1.840 -1.1674 -2.5286 -1.5546
13764TIP3    H262708   5.737   0.311   1.804  1.2203  2.8652  2.0857
13765TIP3   OH262709   3.062   4.481   4.980  0.3539  0.0631  0.1495
13765TIP3    H162710   2.967   4.475   4.980  0.2964  0.9111 -0.5340
13765TIP3    H262711   3.084   4.529   4.900  1.2206  2.0314  1.5149
13766TIP3   OH262712   0.206   6.494   5.748 -0.0913  0.6202 -0.5001
13766TIP3    H162713   0.170   6.440   5.677 -0.1563  0.5685 -0.4278
13766TIP3    H262714   0.144   6.567   5.756 -0.5149  0.2139  0.0335
13767TIP3   OH262715   6.096   3.474  12.247 -0.4639  0.1606  0.1954
13767TIP3    H162716   6.168   3.418  12.278 -1.2873 -1.9220 -1.3972
13767TIP3    H262717   6.018   3.439  12.290 -1.1672 -0.7921 -1.7200
13768TIP3   OH262718   2.427   3.334  13.933 -0.1070  0.3305  0.5096
13768TIP3    H162719   2.336   3.331  13.962 -0.2421 -1.4185  0.0060
13768TIP3    H262720   2.423   3.315  13.839  0.8688 -1.2478  0.7501
13769TIP3   OH262721   1.796   0.667   4.403  0.2154 -0.5352  0.1745
13769TIP3    H162722   1.703   0.654   4.421 -0.3501  2.7961  0.3079
13769TIP3    H262723   1.814   0.758   4.430  2.7885 -0.0790 -2.4840
13770TIP3   OH262724   1.201   5.387  13.936  0.0826 -0.0255  0.3233
13770TIP3    H162725   1.218   5.478  13.959 -0.5331  0.3748 -0.7081
13770TIP3    H262726   1.109   5.374  13.956 -0.3135  0.1563 -1.2098
13771TIP3   OH262727   4.758   4.179  13.676  0.1124 -0.3322 -0.3242
13771TIP3    H162728   4.781   4.248  13.614 -1.1704 -0.9847 -1.5567
13771TIP3    H262729   4.811   4.103  13.649  1.9316  0.2325  1.3507
13772TIP3   OH262730   5.383   1.717   3.919 -0.0127  0.1161  0.2615
13772TIP3    H162731   5.424   1.631   3.910  0.0237  0.2426 -0.9700
13772TIP3    H262732   5.344   1.716   4.007  1.3280 -0.5598  0.8855
13773TIP3   OH262733   3.062   1.473   3.571  0.5176  0.3167 -0.5149
13773TIP3    H162734   3.126   1.496   3.638  0.1626  0.5555 -0.2473
13773TIP3    H262735   2.978   1.476   3.617  0.3060  0.1108 -0.8833
13774TIP3   OH262736   3.594   5.050   4.766  0.2322 -0.0511  0.5769
13774TIP3    H162737   3.634   5.058   4.679  3.1390  1.5367  1.9094
13774TIP3    H262738   3.502   5.074   4.752  1.0111  2.0247 -1.7870
13775TIP3   OH262739   0.895   3.578   0.601 -0.2522 -0.3083  0.2014
13775TIP3    H162740   0.947   3.499   0.611 -0.8576 -0.5877  1.3216
13775TIP3    H262741   0.951   3.648   0.637 -0.1354 -0.4016  0.2020
13776TIP3   OH262742   0.388   0.078   1.682  0.1875  0.2336  0.4126
13776TIP3    H162743   0.353  -0.011   1.692 -0.3267  0.4223  0.3214
13776TIP3    H262744   0.483   0.067   1.690 -0.0129  0.1111  3.6170
13777TIP3   OH262745   6.606   0.374  13.296 -0.3971  0.3238  0.4090
13777TIP3    H162746   6.576   0.464  13.303 -1.1451  0.0086  1.6359
13777TIP3    H262747   6.526   0.323  13.283  0.0426 -0.1478 -0.5140
13778TIP3   OH262748   3.263   5.994   5.742  0.1042  0.1180  0.1288
13778TIP3    H162749   3.224   5.916   5.701  0.9531 -0.7966  1.0259
13778TIP3    H262750   3.317   5.960   5.813 -2.1817  1.6791  2.8340
13779TIP3   OH262751   3.307   1.425   2.766 -0.4648 -0.5914 -0.0294
13779TIP3    H162752   3.311   1.496   2.831  0.3272 -0.1250 -0.5614
13779TIP3    H262753   3.280   1.468   2.685  1.2074 -0.6284 -0.6625
13780TIP3   OH262754   0.470   5.705   4.180  0.4647 -0.5864  0.1070
13780TIP3    H162755   0.552   5.729   4.136  0.1819  0.1587 -0.0358
13780TIP3    H262756   0.496   5.690   4.271  0.6222  0.6654  0.2926
13781TIP3   OH262757   5.957   6.590  12.936 -0.6580  0.1006 -0.1112
13781TIP3    H162758   5.875   6.640  12.932 -1.1965 -0.7987 -0.6914
13781TIP3    H262759   5.937   6.515  12.992 -0.4466 -0.4895 -0.8045
13782TIP3   OH262760   2.532   0.108   6.488  0.8350  0.7039 -0.0294
13782TIP3    H162761   2.467   0.155   6.541  0.8819  2.5884 -1.4958
13782TIP3    H262762   2.600   0.173   6.471  1.9193 -0.5282 -0.5115
13783TIP3   OH262763   5.986   6.454   5.472 -0.1319 -0.0632  0.0605
13783TIP3    H162764   5.976   6.422   5.562  1.6887 -0.0475  0.3128
13783TIP3    H262765   5.978   6.549   5.479  0.7056 -0.0080  0.3313
13784TIP3   OH262766   5.137   1.800   6.908 -0.7558 -0.9064  0.0193
13784TIP3    H162767   5.147   1.798   7.003 -2.0106  0.3663  0.2229
13784TIP3    H262768   5.227   1.799   6.874 -0.2881 -1.1551  1.2154
13785TIP3   OH262769   4.740   1.219  16.581  0.8824  0.2002 -0.1565
13785TIP3    H162770   4.705   1.230  16.669  2.0266  0.8938  0.2428
13785TIP3    H262771   4.787   1.136  16.584  1.1751  0.3655  0.0004
13786TIP3   OH262772   4.286   5.283  13.474  0.2020  0.3458  0.3196
13786TIP3    H162773   4.240   5.201  13.490 -0.1656  0.3069 -0.8552
13786TIP3    H262774   4.360   5.281  13.535  0.5462 -1.1415 -0.0946
13787TIP3   OH262775   4.419   4.209   3.229  1.1429 -0.0419 -0.2888
13787TIP3    H162776   4.472   4.166   3.162 -0.7867 -1.9400 -0.7037
13787TIP3    H262777   4.347   4.249   3.182  0.9651  0.5710  0.4703
13788TIP3   OH262778   2.720   4.091  15.611 -0.2449 -0.7857  0.0402
13788TIP3    H162779   2.701   4.166  15.667  1.0588  0.4574 -1.0997
13788TIP3    H262780   2.677   4.018  15.654 -1.8999  0.6684  0.9976
13789TIP3   OH262781   1.674   3.217  14.073 -0.0043 -0.5768  1.0424
13789TIP3    H162782   1.666   3.311  14.057  0.2637 -0.9455 -1.9825
13789TIP3    H262783   1.719   3.210  14.157  0.3153  1.9936  1.1622
13790TIP3   OH262784   1.445   1.041  15.257 -0.0158  0.3343  0.2115
13790TIP3    H162785   1.452   1.130  15.221  0.1096  0.1060 -0.3429
13790TIP3    H262786   1.535   1.012  15.268 -0.0548 -0.0870 -0.5364
13791TIP3   OH262787   2.154   1.285  16.180 -0.2429 -0.1159  0.6051
13791TIP3    H162788   2.174   1.293  16.087 -1.7290  0.6529  0.3220
13791TIP3    H262789   2.163   1.191  16.198  1.6408 -0.0692  0.1081
13792TIP3   OH262790   4.471   5.739  11.086  0.2863  0.7811  0.4183
13792TIP3    H162791   4.396   5.735  11.027 -0.2136  0.3712  1.0610
13792TIP3    H262792   4.507   5.827  11.075 -2.5571  2.4224  2.7970
13793TIP3   OH262793   0.477   1.201  12.905 -0.1363 -0.3104 -0.3546
13793TIP3    H162794   0.530   1.143  12.850 -0.4138 -0.1394 -0.8143
13793TIP3    H262795   0.484   1.165  12.993  0.1997 -0.6759 -0.5291
13794TIP3   OH262796   6.549   6.195  15.668  0.3187  0.0763  0.5078
13794TIP3    H162797   6.515   6.260  15.607  1.5295  0.3389  0.0714
13794TIP3    H262798   6.475   6.137  15.686 -0.0261 -0.1252 -1.3506
13795TIP3   OH262799   4.311   4.985  11.616 -0.6738 -0.0639  0.1033
13795TIP3    H162800   4.236   5.027  11.575 -2.9795 -3.7187  0.2406
13795TIP3    H262801   4.303   5.008  11.709 -0.8836  0.5374 -0.0589
13796TIP3   OH262802   6.710   6.759   1.138  0.7727  0.1024  0.3824
13796TIP3    H162803   6.769   6.834   1.147 -0.6566  1.2880  0.1668
13796TIP3    H262804   6.645   6.770   1.207 -0.1100 -0.3093 -0.3592
13797TIP3   OH262805   1.128   3.385   4.998  0.4033 -0.1855  0.1656
13797TIP3    H162806   1.122   3.474   4.963  2.1130  0.5963  1.7194
13797TIP3    H262807   1.127   3.329   4.920 -2.5944  0.9989 -0.7729
13798TIP3   OH262808   1.572   6.073   3.577  0.0974  0.4400 -0.5785
13798TIP3    H162809   1.626   6.139   3.620  1.2616 -0.1582 -1.1073
13798TIP3    H262810   1.548   6.112   3.493  1.7593 -0.2270 -1.4035
13799TIP3   OH262811   0.333   0.158  11.864  0.2594 -0.2825  0.7138
13799TIP3    H162812   0.400   0.118  11.808 -0.8857 -1.1612 -0.0541
13799TIP3    H262813   0.383   0.192  11.939  1.9489  1.4692 -1.0563
13800TIP3   OH262814   6.026   2.956   4.073 -0.0151 -0.1225  0.2113
13800TIP3    H162815   6.053   2.971   3.982  2.5198  1.3711  1.0798
13800TIP3    H262816   6.051   2.866   4.092  1.0431  0.0727 -0.1506
13801TIP3   OH262817   5.908   6.648  15.336 -0.3740 -0.0666 -0.0112
13801TIP3    H162818   5.886   6.581  15.271  0.4179 -0.2109 -0.1451
13801TIP3    H262819   5.934   6.724  15.285  0.3934 -0.2264  0.1162
13802TIP3   OH262820   5.606   0.677  13.414  0.4465  0.0851 -0.5152
13802TIP3    H162821   5.569   0.622  13.346 -0.3171 -0.2839  0.1900
13802TIP3    H262822   5.693   0.641  13.430  0.3253 -0.3041 -0.7376
13803TIP3   OH262823   0.307   0.018   1.117 -1.1697 -0.3181  1.0457
13803TIP3    H162824   0.320  -0.041   1.191 -1.3163 -0.0711  1.2740
13803TIP3    H262825   0.319   0.106   1.154  0.2303 -0.2340  0.4653
13804TIP3   OH262826   5.389   2.583   0.036  0.3609 -0.3915 -0.6111
13804TIP3    H162827   5.304   2.542   0.056  0.5077  0.6344  2.6833
13804TIP3    H262828   5.373   2.677   0.042  1.2958 -0.0957 -2.1972
13805TIP3   OH262829   5.535   2.024   1.245 -0.3168  0.2379 -0.6592
13805TIP3    H162830   5.452   2.032   1.291 -1.9145 -0.2909 -3.2604
13805TIP3    H262831   5.543   1.930   1.226  2.3098 -0.2227  1.8091
13806TIP3   OH262832   4.837   1.983   4.059 -0.1917  0.1081  0.2126
13806TIP3    H162833   4.789   2.034   3.994  0.5941  2.1008  1.1216
13806TIP3    H262834   4.783   1.987   4.138 -0.0102 -0.2760  0.3571
13807TIP3   OH262835   6.199   3.171   4.080 -0.3325 -0.2018 -0.0836
13807TIP3    H162836   6.145   3.238   4.038 -0.7219 -0.7051 -0.4010
13807TIP3    H262837   6.145   3.092   4.079  0.5344 -0.8195 -0.7521
13808TIP3   OH262838   5.549   4.465  15.576 -0.9344  0.1239 -0.3667
13808TIP3    H162839   5.480   4.430  15.632  0.2879 -2.1670 -0.1377
13808TIP3    H262840   5.528   4.432  15.489 -1.3356  1.3366 -0.7367
13809TIP3   OH262841   2.806   0.804  15.411 -0.4182  0.1955 -0.5451
13809TIP3    H162842   2.772   0.794  15.322  0.9855  0.3514 -1.1399
13809TIP3    H262843   2.875   0.738  15.417 -0.4565  0.2323  0.4130
13810TIP3   OH262844   4.832   4.094   3.340 -0.5257  0.0865  0.5256
13810TIP3    H162845   4.895   4.023   3.332  0.8662  1.1883  1.1497
13810TIP3    H262846   4.767   4.077   3.272 -0.8320 -2.3240  1.3406
13811TIP3   OH262847   2.421   2.555   0.188  0.2349 -0.0378  0.4609
13811TIP3    H162848   2.332   2.585   0.206  0.6083  1.6728 -0.3199
13811TIP3    H262849   2.473   2.589   0.260 -0.0738 -3.4376  2.5118
13812TIP3   OH262850   3.082   1.221   6.182  0.2132 -0.7005  0.5366
13812TIP3    H162851   3.071   1.193   6.091 -0.3553  1.5495 -0.1483
13812TIP3    H262852   3.165   1.183   6.209 -0.0839 -2.2333 -0.5650
13813TIP3   OH262853   1.598   6.035  11.326  0.1003 -0.2253  0.4020
13813TIP3    H162854   1.552   5.972  11.381 -1.3703  1.1747  0.8451
13813TIP3    H262855   1.530   6.094  11.294  1.4271  1.2575  0.1773
13814TIP3   OH262856   3.929   5.266  15.034  0.1973  0.6125  0.5400
13814TIP3    H162857   3.855   5.326  15.028  0.2705  0.7383  0.8420
13814TIP3    H262858   3.960   5.276  15.124  2.0174  2.3255 -0.1812
13815TIP3   OH262859   6.574   3.480   1.464 -0.2910 -0.5086 -0.9652
13815TIP3    H162860   6.530   3.403   1.500 -2.2112  0.2653 -1.4646
13815TIP3    H262861   6.623   3.517   1.537 -1.6321 -0.6528  0.0495
13816TIP3   OH262862   5.820   5.127  15.340  0.0162  0.5098  0.1781
13816TIP3    H162863   5.731   5.139  15.373  0.0359 -0.4594  0.6070
13816TIP3    H262864   5.818   5.165  15.252 -1.5176 -1.6245 -0.8061
13817TIP3   OH262865   2.623   1.228  10.765 -0.3731 -0.5224  0.0534
13817TIP3    H162866   2.702   1.255  10.719 -0.6186 -0.9506 -0.6302
13817TIP3    H262867   2.654   1.166  10.831 -0.2545 -1.5661 -0.9540
13818TIP3   OH262868   4.643   4.093  11.392  0.2101 -0.1485  0.2345
13818TIP3    H162869   4.630   4.185  11.372 -0.3020  0.1229  1.6839
13818TIP3    H262870   4.604   4.081  11.478  1.3410 -1.4456  0.6154
13819TIP3   OH262871   6.568   1.686   0.485  0.4873 -0.3694  0.1737
13819TIP3    H162872   6.490   1.636   0.511  0.2269  0.1341  0.3857
13819TIP3    H262873   6.611   1.707   0.568  0.5045 -0.1096  0.1010
13820TIP3   OH262874   0.384   6.207   5.653 -0.3265 -0.4539 -0.2502
13820TIP3    H162875   0.306   6.176   5.699 -0.6955 -1.4943 -1.5307
13820TIP3    H262876   0.450   6.217   5.722 -1.8723  1.5978  1.0639
13821TIP3   OH262877   3.149   4.467  11.940  0.3248  0.5025  0.2747
13821TIP3    H162878   3.217   4.414  11.982 -1.1355 -0.1840  1.9056
13821TIP3    H262879   3.083   4.404  11.912  0.6445  1.0922 -1.9471
13822TIP3   OH262880   6.136   6.371   5.912 -0.2506  0.2698  0.3712
13822TIP3    H162881   6.060   6.372   5.854  0.3842  3.4523 -0.5820
13822TIP3    H262882   6.211   6.378   5.853  0.4934  1.9296  1.4451
13823TIP3   OH262883   2.898   6.412   0.346 -0.0981 -0.6608  0.2874
13823TIP3    H162884   2.901   6.507   0.333 -0.4003 -0.1838  3.0535
13823TIP3    H262885   2.846   6.379   0.273  1.2085  1.0905 -1.5407
13824TIP3   OH262886   3.942   0.902   4.760  0.3699  0.3112  0.2857
13824TIP3    H162887   3.971   0.839   4.826 -0.9220  0.0188  0.5911
13824TIP3    H262888   3.919   0.849   4.684 -1.5531  0.3038  0.8401
13825TIP3   OH262889   2.953   0.335  13.436  0.0495  0.3622  0.5440
13825TIP3    H162890   2.902   0.387  13.374  0.3748  0.2423  0.1764
13825TIP3    H262891   3.042   0.366  13.427  0.5491 -1.2968 -0.8108
13826TIP3   OH262892   2.292   4.125  16.877 -0.5422 -0.4832 -0.1917
13826TIP3    H162893   2.296   4.199  16.938 -0.9532 -0.5710 -0.0556
13826TIP3    H262894   2.346   4.058  16.919  1.7999  0.5017 -1.4130
13827TIP3   OH262895   0.682   3.301   2.132  1.3535 -0.1955 -0.2468
13827TIP3    H162896   0.631   3.221   2.145  2.2475 -0.8442 -0.6112
13827TIP3    H262897   0.697   3.305   2.037  1.3529  0.3717 -0.2235
13828TIP3   OH262898   3.290   0.699   1.814  0.0260 -0.2484  0.0813
13828TIP3    H162899   3.335   0.629   1.766 -0.3613 -0.8624  0.5913
13828TIP3    H262900   3.316   0.687   1.905  1.2508  1.2962 -0.0264
13829TIP3   OH262901   2.268   4.844   6.667 -0.5444 -0.1043 -0.0209
13829TIP3    H162902   2.301   4.890   6.590 -0.8646 -2.0783 -1.4056
13829TIP3    H262903   2.177   4.872   6.675 -1.1791 -1.5570 -1.7464
13830TIP3   OH262904   1.423   0.255   4.454 -0.1399 -0.3400  0.2577
13830TIP3    H162905   1.514   0.283   4.461 -0.2324 -0.0000  0.1439
13830TIP3    H262906   1.427   0.166   4.421  0.2516 -1.3514  2.8234
13831TIP3   OH262907   3.935   4.968  16.260 -0.0028 -0.2716 -0.1700
13831TIP3    H162908   3.861   5.028  16.250  0.8697  0.9647  0.5005
13831TIP3    H262909   3.909   4.908  16.330 -0.5349 -0.1152 -0.2321
13832TIP3   OH262910   0.936   1.105   3.161 -0.1235  0.1398  0.6089
13832TIP3    H162911   0.915   1.032   3.220 -0.2068  0.3499  0.8413
13832TIP3    H262912   1.032   1.111   3.164 -0.1988  1.1469  1.9536
13833TIP3   OH262913   1.046   4.945   1.412  0.3743  0.2139  0.5368
13833TIP3    H162914   1.079   4.941   1.502 -1.7755  0.6269  1.4134
13833TIP3    H262915   1.047   4.854   1.383  0.7224  0.0208  1.1247
13834TIP3   OH262916   3.067   4.947  16.762  0.6842 -0.3745 -0.1092
13834TIP3    H162917   3.045   5.033  16.724  1.3563 -1.1868 -2.5114
13834TIP3    H262918   3.139   4.965  16.822  2.3692  0.5153 -2.2725
13835TIP3   OH262919   4.168   4.441   2.157 -0.0172 -0.3085  0.1186
13835TIP3    H162920   4.260   4.451   2.180  0.0111 -0.9584  0.3136
13835TIP3    H262921   4.139   4.530   2.135  1.4161 -0.4862 -2.9145
13836TIP3   OH262922   1.718   1.947   4.762  0.0668 -0.4842  0.1494
13836TIP3    H162923   1.630   1.917   4.739  0.4870 -1.3623 -0.3542
13836TIP3    H262924   1.706   1.997   4.843 -1.0616  0.4200 -0.5447
13837TIP3   OH262925   4.204   5.703  11.200  0.2389 -0.1367 -0.3133
13837TIP3    H162926   4.202   5.733  11.109 -0.5917 -0.5759 -0.4556
13837TIP3    H262927   4.259   5.625  11.198  1.4815  0.7162 -0.1482
13838TIP3   OH262928   2.702   0.928   4.568  0.1171  0.5784  0.3977
13838TIP3    H162929   2.677   1.006   4.518 -1.3621  1.3491  2.2356
13838TIP3    H262930   2.769   0.959   4.629 -0.0370  0.2836  0.7225
13839TIP3   OH262931   3.211   1.005   4.403  0.7429 -0.0933 -0.3193
13839TIP3    H162932   3.124   1.019   4.365  1.7678 -0.0674 -2.9288
13839TIP3    H262933   3.254   1.090   4.394  1.6127 -0.5694 -0.8232
13840TIP3   OH262934   3.435   3.178  13.476  0.7646 -0.1216 -0.3568
13840TIP3    H162935   3.342   3.189  13.496  0.7193 -0.9475 -0.0531
13840TIP3    H262936   3.451   3.237  13.403  0.3535  1.1378  0.5510
13841TIP3   OH262937   5.498   2.914   5.201 -0.6007  0.1786  0.2571
13841TIP3    H162938   5.481   2.896   5.293 -0.8009  1.1279  0.4083
13841TIP3    H262939   5.434   2.981   5.177  0.6487  1.3014 -0.0729
13842TIP3   OH262940   0.673   1.741  12.978  0.3426 -0.7236  0.0979
13842TIP3    H162941   0.688   1.649  12.997 -0.6752 -0.7567  0.8443
13842TIP3    H262942   0.761   1.779  12.973  0.7786 -1.7541 -0.3840
13843TIP3   OH262943   1.997   3.891   3.325 -0.0011  0.1754 -0.0623
13843TIP3    H162944   2.003   3.937   3.409  1.6241  0.9799 -0.5878
13843TIP3    H262945   2.054   3.941   3.266 -0.5376 -0.8022 -1.4586
13844TIP3   OH262946   1.476   1.257  13.699 -0.1488 -0.4079  0.6447
13844TIP3    H162947   1.404   1.251  13.636 -0.0952  1.1804  0.3829
13844TIP3    H262948   1.434   1.280  13.782  0.0784  1.2576  0.3323
13845TIP3   OH262949   5.230   3.474   1.131  0.4655 -0.7211  0.2390
13845TIP3    H162950   5.291   3.530   1.179  1.0145 -1.3196  0.2581
13845TIP3    H262951   5.191   3.417   1.198  1.0969 -1.4339  0.0113
13846TIP3   OH262952   5.430   2.585   6.547  0.7597  0.0418 -0.1195
13846TIP3    H162953   5.501   2.586   6.483  1.4585  0.0839  0.6553
13846TIP3    H262954   5.466   2.627   6.625  0.3739 -1.2415  0.7911
13847TIP3   OH262955   0.662   5.186  15.948 -0.5143  0.1554  0.7497
13847TIP3    H162956   0.621   5.272  15.959 -0.5184  0.2086  0.3346
13847TIP3    H262957   0.679   5.179  15.854 -2.7637 -1.2937  0.3480
13848TIP3   OH262958   2.765   3.414   6.637 -0.0051 -0.0647 -0.1277
13848TIP3    H162959   2.713   3.375   6.707  1.7295 -2.4452 -0.0628
13848TIP3    H262960   2.732   3.374   6.557  2.3273 -2.5771  0.0071
13849TIP3   OH262961   0.972   1.513  15.994  0.3034  0.2627  0.1073
13849TIP3    H162962   0.972   1.605  15.967  0.3371  0.5245  0.9681
13849TIP3    H262963   0.898   1.505  16.055  0.2250 -0.3086 -0.0545
13850TIP3   OH262964   3.367   2.927   4.902  0.7600  0.0200  0.0098
13850TIP3    H162965   3.292   2.979   4.870  1.2317 -0.3713 -1.8408
13850TIP3    H262966   3.354   2.923   4.997 -2.4494 -1.3519 -0.3556
13851TIP3   OH262967   5.276   3.505   4.589  0.1379 -0.0420  0.0093
13851TIP3    H162968   5.181   3.512   4.588  0.0336 -0.9359  1.6384
13851TIP3    H262969   5.304   3.556   4.665  1.0280  0.6226 -0.7267
13852TIP3   OH262970   4.843   4.865   1.216  0.1087  0.0546  0.1452
13852TIP3    H162971   4.896   4.790   1.189  0.6228  0.6624 -0.5755
13852TIP3    H262972   4.855   4.870   1.311  1.4172  0.2283 -0.0152
13853TIP3   OH262973   2.778   2.457  13.267 -0.1305 -0.4802  0.2657
13853TIP3    H162974   2.710   2.475  13.332 -0.8001  0.0249 -0.5418
13853TIP3    H262975   2.740   2.391  13.210  0.1765 -0.4132 -0.0203
13854TIP3   OH262976   1.497   1.728   3.130  0.1542 -0.4667 -0.4098
13854TIP3    H162977   1.519   1.752   3.220  1.6885 -1.9127 -0.3439
13854TIP3    H262978   1.559   1.659   3.108 -2.6485 -2.9860 -1.1888
13855TIP3   OH262979   4.350   4.484   2.596 -0.3146 -0.7479  0.6256
13855TIP3    H162980   4.293   4.421   2.551  0.1862  0.0850 -1.3056
13855TIP3    H262981   4.334   4.567   2.551  1.5556 -0.2380  0.8041
13856TIP3   OH262982   3.533   1.857  16.093  0.0539 -0.1010  0.7169
13856TIP3    H162983   3.507   1.948  16.105 -2.7403 -0.6676 -0.2546
13856TIP3    H262984   3.621   1.852  16.130 -0.3023  2.6254  2.1973
13857TIP3   OH262985   2.812   3.460  17.105  0.3154 -0.2607 -0.4029
13857TIP3    H162986   2.802   3.551  17.080 -2.1222  0.0161  1.2172
13857TIP3    H262987   2.895   3.457  17.153  0.4373  1.0724 -0.5000
13858TIP3   OH262988   3.161   0.657  16.026 -0.3293 -0.0530 -0.3625
13858TIP3    H162989   3.222   0.707  16.080 -1.0789  0.2370  0.2419
13858TIP3    H262990   3.112   0.723  15.977  1.4035 -0.3628 -2.6251
13859TIP3   OH262991   4.262   1.769   4.090 -0.0403  0.1375  0.0829
13859TIP3    H162992   4.330   1.824   4.050 -1.3524  1.5544 -0.3254
13859TIP3    H262993   4.289   1.759   4.181  2.1796 -1.8021 -0.6826
13860TIP3   OH262994   1.171   6.728  13.236 -0.5885  0.0330 -0.2707
13860TIP3    H162995   1.107   6.659  13.222 -0.9410  0.4868 -0.9317
13860TIP3    H262996   1.136   6.804  13.189  0.1224  0.4699 -0.1195
13861TIP3   OH262997   6.166   1.254  11.291 -0.0445 -0.2002  0.4264
13861TIP3    H162998   6.215   1.239  11.372  1.3243  1.6690  0.0051
13861TIP3    H262999   6.194   1.340  11.262 -0.8122 -0.6545 -1.8460
13862TIP3   OH263000   0.752   0.453  14.097 -0.6349  0.3589  0.1581
13862TIP3    H163001   0.666   0.410  14.094  0.4687 -1.9424 -1.2122
13862TIP3    H263002   0.771   0.461  14.191 -1.3344 -1.2802  0.4738
13863TIP3   OH263003   4.553   2.505  13.044 -0.0708 -0.4418 -0.0462
13863TIP3    H163004   4.544   2.579  13.104 -1.1715 -0.1271 -0.5897
13863TIP3    H263005   4.526   2.539  12.959  2.9725 -0.4139 -1.1275
13864TIP3   OH263006   0.257   0.234   2.369  0.9032 -0.3832 -0.3029
13864TIP3    H163007   0.255   0.156   2.314  0.6822 -0.6253  0.0394
13864TIP3    H263008   0.341   0.275   2.351  0.4476  0.0597 -1.5310
13865TIP3   OH263009   6.697   0.861   2.877 -0.0139 -0.5208  0.3627
13865TIP3    H163010   6.654   0.820   2.952 -1.6023  0.6041  0.1149
13865TIP3    H263011   6.649   0.943   2.865  2.0953  0.7170 -0.0590
13866TIP3   OH263012   3.394   2.256   1.369  0.2031  0.1073 -0.2764
13866TIP3    H163013   3.404   2.183   1.431 -0.3570  0.6148  0.4227
13866TIP3    H263014   3.334   2.316   1.412 -1.1595 -0.0771 -1.8209
13867TIP3   OH263015   1.387   3.943   5.532 -0.2956  0.1582  0.1414
13867TIP3    H163016   1.372   4.037   5.522 -1.7534  0.5572  4.2352
13867TIP3    H263017   1.304   3.909   5.567  0.0343 -2.8201 -1.5971
13868TIP3   OH263018   3.511   2.564  15.623  0.0575 -0.5281 -0.2221
13868TIP3    H163019   3.442   2.555  15.688 -1.6223 -0.3915 -1.8971
13868TIP3    H263020   3.539   2.475  15.605 -0.1510 -0.6319 -0.0334
13869TIP3   OH263021   2.800   6.728   1.028 -0.6195  0.2555  0.2595
13869TIP3    H163022   2.739   6.794   0.997  1.3289  2.5085  0.9162
13869TIP3    H263023   2.811   6.747   1.121  0.3105 -0.7082  0.3709
13870TIP3   OH263024   3.786   4.171   4.202 -0.0331  0.3542 -0.5917
13870TIP3    H163025   3.787   4.194   4.295 -1.1372  1.7524 -0.8875
13870TIP3    H263026   3.786   4.075   4.201 -1.7067  0.2838  0.9117
13871TIP3   OH263027   4.411   0.184  11.818  0.3795 -0.7888 -0.3573
13871TIP3    H163028   4.317   0.170  11.806  0.6024 -2.4751 -0.4002
13871TIP3    H263029   4.447   0.096  11.825  1.5858 -0.1700  2.5276
13872TIP3   OH263030   6.605   1.658   3.661 -0.5941  0.4815 -0.0244
13872TIP3    H163031   6.619   1.645   3.755 -0.1441  0.6095 -0.0724
13872TIP3    H263032   6.574   1.574   3.629  0.5786  0.0193 -0.0114
13873TIP3   OH263033   6.435   1.450  12.383  0.1341  0.1266  0.4163
13873TIP3    H163034   6.450   1.380  12.319 -0.7819 -0.0651  0.4030
13873TIP3    H263035   6.342   1.469  12.376 -0.3125 -0.9120  2.7031
13874TIP3   OH263036   1.961   0.357   5.309 -0.4347 -0.4595 -0.0610
13874TIP3    H163037   1.959   0.277   5.361  1.5528 -0.4006  0.1829
13874TIP3    H263038   2.003   0.422   5.366 -3.1235  1.1759  0.2285
13875TIP3   OH263039   1.769   3.007   4.465 -0.2742 -1.2764  0.3915
13875TIP3    H163040   1.713   3.052   4.402  0.6908  0.2248  0.5435
13875TIP3    H263041   1.743   2.916   4.460 -1.4267 -0.9055 -0.8963
13876TIP3   OH263042   1.985   5.389   2.146 -0.0108 -0.7609 -0.1897
13876TIP3    H163043   1.967   5.384   2.240  0.4916 -0.2251 -0.0535
13876TIP3    H263044   1.903   5.418   2.108 -0.3103 -1.2943  0.0494
13877TIP3   OH263045   5.933   6.362   2.698 -0.0761 -0.2016 -0.2664
13877TIP3    H163046   5.957   6.374   2.790  1.5385 -1.4567 -0.4876
13877TIP3    H263047   5.870   6.433   2.681 -1.6974 -0.8947  2.2251
13878TIP3   OH263048   0.512   5.516  14.833 -0.7248  0.7095  0.1265
13878TIP3    H163049   0.551   5.584  14.888  1.2295  0.1110 -0.4263
13878TIP3    H263050   0.534   5.542  14.743 -1.3594  0.1853 -0.1926
13879TIP3   OH263051   1.693   1.742  16.494  0.4725 -0.1076 -0.2365
13879TIP3    H163052   1.632   1.749  16.568  1.1485 -0.5891  0.3837
13879TIP3    H263053   1.721   1.832  16.477  1.8069 -0.1695  1.3904
13880TIP3   OH263054   4.955   2.352   2.864  0.1172 -0.0841  0.0789
13880TIP3    H163055   4.882   2.406   2.896  0.0879 -0.3434  0.4559
13880TIP3    H263056   5.005   2.331   2.943  0.1043 -0.6446 -0.0589
13881TIP3   OH263057   0.314   6.114   4.270  0.2271 -0.1218  0.3842
13881TIP3    H163058   0.362   6.075   4.344 -0.0585  0.5110  0.9135
13881TIP3    H263059   0.297   6.204   4.298  0.3771  0.2152 -0.5865
13882TIP3   OH263060   1.233   6.421   6.848 -0.0289  0.0131  0.5811
13882TIP3    H163061   1.297   6.392   6.783 -1.3157  0.8084 -1.1279
13882TIP3    H263062   1.286   6.445   6.924  1.5074 -1.2989 -0.0110
13883TIP3   OH263063   0.118   2.291   1.201  0.2704  0.0572 -0.4707
13883TIP3    H163064   0.162   2.207   1.189  0.6933 -0.0273  1.4071
13883TIP3    H263065   0.062   2.300   1.124  1.5878 -1.0761 -1.5983
13884TIP3   OH263066   3.927   4.636   3.141 -0.2185  0.4827  0.6308
13884TIP3    H163067   3.943   4.592   3.058 -2.5422  0.0322  0.3485
13884TIP3    H263068   4.006   4.619   3.193 -0.3995 -2.8773  0.0469
13885TIP3   OH263069   4.461   3.988  13.575  0.3814  0.6218  0.3095
13885TIP3    H163070   4.434   4.056  13.513  0.6545  0.1386 -0.3469
13885TIP3    H263071   4.545   3.957  13.542 -0.2736 -0.8384 -0.0594
13886TIP3   OH263072   1.632   0.918   2.077  0.3198  0.1885 -0.1588
13886TIP3    H163073   1.600   0.840   2.030  0.1022  0.5413 -0.6050
13886TIP3    H263074   1.568   0.931   2.147  1.1234 -0.8635  0.8185
13887TIP3   OH263075   3.258   5.173   1.035 -0.2712  0.2354 -0.1839
13887TIP3    H163076   3.279   5.149   1.125 -3.2088  3.1995  1.5128
13887TIP3    H263077   3.193   5.107   1.008 -0.6675  0.3141  0.5482
13888TIP3   OH263078   4.510   4.908   2.731  0.0199 -0.2973  0.1795
13888TIP3    H163079   4.575   4.844   2.760  1.4494  0.1546 -1.8232
13888TIP3    H263080   4.456   4.924   2.809  2.3821 -0.5993  2.0020
13889TIP3   OH263081   5.579   2.480   3.957  0.0086 -0.1345 -0.4593
13889TIP3    H163082   5.519   2.426   3.905  0.5273  0.3593 -1.6264
13889TIP3    H263083   5.524   2.522   4.022 -0.9209  0.2930 -1.4957
13890TIP3   OH263084   4.327   4.179  15.973 -0.0426 -0.2668 -0.7876
13890TIP3    H163085   4.291   4.108  16.027 -1.2828 -0.7625 -2.1782
13890TIP3    H263086   4.341   4.251  16.034 -3.6382  0.0240 -0.0602
13891TIP3   OH263087   0.127   3.011  16.860  0.2129 -0.1656 -0.4168
13891TIP3    H163088   0.211   3.057  16.858  0.7185 -1.0688 -0.4688
13891TIP3    H263089   0.140   2.939  16.921 -0.7447  0.0600  0.0846
13892TIP3   OH263090   5.217   4.187   3.835 -0.3392 -0.1123 -0.4473
13892TIP3    H163091   5.155   4.154   3.769 -0.5117  0.2364 -0.4646
13892TIP3    H263092   5.303   4.161   3.802 -0.5044 -1.0523 -0.1632
13893TIP3   OH263093   0.070   1.848   1.848 -1.0693 -0.1153 -0.1610
13893TIP3    H163094   0.079   1.934   1.889  0.3701 -0.3533  0.0864
13893TIP3    H263095  -0.022   1.825   1.861 -1.4487  1.3210 -0.1249
13894TIP3   OH263096   1.893   6.365  14.323 -0.0627 -0.3575  0.1009
13894TIP3    H163097   1.875   6.452  14.288  0.3533 -1.0340 -1.9123
13894TIP3    H263098   1.898   6.378  14.418  2.4248  2.2751 -0.2580
13895TIP3   OH263099   3.851   3.001  15.140 -0.1243  0.3253 -0.1365
13895TIP3    H163100   3.832   3.084  15.185  2.7706  0.5162  0.9503
13895TIP3    H263101   3.815   2.934  15.198 -1.2815  0.7345 -0.3443
13896TIP3   OH263102   0.053   3.193   0.088  0.0516 -0.0181 -0.7077
13896TIP3    H163103  -0.033   3.175   0.125 -0.1169 -1.5678 -1.7387
13896TIP3    H263104   0.098   3.243   0.155 -0.4771 -2.0631  1.3112
13897TIP3   OH263105   3.211   1.121   0.941 -0.0682 -0.2008  0.5729
13897TIP3    H163106   3.275   1.081   1.000 -0.1873 -0.4167  0.5570
13897TIP3    H263107   3.127   1.113   0.987  0.0930  1.2461  1.1777
13898TIP3   OH263108   3.327   0.718   3.638  0.4722  0.1751 -0.2113
13898TIP3    H163109   3.293   0.739   3.551 -0.0229 -0.0643 -0.0803
13898TIP3    H263110   3.354   0.627   3.632  0.5544  0.1955 -0.1512
13899TIP3   OH263111   6.524   1.697  15.767 -0.2863  0.1395 -0.3505
13899TIP3    H163112   6.458   1.629  15.751  0.8691 -0.8694 -0.9707
13899TIP3    H263113   6.584   1.657  15.830  0.1637  0.7586 -0.3833
13900TIP3   OH263114   6.542   1.457  12.043  0.0192 -0.5940  0.4331
13900TIP3    H163115   6.569   1.549  12.040 -0.6149 -0.3739  1.2285
13900TIP3    H263116   6.534   1.431  11.951  0.3639  0.0947  0.2035
13901TIP3   OH263117   6.083   3.777   3.422 -0.1426  0.0371 -0.2336
13901TIP3    H163118   6.108   3.687   3.399 -0.8974  0.3204 -2.4062
13901TIP3    H263119   6.164   3.819   3.450  0.1620 -1.3857  1.1782
13902TIP3   OH263120   1.275   0.886  16.054 -0.4283  0.3143 -0.6000
13902TIP3    H163121   1.261   0.819  15.986 -0.7824 -0.2352  0.0032
13902TIP3    H263122   1.187   0.914  16.079 -0.3158  0.2288 -0.0933
13903TIP3   OH263123   1.466   1.125  14.059  0.2529 -0.1733 -0.6433
13903TIP3    H163124   1.417   1.195  14.017  0.2776  0.0353 -0.3265
13903TIP3    H263125   1.498   1.163  14.140 -0.8106 -0.9374  0.1527
13904TIP3   OH263126   5.084   4.616   3.886  0.1233  0.1817 -0.0914
13904TIP3    H163127   5.107   4.558   3.959 -0.3456 -1.9086 -1.5124
13904TIP3    H263128   5.032   4.685   3.926  1.1304 -0.0663  1.7600
13905TIP3   OH263129   2.899   4.924  17.342  0.0883  0.4144 -0.0251
13905TIP3    H163130   2.809   4.949  17.363  0.7059  0.2766  3.5321
13905TIP3    H263131   2.910   4.838  17.384  1.4973 -0.2188 -1.6011
13906TIP3   OH263132   1.489   5.919  12.755  0.8277 -0.6960  0.1534
13906TIP3    H163133   1.567   5.938  12.703 -0.0655 -0.8865 -1.2909
13906TIP3    H263134   1.468   5.828  12.736 -0.0606 -0.4884  0.1024
13907TIP3   OH263135   2.758   0.338  12.925  0.4566 -0.2470  0.1240
13907TIP3    H163136   2.712   0.416  12.894  0.3952 -1.4470 -3.2383
13907TIP3    H263137   2.700   0.300  12.991 -1.3977  0.4980 -1.0004
13908TIP3   OH263138   0.369   5.360  10.712  0.0837  0.1776 -0.1446
13908TIP3    H163139   0.447   5.344  10.766 -1.2741  0.1269  1.8940
13908TIP3    H263140   0.397   5.337  10.623  1.8169 -1.7232  0.8104
13909TIP3   OH263141   4.056   6.233   2.952  0.3674 -0.6828 -0.0071
13909TIP3    H163142   4.085   6.182   2.876 -0.6046  0.2894 -1.0627
13909TIP3    H263143   4.086   6.322   2.934  1.1075 -0.6445  1.3025
13910TIP3   OH263144   2.794   3.326   5.332  0.0102 -0.5474  0.2044
13910TIP3    H163145   2.838   3.366   5.406 -0.7831 -1.3157  1.1150
13910TIP3    H263146   2.845   3.353   5.256  0.0982  1.3280  0.8756
13911TIP3   OH263147   1.769   6.191   1.216  0.1645  0.2491  0.7148
13911TIP3    H163148   1.720   6.269   1.240 -0.4123  0.9355 -2.2634
13911TIP3    H263149   1.702   6.126   1.195  0.4506  0.5743 -1.4843
13912TIP3   OH263150   2.004   2.354   4.390  0.3540 -0.2290 -0.4326
13912TIP3    H163151   2.002   2.304   4.472 -1.6323 -3.0708 -2.0254
13912TIP3    H263152   2.075   2.314   4.339 -1.3552 -1.7489 -1.7841
13913TIP3   OH263153   2.594   5.601  17.044 -0.1044  0.3863 -0.4032
13913TIP3    H163154   2.571   5.602  17.137 -0.0783  0.7516 -0.3974
13913TIP3    H263155   2.545   5.527  17.008  1.6561 -1.1933  0.3356
13914TIP3   OH263156   6.327   2.391   6.518  0.3707  0.6173 -0.2587
13914TIP3    H163157   6.318   2.302   6.553  4.3726  0.9856  2.2598
13914TIP3    H263158   6.237   2.425   6.519 -1.2494 -3.0639 -0.7529
13915TIP3   OH263159   3.827   4.198   1.330 -0.3216  0.0330  0.4914
13915TIP3    H163160   3.894   4.157   1.276 -0.2907 -0.6935  1.0581
13915TIP3    H263161   3.846   4.168   1.419 -0.5984  0.8961  0.8559
13916TIP3   OH263162   5.763   4.822   5.678  0.1034  0.9130  0.5396
13916TIP3    H163163   5.689   4.814   5.738 -0.0408 -0.4686  0.2134
13916TIP3    H263164   5.821   4.886   5.720 -1.3173  2.1540  0.7225
13917TIP3   OH263165   1.515   6.340   4.984  0.0952 -0.3693 -0.0845
13917TIP3    H163166   1.539   6.366   4.894 -2.3858  1.3702 -0.3513
13917TIP3    H263167   1.535   6.247   4.988  0.2054 -0.5182 -2.4932
13918TIP3   OH263168   4.013   2.399   5.694 -0.3993 -0.0172 -0.3115
13918TIP3    H163169   3.937   2.345   5.717 -0.7091  0.8836  0.9214
13918TIP3    H263170   4.070   2.394   5.770  0.6426 -0.4027 -1.0910
13919TIP3   OH263171   2.127   3.506  16.331  0.2546 -0.1846  0.0828
13919TIP3    H163172   2.139   3.512  16.236  1.3082 -0.5907  0.1754
13919TIP3    H263173   2.198   3.558  16.368 -0.3730  0.2857  0.6540
13920TIP3   OH263174   1.058   0.433   4.865  0.3146 -0.2140  0.3701
13920TIP3    H163175   0.990   0.366   4.871 -0.5342  0.2435 -2.5352
13920TIP3    H263176   1.140   0.384   4.863 -0.1753 -1.0460  0.2284
13921TIP3   OH263177   5.986   0.013   5.019  0.5474  0.6468  0.4137
13921TIP3    H163178   5.900   0.023   5.060 -0.1790  0.7977 -1.0871
13921TIP3    H263179   6.034  -0.045   5.077 -0.8666 -0.1254  0.8512
13922TIP3   OH263180   4.219   4.632   4.122  0.2074 -0.0548  0.3859
13922TIP3    H163181   4.193   4.687   4.048  0.4721  0.3498  0.5884
13922TIP3    H263182   4.247   4.550   4.082 -0.1942 -0.0426  0.0780
13923TIP3   OH263183   6.214   5.729  11.490 -0.1094  0.2208  0.7376
13923TIP3    H163184   6.293   5.675  11.493 -0.5001 -0.3159  1.8806
13923TIP3    H263185   6.142   5.667  11.480 -0.4310  0.6833  0.0629
13924TIP3   OH263186   5.673   0.671   1.284  0.3917 -0.0983  0.0753
13924TIP3    H163187   5.611   0.660   1.212 -1.7202 -0.1475  1.7986
13924TIP3    H263188   5.664   0.763   1.310  0.8793 -0.1695  0.5176
13925TIP3   OH263189   4.575   3.439   5.151 -0.7674  0.2388 -0.3755
13925TIP3    H163190   4.513   3.459   5.221 -0.4251  0.1458 -0.0435
13925TIP3    H263191   4.527   3.458   5.071 -1.8836 -1.6163 -0.1979
13926TIP3   OH263192   1.313   3.661   5.125  0.0022 -0.3514  0.4783
13926TIP3    H163193   1.251   3.725   5.159 -1.0259 -0.7456 -0.5774
13926TIP3    H263194   1.268   3.577   5.134  1.1492 -0.8908  1.4312
13927TIP3   OH263195   3.721   4.499   1.993 -0.2641 -0.3422  0.0439
13927TIP3    H163196   3.811   4.481   1.965  0.4820  1.8189  0.8607
13927TIP3    H263197   3.700   4.584   1.953 -2.6543 -1.5938 -1.6104
13928TIP3   OH263198   6.089   3.348   3.893  0.6629  0.0792  0.0174
13928TIP3    H163199   6.175   3.391   3.897  1.2793 -1.0617  4.2210
13928TIP3    H263200   6.039   3.388   3.964 -0.8748 -1.9365  0.1505
13929TIP3   OH263201   5.214   5.191  14.150  0.1572 -0.9953  0.3626
13929TIP3    H163202   5.257   5.262  14.104  0.0140 -0.3749  1.1581
13929TIP3    H263203   5.145   5.234  14.201  0.5876 -1.5998  1.4839
13930TIP3   OH263204   3.977   2.081  14.881  0.7382  0.1504  0.1233
13930TIP3    H163205   3.994   2.132  14.960  0.8999  0.4956 -0.1331
13930TIP3    H263206   4.054   2.025  14.871  0.3449 -0.5116  0.6796
13931TIP3   OH263207   1.554   3.857  11.365  0.0793  0.0936 -0.9936
13931TIP3    H163208   1.466   3.866  11.401 -0.5591  0.7883 -2.6257
13931TIP3    H263209   1.611   3.897  11.431 -0.9496  0.6088 -0.3971
13932TIP3   OH263210   4.205   1.197   1.255 -0.1678 -0.0649  0.0688
13932TIP3    H163211   4.213   1.291   1.241 -0.4620  0.0048  0.3640
13932TIP3    H263212   4.193   1.188   1.349 -1.0491 -0.3339 -0.0628
13933TIP3   OH263213   5.620   5.708  15.763 -0.0798 -0.0447  0.3059
13933TIP3    H163214   5.633   5.757  15.682 -0.7538 -0.1998  0.0952
13933TIP3    H263215   5.601   5.618  15.734 -0.9087  0.0244  0.6056
13934TIP3   OH263216   3.409   2.312   0.815 -0.5370 -0.9001  0.4473
13934TIP3    H163217   3.410   2.318   0.910 -1.9652 -2.6525  0.6255
13934TIP3    H263218   3.317   2.322   0.792 -0.1965 -0.4303 -0.7603
13935TIP3   OH263219   5.533   1.009  11.670  0.4941  0.1248 -0.1696
13935TIP3    H163220   5.602   0.996  11.604  0.3771 -2.2262  0.1006
13935TIP3    H263221   5.536   0.930  11.724 -0.7050  1.1401  1.4822
13936TIP3   OH263222   5.598   4.068   1.348  0.2625  0.3745  0.0026
13936TIP3    H163223   5.556   4.153   1.364  0.7553  1.1552 -2.4308
13936TIP3    H263224   5.675   4.089   1.295  1.0400 -1.5036  0.3187
13937TIP3   OH263225   5.890   1.976  12.306 -0.2585  0.1523  0.4096
13937TIP3    H163226   5.954   1.907  12.289 -0.7085 -0.2022  0.1329
13937TIP3    H263227   5.943   2.055  12.319  0.2968 -0.3713  1.4165
13938TIP3   OH263228   1.373   1.292  13.237 -0.2212 -0.4482  0.3166
13938TIP3    H163229   1.416   1.213  13.272  1.1379  0.6986  1.3461
13938TIP3    H263230   1.292   1.300  13.287  1.4123  0.8327  2.9386
13939TIP3   OH263231   0.476   6.253   0.322 -0.3760 -0.0425  0.1337
13939TIP3    H163232   0.508   6.273   0.234 -0.3759 -1.1303 -0.1296
13939TIP3    H263233   0.494   6.332   0.372  2.4500 -0.4339 -0.0676
13940TIP3   OH263234   4.081   4.075  11.014  0.5582 -0.2108 -0.0230
13940TIP3    H163235   4.005   4.114  10.970 -1.1104 -0.2105  2.6192
13940TIP3    H263236   4.075   3.982  10.994 -0.7994 -0.3658  0.9934
13941TIP3   OH263237   2.273   0.783   4.137 -0.2072  0.6796 -0.2353
13941TIP3    H163238   2.300   0.854   4.079  0.4262  0.9253  0.3430
13941TIP3    H263239   2.178   0.790   4.143 -0.2790  0.6669 -1.2138
13942TIP3   OH263240   0.636   0.603   0.562  0.1892  0.4157  0.5043
13942TIP3    H163241   0.711   0.558   0.524  0.0885  1.6117 -1.2108
13942TIP3    H263242   0.603   0.659   0.492 -0.7301  1.8725  2.0290
13943TIP3   OH263243   1.694   2.814   0.705  0.4152 -0.5018  0.2726
13943TIP3    H163244   1.659   2.754   0.771  0.4042 -0.5423  0.2304
13943TIP3    H263245   1.618   2.865   0.676  0.9156  1.6682  2.4798
13944TIP3   OH263246   3.806   0.117   3.520 -0.4583 -0.1268  0.3498
13944TIP3    H163247   3.860   0.196   3.516 -1.6460  0.6780 -0.4597
13944TIP3    H263248   3.725   0.145   3.564 -0.8946 -0.8846  0.0488
13945TIP3   OH263249   4.886   2.247   2.595 -0.4930  0.1055 -0.4107
13945TIP3    H163250   4.914   2.289   2.677 -0.3336 -0.1556 -0.3318
13945TIP3    H263251   4.886   2.153   2.615 -1.7134  0.1064 -0.3166
13946TIP3   OH263252   2.740   6.260  13.433  0.7272 -0.3295  0.4061
13946TIP3    H163253   2.800   6.242  13.361  0.5330 -1.2749  0.4660
13946TIP3    H263254   2.771   6.343  13.469  1.1802 -0.1337 -0.3970
13947TIP3   OH263255   3.432   0.292  10.910  0.4124 -0.0987 -0.4433
13947TIP3    H163256   3.363   0.348  10.945 -0.4995  1.2812 -4.0357
13947TIP3    H263257   3.396   0.204  10.914  0.3929 -0.0640  1.8898
13948TIP3   OH263258   2.457   0.396  11.148  0.2227 -0.2960 -0.0506
13948TIP3    H163259   2.407   0.362  11.073 -0.7188  1.2475 -0.1664
13948TIP3    H263260   2.516   0.324  11.172 -2.8164 -2.7172  0.8381
13949TIP3   OH263261   0.138   4.010  16.302 -0.5906 -0.4095 -0.6492
13949TIP3    H163262   0.122   3.926  16.345  0.2427 -0.3596 -0.2199
13949TIP3    H263263   0.172   3.986  16.216  0.1121 -0.5336 -0.3525
13950TIP3   OH263264   2.177   3.435   5.389  0.2537 -0.8315  0.4576
13950TIP3    H163265   2.268   3.464   5.380 -0.3572  0.6713 -2.1016
13950TIP3    H263266   2.129   3.514   5.412 -0.7637 -0.8357 -1.4159
13951TIP3   OH263267   6.082   3.880   4.103 -0.2872  0.6223  0.3920
13951TIP3    H163268   6.108   3.790   4.124  0.5218  0.8627  0.4323
13951TIP3    H263269   6.029   3.870   4.023 -1.8493 -0.0841  1.4702
13952TIP3   OH263270   3.875   1.639  12.978 -0.5185  0.4667 -0.0488
13952TIP3    H163271   3.920   1.587  12.912  0.0281  0.5271  0.2662
13952TIP3    H263272   3.802   1.680  12.931 -0.0955  0.5673 -0.6347
13953TIP3   OH263273   5.293   6.301  16.365  0.1346 -0.0137  0.5258
13953TIP3    H163274   5.377   6.274  16.402  0.4819 -0.0965 -0.3074
13953TIP3    H263275   5.235   6.311  16.441  1.4747  2.1786  1.3559
13954TIP3   OH263276   1.195   2.389   1.302 -0.4317  0.5011 -0.8067
13954TIP3    H163277   1.179   2.400   1.208 -0.1603 -2.8485 -1.3553
13954TIP3    H263278   1.195   2.294   1.316 -0.5063  0.8777  2.6204
13955TIP3   OH263279   4.451   3.154   5.262 -0.6770  0.2560 -0.4438
13955TIP3    H163280   4.432   3.242   5.292  0.5696 -0.4517  2.8861
13955TIP3    H263281   4.485   3.165   5.173 -0.2621  3.1526 -0.0106
13956TIP3   OH263282   0.746   1.328   3.385  0.1107 -0.3367 -0.8326
13956TIP3    H163283   0.779   1.303   3.471  3.1155 -0.6314 -1.9531
13956TIP3    H263284   0.817   1.306   3.325 -1.2004  1.4176 -3.1977
13957TIP3   OH263285   4.092   5.683  16.233  0.0564 -0.7158  0.0392
13957TIP3    H163286   4.034   5.756  16.211 -0.4315 -1.1125 -0.0021
13957TIP3    H263287   4.136   5.711  16.313  1.0461  0.2847 -0.8215
13958TIP3   OH263288   0.978   5.455   0.898  0.2125 -0.3304  0.2384
13958TIP3    H163289   0.927   5.506   0.961  3.0780  0.7681  1.8877
13958TIP3    H263290   1.004   5.518   0.832  1.5054 -0.2280  0.8124
13959TIP3   OH263291   2.757   5.891   3.658  0.5409 -0.2641 -0.0393
13959TIP3    H163292   2.733   5.829   3.726  1.7680 -0.8448 -0.1109
13959TIP3    H263293   2.785   5.969   3.706 -0.0068 -0.1405  0.0793
13960TIP3   OH263294   5.345   0.654   2.259 -0.2650  0.1677  0.4965
13960TIP3    H163295   5.400   0.617   2.191  0.9939 -0.5588  1.8579
13960TIP3    H263296   5.309   0.734   2.220  0.8822  0.0943 -0.7886
13961TIP3   OH263297   3.245   0.329  11.974  0.3117  0.2876  0.2030
13961TIP3    H163298   3.220   0.411  11.932  1.3440  0.8591  0.6787
13961TIP3    H263299   3.168   0.305  12.026 -0.4498  0.3002 -0.8826
13962TIP3   OH263300   6.285   3.005   5.516  0.7246  0.1874  0.5153
13962TIP3    H163301   6.282   2.938   5.584  0.7441 -1.9077 -1.4642
13962TIP3    H263302   6.204   3.055   5.529  0.2680 -0.7705  1.4739
13963TIP3   OH263303   3.843   6.486  12.094 -0.4786  0.2395 -0.6700
13963TIP3    H163304   3.864   6.397  12.122 -0.2817  0.9120  1.6003
13963TIP3    H263305   3.818   6.530  12.176 -0.5575  2.2659 -1.7337
13964TIP3   OH263306   5.908   5.340   4.295 -0.4398 -0.5117 -0.3094
13964TIP3    H163307   5.957   5.355   4.214 -0.3711  0.6528 -0.0735
13964TIP3    H263308   5.854   5.419   4.305  0.3280 -0.1409  1.3170
13965TIP3   OH263309   1.076   1.228  10.852  0.5203  0.0540  0.7745
13965TIP3    H163310   1.168   1.201  10.854  0.6220  0.4257  1.3112
13965TIP3    H263311   1.044   1.211  10.940 -0.2660 -1.2017  0.2588
13966TIP3   OH263312   4.951   4.893   3.908  0.5762 -0.4264 -0.1469
13966TIP3    H163313   4.889   4.929   3.845  0.3902 -2.6631 -1.3566
13966TIP3    H263314   4.897   4.854   3.977  0.7190 -0.0022  0.2075
13967TIP3   OH263315   4.748   1.742   0.105 -0.6136  0.7357  0.1944
13967TIP3    H163316   4.834   1.783   0.094 -0.0835 -0.5924 -0.8802
13967TIP3    H263317   4.755   1.694   0.188  1.1053 -2.4813 -1.6098
13968TIP3   OH263318   2.684   2.657   4.921  0.3595  0.3247  0.1515
13968TIP3    H163319   2.736   2.661   4.841 -2.3749 -0.1996 -1.7881
13968TIP3    H263320   2.749   2.663   4.991  2.9412  0.3519 -2.0438
13969TIP3   OH263321   4.341   1.784  13.019  0.0060 -0.1659 -0.7820
13969TIP3    H163322   4.390   1.726  13.078  0.4544  0.0822 -0.9110
13969TIP3    H263323   4.251   1.778  13.050  0.2154 -0.1355 -0.1461
13970TIP3   OH263324   5.101   5.500  15.718  0.1999  0.3820  0.1960
13970TIP3    H163325   5.035   5.447  15.672  1.0586 -0.6707  0.1348
13970TIP3    H263326   5.182   5.485  15.669  0.4872  1.7080  0.2372
13971TIP3   OH263327   2.887   3.005   3.737  0.2879  0.3766  0.7963
13971TIP3    H163328   2.891   2.945   3.812 -2.3230 -0.4262  0.3996
13971TIP3    H263329   2.938   2.962   3.669  3.2759  1.4362  2.2104
13972TIP3   OH263330   2.523   0.140   0.671  0.3796 -0.0264 -0.2619
13972TIP3    H163331   2.463   0.148   0.745 -0.8008  0.7459 -1.2605
13972TIP3    H263332   2.516   0.223   0.625 -0.3925 -1.1475 -2.3088
13973TIP3   OH263333   1.146   5.273   3.265  0.1884 -0.1313  0.1151
13973TIP3    H163334   1.169   5.346   3.322  0.6588  0.4039 -0.7387
13973TIP3    H263335   1.216   5.270   3.201  0.2175 -1.4042  0.1912
13974TIP3   OH263336   1.038   1.083   1.983 -0.3945 -0.1325  0.1043
13974TIP3    H163337   1.078   1.003   1.950 -0.0762  0.0164  0.1222
13974TIP3    H263338   0.961   1.054   2.031 -0.4225 -0.4076 -0.1069
13975TIP3   OH263339   0.567   2.779   3.756  0.2758 -1.0858 -0.2517
13975TIP3    H163340   0.540   2.690   3.779  1.2830 -2.1031 -2.6461
13975TIP3    H263341   0.508   2.805   3.685  1.2029 -0.5992 -0.8595
13976TIP3   OH263342   0.391   2.845   3.398 -0.1275 -0.1173 -0.3077
13976TIP3    H163343   0.346   2.896   3.465 -0.1903  0.5275 -0.8240
13976TIP3    H263344   0.330   2.775   3.376 -0.0954 -0.3467  0.3194
13977TIP3   OH263345   6.737   4.484  14.915 -0.2331 -0.1341 -0.1503
13977TIP3    H163346   6.799   4.545  14.955 -1.1291  1.0600 -0.5271
13977TIP3    H263347   6.703   4.433  14.989  1.4238 -1.0542  0.0213
13978TIP3   OH263348   6.223   2.209  14.853 -0.2260 -0.0379  0.8119
13978TIP3    H163349   6.179   2.289  14.827  1.2786  0.9570  1.1921
13978TIP3    H263350   6.167   2.139  14.820 -2.0456  1.1424  1.2764
13979TIP3   OH263351   6.409   1.663  11.892 -0.1819  0.5851 -0.5118
13979TIP3    H163352   6.458   1.722  11.949  1.2228 -0.0568 -0.9905
13979TIP3    H263353   6.456   1.666  11.809 -0.2173 -1.0089 -0.6154
13980TIP3   OH263354   4.719   0.599   5.698 -0.0963  0.0731 -0.3450
13980TIP3    H163355   4.650   0.656   5.732  0.8963 -0.0475  2.0710
13980TIP3    H263356   4.800   0.648   5.714  0.5538 -0.8169 -0.8430
13981TIP3   OH263357   5.200   3.133   5.922 -0.5460  0.5564 -0.0131
13981TIP3    H163358   5.119   3.140   5.974 -1.4633  0.0840 -1.3120
13981TIP3    H263359   5.197   3.208   5.863 -0.1202  0.4414 -0.1784
13982TIP3   OH263360   2.904   0.380   2.599  0.1694 -0.0607  0.3435
13982TIP3    H163361   2.837   0.428   2.646 -0.5908 -0.3835 -0.3868
13982TIP3    H263362   2.941   0.445   2.538 -1.8221 -0.6714 -1.6479
13983TIP3   OH263363   5.494   3.629  14.657  0.4008  0.4287  0.3252
13983TIP3    H163364   5.468   3.719  14.674  0.8416  0.5825  0.2195
13983TIP3    H263365   5.590   3.631  14.660  0.4629  0.2048 -0.8274
13984TIP3   OH263366   4.991   5.659  13.633 -0.2512 -0.3339 -0.4401
13984TIP3    H163367   4.940   5.678  13.554  4.0108  0.9416 -3.1947
13984TIP3    H263368   4.927   5.666  13.704 -3.4087  4.0249 -3.1877
13985TIP3   OH263369   1.767   3.230   1.989 -0.1257 -0.0985 -0.3457
13985TIP3    H163370   1.837   3.264   2.046 -1.1200  2.4223 -0.5083
13985TIP3    H263371   1.813   3.198   1.911  0.8848  1.6464 -0.5193
13986TIP3   OH263372   2.968   1.584  14.996 -0.0498 -0.1590 -0.2982
13986TIP3    H163373   2.982   1.672  15.030 -0.0629 -0.0245 -0.6400
13986TIP3    H263374   3.037   1.572  14.931  0.6578 -0.8328  0.5609
13987TIP3   OH263375   4.413   4.576   5.538 -0.1347 -0.2304 -0.2912
13987TIP3    H163376   4.429   4.658   5.584  1.9476  0.5701 -2.2294
13987TIP3    H263377   4.418   4.509   5.606  0.4357  1.0562  0.9977
13988TIP3   OH263378   1.793   0.805   6.004 -0.3812 -0.0982 -0.1483
13988TIP3    H163379   1.698   0.795   6.002 -0.4798  0.1092  1.8003
13988TIP3    H263380   1.808   0.881   6.059  0.9601 -1.3998  1.3840
13989TIP3   OH263381   1.986   1.212   5.752  0.2041 -0.2244 -1.0896
13989TIP3    H163382   2.008   1.281   5.690  2.2607 -0.3540 -0.5864
13989TIP3    H263383   1.966   1.136   5.698  2.5504 -0.5056 -1.6496
13990TIP3   OH263384   5.620   0.358  12.456 -0.3268 -0.3934 -0.2825
13990TIP3    H163385   5.539   0.339  12.408 -1.1882  0.4016  0.7859
13990TIP3    H263386   5.615   0.302  12.534 -0.2597  0.2747  0.2061
13991TIP3   OH263387   2.991   1.747  13.567 -0.2168  0.3831  0.4564
13991TIP3    H163388   2.961   1.823  13.517 -4.3734  1.2459  3.6381
13991TIP3    H263389   2.950   1.672  13.523  0.2907  0.5097 -0.2354
13992TIP3   OH263390   0.056   0.930  12.364 -0.3745  0.4919 -1.0384
13992TIP3    H163391   0.024   0.975  12.286  0.2370  0.6182 -1.2197
13992TIP3    H263392   0.101   0.852  12.331 -1.8274 -0.5389 -0.7064
13993TIP3   OH263393   0.377   4.994  16.140 -0.3122  0.0734 -0.5103
13993TIP3    H163394   0.420   5.046  16.208  1.0403 -0.3356 -1.0312
13993TIP3    H263395   0.362   4.909  16.180  0.4523 -0.1560 -0.6997
13994TIP3   OH263396   3.950   2.401  15.300  0.1265  0.7598  0.0301
13994TIP3    H163397   3.970   2.482  15.348 -2.1369  0.9815  0.7141
13994TIP3    H263398   3.862   2.378  15.328  0.2862 -1.3458 -1.0309
13995TIP3   OH263399   4.188   4.763   6.077 -0.1118 -0.1308 -0.2691
13995TIP3    H163400   4.234   4.789   6.157  1.3633  0.3693 -1.2266
13995TIP3    H263401   4.100   4.799   6.087  0.4191  0.9953  0.6148
13996TIP3   OH263402   0.506   4.024   5.225  0.0435 -0.0483  0.2746
13996TIP3    H163403   0.472   4.049   5.139  0.1766  0.4750  0.3728
13996TIP3    H263404   0.457   4.078   5.287 -0.0091 -0.3817  0.5246
13997TIP3   OH263405   0.451   5.368  15.585 -0.1912 -0.1282 -0.2044
13997TIP3    H163406   0.441   5.432  15.656  1.4630  1.9975 -1.7553
13997TIP3    H263407   0.541   5.336  15.594 -0.7939 -1.8600  0.1522
13998TIP3   OH263408   1.779   3.782   3.191  0.3302  0.0474 -0.1972
13998TIP3    H163409   1.816   3.703   3.151 -1.0709 -0.7218 -0.0683
13998TIP3    H263410   1.854   3.838   3.209  1.2765 -0.8641 -1.1518
13999TIP3   OH263411   2.708   0.423   6.619 -0.6536 -0.1872 -0.6770
13999TIP3    H163412   2.741   0.333   6.618 -1.9965 -0.6954 -1.9706
13999TIP3    H263413   2.783   0.475   6.646  0.4386 -1.5797 -0.9068
14000TIP3   OH263414   0.213   3.402  13.699 -0.1988  0.1696  0.3177
14000TIP3    H163415   0.231   3.477  13.756  0.2377  1.4270 -1.3823
14000TIP3    H263416   0.137   3.429  13.648 -0.6691 -0.9846  0.3827
14001TIP3   OH263417   4.474   6.000  14.869  0.1358 -0.8698 -0.1366
14001TIP3    H163418   4.408   5.931  14.870 -0.4365 -0.3525  1.5429
14001TIP3    H263419   4.512   5.996  14.781 -1.8987 -1.3998 -1.0595
14002TIP3   OH263420   2.233   3.618  12.818 -0.1106 -0.1659 -0.0398
14002TIP3    H163421   2.251   3.703  12.858  1.1787 -0.8995  1.0215
14002TIP3    H263422   2.301   3.607  12.752  0.4130 -0.8279  0.5867
14003TIP3   OH263423   1.861   5.120  13.738 -0.6028  0.0097 -0.3182
14003TIP3    H163424   1.948   5.159  13.729 -0.5009 -0.1329  0.0420
14003TIP3    H263425   1.809   5.186  13.784 -1.1047  0.7092 -1.8260
14004TIP3   OH263426   3.646   1.891  11.650 -0.1141  0.2383 -0.4470
14004TIP3    H163427   3.630   1.955  11.719 -1.2856 -0.3810 -0.1281
14004TIP3    H263428   3.682   1.815  11.695 -0.7344 -0.1104 -0.5262
14005TIP3   OH263429   2.160   6.667   1.310 -0.0192 -0.9697 -0.3773
14005TIP3    H163430   2.246   6.706   1.330  1.1530 -2.1440 -2.6639
14005TIP3    H263431   2.109   6.740   1.275  0.2299 -0.3729  0.4717
14006TIP3   OH263432   1.717   1.045   6.103  0.1563  0.1882  0.5687
14006TIP3    H163433   1.634   1.028   6.058  1.2070 -0.3003 -1.2707
14006TIP3    H263434   1.742   1.132   6.075 -0.0485  0.6195  1.6772
14007TIP3   OH263435   4.745   0.760  15.551 -0.1844  0.2985 -0.4494
14007TIP3    H163436   4.816   0.696  15.558 -2.3727 -2.3179 -0.5006
14007TIP3    H263437   4.760   0.803  15.467 -0.1239 -2.1932 -1.8083
14008TIP3   OH263438   5.198   3.937  15.540  0.3035 -0.4628 -0.1230
14008TIP3    H163439   5.194   4.032  15.535 -1.6032 -0.3406  2.0397
14008TIP3    H263440   5.126   3.906  15.486  0.2347 -0.6299  0.0644
14009TIP3   OH263441   3.409   3.237   1.618  0.3605  0.5229  0.3628
14009TIP3    H163442   3.388   3.223   1.711  0.7201  1.6502  0.6313
14009TIP3    H263443   3.485   3.182   1.601 -0.0807 -0.1587  0.5711
14010TIP3   OH263444   6.038   6.713  11.842  0.6305 -0.5951 -0.4370
14010TIP3    H163445   6.008   6.755  11.761  2.6474 -1.0045 -1.4720
14010TIP3    H263446   5.976   6.642  11.856 -1.6480  1.3793  0.2288
14011TIP3   OH263447   0.544   6.749   4.162  0.1281  0.7552 -0.1176
14011TIP3    H163448   0.628   6.745   4.207  1.0352 -0.3703 -1.7944
14011TIP3    H263449   0.509   6.660   4.170  0.4997  0.4147 -1.8702
14012TIP3   OH263450   1.576   0.504   6.049 -0.2503 -0.1690 -0.5131
14012TIP3    H163451   1.593   0.472   5.961  1.1196  0.1482 -0.3832
14012TIP3    H263452   1.611   0.436   6.107  0.1555  0.2763 -0.2274
14013TIP3   OH263453   3.076   2.118  13.112 -0.4151  0.7136 -0.1163
14013TIP3    H163454   3.148   2.100  13.173 -1.2097 -0.3680  0.5376
14013TIP3    H263455   3.040   2.201  13.142  0.9067  1.5788 -0.8192
14014TIP3   OH263456   2.658   5.012  13.303  0.0960 -0.1911 -0.1808
14014TIP3    H163457   2.563   5.004  13.309  0.0792  0.6686  1.1201
14014TIP3    H263458   2.690   4.963  13.379  0.8456 -2.4633 -1.8697
14015TIP3   OH263459   6.762   1.086  16.437 -0.5632 -0.1072 -0.2304
14015TIP3    H163460   6.732   1.137  16.362 -1.2637 -1.2397 -0.7569
14015TIP3    H263461   6.682   1.060  16.482 -0.3090 -1.6475 -0.6109
14016TIP3   OH263462   1.089   0.189  13.061  0.7085  0.5540 -0.4436
14016TIP3    H163463   1.184   0.199  13.061  0.7042  0.6086 -0.0078
14016TIP3    H263464   1.066   0.172  12.970  1.2206 -0.2492 -0.4342
14017TIP3   OH263465   6.172   2.338   2.457 -0.0753  0.1681  0.3141
14017TIP3    H163466   6.102   2.275   2.473  0.4775 -0.1868  1.4451
14017TIP3    H263467   6.127   2.422   2.447 -0.6689 -0.0215  1.2588
14018TIP3   OH263468   5.323   3.931  17.053 -0.1405 -0.6555 -0.4057
14018TIP3    H163469   5.397   3.957  17.108 -0.3559  0.4062 -0.6097
14018TIP3    H263470   5.331   3.985  16.975  0.5897 -2.6491 -1.8143
14019TIP3   OH263471   3.067   5.640  13.520  0.1844 -0.2309 -0.2972
14019TIP3    H163472   3.116   5.607  13.445  0.3843  1.4300 -0.9480
14019TIP3    H263473   3.102   5.728  13.534 -1.6218  0.4542  0.1280
14020TIP3   OH263474   5.902   3.154   4.295 -0.0177 -1.0309 -0.3478
14020TIP3    H163475   5.947   3.102   4.227  1.0825 -0.2682 -0.2355
14020TIP3    H263476   5.862   3.089   4.352  1.3434 -1.7924 -0.2053
14021TIP3   OH263477   4.027   1.380  15.586 -0.0719 -0.3536  0.1178
14021TIP3    H163478   3.961   1.311  15.586 -1.5855  1.0438  0.0383
14021TIP3    H263479   3.989   1.450  15.533  2.1960 -0.1378 -1.3615
14022TIP3   OH263480   4.723   4.607  11.356 -0.8328  0.6132  0.1540
14022TIP3    H163481   4.685   4.595  11.269  1.6020  1.3177 -1.0994
14022TIP3    H263482   4.669   4.675  11.397 -1.3139  1.1204 -1.2672
14023TIP3   OH263483   4.249   3.769   2.538 -0.2115 -0.2708  0.0272
14023TIP3    H163484   4.249   3.725   2.453  0.7447  0.8912 -0.6248
14023TIP3    H263485   4.228   3.701   2.601  0.9949 -1.6113 -0.9407
14024TIP3   OH263486   0.313   5.271  13.654  0.1964 -0.0190 -0.5084
14024TIP3    H163487   0.285   5.270  13.745 -0.3485  1.0332 -0.6517
14024TIP3    H263488   0.331   5.363  13.634 -0.1100 -0.1712 -1.5819
14025TIP3   OH263489   2.455   3.221  12.407  0.2082 -0.1202  0.0480
14025TIP3    H163490   2.370   3.208  12.365  0.1319  0.3458  0.0471
14025TIP3    H263491   2.501   3.138  12.395 -0.4333 -0.5522  0.4911
14026TIP3   OH263492   2.215   5.352   5.558  0.1690 -0.2994  0.1877
14026TIP3    H163493   2.240   5.366   5.466  1.4485 -0.5207  0.4768
14026TIP3    H263494   2.253   5.427   5.604  0.2063 -0.5929  0.6372
14027TIP3   OH263495   2.617   1.894   3.139 -0.1349 -0.8240  0.0183
14027TIP3    H163496   2.561   1.827   3.177  0.4785 -1.0760  0.4940
14027TIP3    H263497   2.702   1.880   3.180  0.1172 -0.0488 -0.2209
14028TIP3   OH263498   0.377   1.663  14.305  0.0132  1.3375 -0.0705
14028TIP3    H163499   0.306   1.657  14.241 -0.3798  2.1742  0.2660
14028TIP3    H263500   0.343   1.620  14.383 -0.3079  2.1329  0.2373
14029TIP3   OH263501   3.907   3.379  14.072 -0.0640  0.1556  0.2621
14029TIP3    H163502   3.932   3.449  14.012 -0.1528  0.4296  0.5400
14029TIP3    H263503   3.989   3.345  14.105 -0.0193  0.1011  0.0970
14030TIP3   OH263504   5.774   2.295   4.315  0.2331  0.6121 -0.5332
14030TIP3    H163505   5.781   2.310   4.221  1.4612  0.0833 -0.5404
14030TIP3    H263506   5.862   2.270   4.343 -0.7489 -2.6034  0.1524
14031TIP3   OH263507   4.454   6.616   2.865 -0.0458  0.9850  0.0999
14031TIP3    H163508   4.437   6.607   2.959 -0.5993 -2.4576 -0.1955
14031TIP3    H263509   4.383   6.671   2.833 -2.5053 -1.4129  1.1032
14032TIP3   OH263510   0.623   4.434   1.202  0.4046  0.3205  0.5084
14032TIP3    H163511   0.617   4.354   1.149  1.6145 -0.1364  1.0170
14032TIP3    H263512   0.633   4.504   1.138  1.4712 -0.1848  0.0883
14033TIP3   OH263513   5.836   0.163  15.222 -0.2303  0.3409  0.2489
14033TIP3    H163514   5.821   0.086  15.167 -1.1317 -0.5669  1.7142
14033TIP3    H263515   5.794   0.235  15.175 -3.6185 -0.9307  1.0465
14034TIP3   OH263516   0.502   4.761  12.431 -0.3798  0.1591 -0.2894
14034TIP3    H163517   0.547   4.711  12.363 -0.7450  0.0112 -0.4243
14034TIP3    H263518   0.512   4.708  12.510 -2.3766 -1.1035 -0.8065
14035TIP3   OH263519   1.731   4.055  11.474  0.4889  0.0934 -0.2497
14035TIP3    H163520   1.776   4.040  11.557 -0.5814 -0.9760  0.1608
14035TIP3    H263521   1.694   4.143  11.483  0.3303 -0.0348  0.4340
14036TIP3   OH263522   1.173   1.460  11.885 -0.0301  0.7332 -0.0099
14036TIP3    H163523   1.256   1.499  11.914 -0.1792  1.0975 -0.0766
14036TIP3    H263524   1.200   1.386  11.830  0.2576  0.3316  0.6506
14037TIP3   OH263525   2.563   4.168  16.194 -0.2332 -0.7455 -0.0712
14037TIP3    H163526   2.476   4.187  16.158 -0.3684 -0.0636  0.5917
14037TIP3    H263527   2.549   4.094  16.253 -0.3441 -0.7013 -0.0417
14038TIP3   OH263528   6.150   2.695  17.255  0.0497 -0.0079 -0.3765
14038TIP3    H163529   6.108   2.731  17.333 -1.6128  0.2629 -1.3487
14038TIP3    H263530   6.159   2.602  17.273 -0.7629 -0.0285 -0.0427
14039TIP3   OH263531   4.865   3.298   1.222 -0.0936  0.6309  0.0367
14039TIP3    H163532   4.817   3.286   1.304  0.3573  1.3102  0.4094
14039TIP3    H263533   4.947   3.249   1.235  0.3508  1.4351  0.3309
14040TIP3   OH263534   3.597   5.164   3.037  0.5465  0.1514  0.1291
14040TIP3    H163535   3.540   5.163   2.960 -0.2616  0.9080  0.7048
14040TIP3    H263536   3.645   5.246   3.029  0.6623  0.0976  0.2884
14041TIP3   OH263537   0.344   0.302  15.374 -0.1567  0.0640  0.1765
14041TIP3    H163538   0.419   0.361  15.368 -0.0408 -0.1315 -0.4082
14041TIP3    H263539   0.354   0.243  15.299 -0.6605 -0.2379  0.3396
14042TIP3   OH263540   2.791   6.704  12.475  0.8318  0.5975 -0.0130
14042TIP3    H163541   2.806   6.761  12.550 -1.0291  0.5546  0.4342
14042TIP3    H263542   2.832   6.621  12.499 -0.2922  0.3801  1.2558
14043TIP3   OH263543   2.266   2.966  14.208  0.0161  0.1589 -0.4489
14043TIP3    H163544   2.308   2.932  14.129 -1.8743 -2.6943 -0.3623
14043TIP3    H263545   2.309   2.921  14.280 -0.9242 -0.3157 -0.1599
14044TIP3   OH263546   4.941   0.424  17.249  0.2260  0.1442  0.1749
14044TIP3    H163547   4.939   0.384  17.336  0.7286 -1.6823 -0.6158
14044TIP3    H263548   4.849   0.437  17.227  0.0941  0.6827  0.9937
14045TIP3   OH263549   1.060   2.107  13.391 -0.2158 -0.2028 -0.0257
14045TIP3    H163550   0.990   2.097  13.327  0.1692  0.4860 -0.5647
14045TIP3    H263551   1.042   2.190  13.435  0.5381  0.2370 -0.5283
14046TIP3   OH263552   6.497   5.674   4.827  0.3329  0.0926  0.2918
14046TIP3    H163553   6.453   5.739   4.882 -0.3992  1.3967 -1.6992
14046TIP3    H263554   6.429   5.642   4.768  1.3987 -0.0345 -0.9306
14047TIP3   OH263555   0.844   3.669  14.736 -0.1830  0.3152 -0.1538
14047TIP3    H163556   0.905   3.596  14.729  0.7455  1.0729 -0.2398
14047TIP3    H263557   0.842   3.708  14.649 -2.9811 -1.3370 -0.9531
14048TIP3   OH263558   6.682   0.009  15.830 -0.0388 -0.0372  0.2634
14048TIP3    H163559   6.739   0.085  15.832  0.4904 -0.4179  0.0126
14048TIP3    H263560   6.629   0.020  15.752 -1.4467  1.1145  1.3332
14049TIP3   OH263561   1.218   1.705  12.226 -0.3822  0.4977  0.3471
14049TIP3    H163562   1.150   1.649  12.188 -1.3002  2.0419 -0.3891
14049TIP3    H263563   1.289   1.702  12.163 -1.3678  1.9848 -0.8875
14050TIP3   OH263564   3.434   5.710  12.405 -0.6318  0.2222 -0.2069
14050TIP3    H163565   3.514   5.743  12.364 -0.6608  0.3342 -0.1744
14050TIP3    H263566   3.460   5.688  12.495 -0.2478 -1.2932 -0.6572
14051TIP3   OH263567   4.981   4.200   2.256  0.0597  0.2207 -0.1117
14051TIP3    H163568   4.951   4.153   2.334 -0.3957 -0.1824 -0.5245
14051TIP3    H263569   4.904   4.205   2.200  0.4420  0.3063 -0.6329
14052TIP3   OH263570   3.380   1.403  15.661  0.5401 -0.3937 -0.4175
14052TIP3    H163571   3.384   1.317  15.620  2.4700  0.0967 -1.3883
14052TIP3    H263572   3.471   1.427  15.676  0.0930  1.7108 -0.6869
14053TIP3   OH263573   0.774   3.028   2.496 -0.2073 -0.0904  0.0597
14053TIP3    H163574   0.679   3.036   2.497 -0.4126 -2.0110 -0.1824
14053TIP3    H263575   0.803   3.068   2.578 -1.0799  1.6014 -0.4162
14054TIP3   OH263576   1.512   5.748  17.250  0.0939  0.2606 -0.0100
14054TIP3    H163577   1.587   5.739  17.308 -0.0372 -1.5435 -0.0787
14054TIP3    H263578   1.508   5.666  17.201 -2.0425  0.1942  0.1620
14055TIP3   OH263579   0.545   5.536  16.526  0.3278 -0.7833 -0.0417
14055TIP3    H163580   0.509   5.502  16.444 -0.9188  1.7451 -0.6248
14055TIP3    H263581   0.572   5.458  16.574 -1.5662 -2.5306 -1.6308
14056TIP3   OH263582   5.037   3.491  12.464 -0.1650 -0.3186 -0.4310
14056TIP3    H163583   5.042   3.396  12.454  0.6801 -0.4365  0.8755
14056TIP3    H263584   4.961   3.505  12.521  1.0760 -0.4187  1.3325
14057TIP3   OH263585   5.104   3.518   1.832 -0.1871 -0.1507  0.4686
14057TIP3    H163586   5.153   3.571   1.770 -1.5199  2.1208  1.2494
14057TIP3    H263587   5.058   3.581   1.887 -1.0991 -2.1181  2.1103
14058TIP3   OH263588   4.738   5.499   2.253 -0.3456  0.7403 -0.3197
14058TIP3    H163589   4.775   5.418   2.218 -1.1009 -0.2773  1.1408
14058TIP3    H263590   4.649   5.502   2.218 -1.2820 -0.5473  1.7952
14059TIP3   OH263591   6.050   2.062  16.146 -0.4352  0.3784 -0.1713
14059TIP3    H163592   6.074   2.027  16.231 -1.9384 -0.9951 -0.2859
14059TIP3    H263593   5.966   2.105  16.159 -1.5514 -1.3444 -1.2603
14060TIP3   OH263594   5.954   5.541   6.350  0.0554 -0.4018 -0.3891
14060TIP3    H163595   5.910   5.493   6.280  0.5172 -0.2957 -0.7608
14060TIP3    H263596   5.890   5.605   6.380  0.1271  0.1087 -1.2847
14061TIP3   OH263597   5.267   1.880   1.986 -0.7694 -0.5019  0.1667
14061TIP3    H163598   5.289   1.847   1.899 -3.8541 -0.1118 -0.8892
14061TIP3    H263599   5.272   1.975   1.978  3.2263 -0.3851  1.8012
14062TIP3   OH263600   2.189   3.517   4.887  0.2142 -0.1930  0.0906
14062TIP3    H163601   2.180   3.472   4.972 -0.2354 -0.6321 -0.1838
14062TIP3    H263602   2.109   3.494   4.840  0.3582  0.2419 -0.3666
14063TIP3   OH263603   4.075   0.629   1.332 -0.2185 -0.6651 -0.3572
14063TIP3    H163604   3.980   0.620   1.338 -0.1082 -2.3380 -0.7079
14063TIP3    H263605   4.110   0.559   1.386  0.9035  1.3363  1.7182
14064TIP3   OH263606   3.139   1.311  15.359 -0.2321  0.1911 -0.0567
14064TIP3    H163607   3.133   1.307  15.454 -1.3020 -1.0353 -0.1578
14064TIP3    H263608   3.088   1.237  15.328 -0.2277  0.7935 -1.6042
14065TIP3   OH263609   6.062   4.634   1.403  0.1463 -0.1252 -0.0907
14065TIP3    H163610   6.132   4.568   1.407  0.7780  0.5483  2.9033
14065TIP3    H263611   6.105   4.715   1.431 -1.3788  0.8013 -0.3363
14066TIP3   OH263612   2.890   5.891   4.973 -0.6899 -0.8767 -0.0717
14066TIP3    H163613   2.904   5.985   4.985  0.3437 -0.8838 -1.1030
14066TIP3    H263614   2.875   5.858   5.062  1.6719 -0.1534  0.6626
14067TIP3   OH263615   1.699   3.797   4.534 -0.5674  0.0120 -0.6449
14067TIP3    H163616   1.756   3.793   4.458  0.8754  1.2486  0.3096
14067TIP3    H263617   1.650   3.879   4.523 -1.5947 -0.6400 -1.0544
14068TIP3   OH263618   4.817   5.878  11.446  0.2381  0.5092 -0.9583
14068TIP3    H163619   4.723   5.873  11.431  0.1764  1.5846 -1.0289
14068TIP3    H263620   4.851   5.923  11.368  0.7900  0.2625 -0.8643
14069TIP3   OH263621   3.613   2.791  11.795  0.3781  1.0034 -0.4978
14069TIP3    H163622   3.694   2.780  11.845  0.1544 -0.1348 -0.3715
14069TIP3    H263623   3.632   2.755  11.709  0.6994  2.7806 -1.2325
14070TIP3   OH263624   5.705   0.044  15.499  0.2349  0.3900  0.0626
14070TIP3    H163625   5.770  -0.003  15.446  1.1943  0.8103  0.8290
14070TIP3    H263626   5.658   0.100  15.437  0.0499 -0.5072 -0.6287
14071TIP3   OH263627   3.363   1.848  15.880 -0.1356  0.2403  0.1114
14071TIP3    H163628   3.299   1.903  15.926 -1.2926 -1.9718  1.3335
14071TIP3    H263629   3.414   1.807  15.950 -2.5438 -3.9419 -0.2138
14072TIP3   OH263630   0.739   3.559  15.276 -0.1503  0.1301  0.2858
14072TIP3    H163631   0.773   3.509  15.202  0.9623 -0.1726  0.9735
14072TIP3    H263632   0.681   3.624  15.237 -1.2981 -1.4096 -0.6651
14073TIP3   OH263633   3.733   0.110  14.521  0.5554 -0.4641 -0.3050
14073TIP3    H163634   3.671   0.080  14.455  0.3715  0.2540 -0.4709
14073TIP3    H263635   3.711   0.061  14.600 -1.8825  1.4989  0.3738
14074TIP3   OH263636   3.190   6.694   1.565 -0.4976 -0.3427  0.1295
14074TIP3    H163637   3.177   6.742   1.647 -0.7962 -0.5068  0.1778
14074TIP3    H263638   3.285   6.681   1.560 -0.5029 -0.6234  0.6196
14075TIP3   OH263639   0.786   5.643   5.359  0.1465 -0.4408 -0.7704
14075TIP3    H163640   0.856   5.592   5.319  1.1036 -1.8052  2.3134
14075TIP3    H263641   0.794   5.625   5.453 -3.5476  0.3467 -0.1318
14076TIP3   OH263642   3.880   3.705   4.342  0.0742 -0.1180 -0.4442
14076TIP3    H163643   3.881   3.613   4.366 -0.5799  0.5134  2.3279
14076TIP3    H263644   3.787   3.727   4.337  0.2132  0.6729  0.2330
14077TIP3   OH263645   0.986   2.914   6.477 -0.0295  0.7988 -0.2666
14077TIP3    H163646   1.044   2.851   6.521 -0.0306  1.6231  0.9566
14077TIP3    H263647   0.987   2.991   6.533 -0.5726  1.6546 -1.3874
14078TIP3   OH263648   6.178   4.832   3.509 -0.4381 -0.3588 -0.1195
14078TIP3    H163649   6.153   4.781   3.586 -0.4806 -0.9698 -0.5304
14078TIP3    H263650   6.193   4.766   3.441  0.7397  0.0848 -0.3185
14079TIP3   OH263651   3.540   5.140  17.005 -0.1689 -0.4635 -0.2904
14079TIP3    H163652   3.527   5.147  17.099 -0.9921 -1.5308 -0.3039
14079TIP3    H263653   3.634   5.127  16.994 -0.1127 -0.6851  0.4128
14080TIP3   OH263654   2.143   6.620   2.532 -0.1814  0.3129  0.3284
14080TIP3    H163655   2.222   6.674   2.520 -0.5495  0.9771  0.7829
14080TIP3    H263656   2.125   6.625   2.626 -0.0789 -0.8287  0.4160
14081TIP3   OH263657   6.559   4.695  13.032  0.0684  0.0123 -0.6564
14081TIP3    H163658   6.633   4.754  13.045 -0.2417  0.3768 -0.5379
14081TIP3    H263659   6.571   4.663  12.942 -0.3244  1.0568 -1.1001
14082TIP3   OH263660   0.741   3.823   2.979 -0.3827 -0.3300  0.4986
14082TIP3    H163661   0.681   3.839   2.906  0.1084 -1.2274 -0.1138
14082TIP3    H263662   0.775   3.910   3.001 -0.1528 -0.1030 -0.6846
14083TIP3   OH263663   6.514   1.668  14.303 -0.0317 -0.2838 -0.3449
14083TIP3    H163664   6.588   1.620  14.339  0.9674 -0.1071 -2.1143
14083TIP3    H263665   6.441   1.606  14.309  0.6930 -1.1723 -0.4001
14084TIP3   OH263666   0.132   0.577   5.252  0.0385 -0.3516 -0.4792
14084TIP3    H163667   0.205   0.637   5.236 -0.0458 -0.2472 -0.4733
14084TIP3    H263668   0.163   0.492   5.219 -0.6182  0.1170 -2.4197
14085TIP3   OH263669   4.142   3.019   5.521 -1.0646 -0.0110 -0.4590
14085TIP3    H163670   4.053   2.997   5.494 -1.3237  0.8262 -0.3236
14085TIP3    H263671   4.181   2.936   5.547 -1.9671 -0.3220 -0.0587
14086TIP3   OH263672   5.765   4.739   3.245 -0.0364  0.2040 -0.1427
14086TIP3    H163673   5.760   4.699   3.158  0.6734  0.3027 -0.2379
14086TIP3    H263674   5.749   4.666   3.305 -1.8707  0.3848 -0.3640
14087TIP3   OH263675   1.747   2.214  16.009 -0.0515 -0.3936 -0.3227
14087TIP3    H163676   1.687   2.155  16.054 -2.8485  0.3314 -2.7279
14087TIP3    H263677   1.806   2.156  15.961 -1.0902 -1.2366 -0.6242
14088TIP3   OH263678   1.220   6.740  15.094 -0.4013 -0.2423 -0.2155
14088TIP3    H163679   1.205   6.658  15.141  1.5243 -0.6653 -0.2559
14088TIP3    H263680   1.259   6.714  15.011  0.3049  0.7225 -0.2006
14089TIP3   OH263681   1.308   6.407   1.872  0.3914  0.0237  0.8899
14089TIP3    H163682   1.387   6.386   1.922 -0.0996  0.1701  1.7603
14089TIP3    H263683   1.237   6.368   1.924 -0.1111 -0.0432  0.1573
14090TIP3   OH263684   0.449   2.990  12.671  0.8555  0.2367 -0.2631
14090TIP3    H163685   0.534   2.948  12.667  0.6624 -0.1128 -0.8647
14090TIP3    H263686   0.468   3.082  12.687  1.2650 -0.1317  1.6115
14091TIP3   OH263687   3.864   3.435   1.958  0.3796 -0.0560  0.3089
14091TIP3    H163688   3.885   3.464   2.046  0.9620  0.2491  0.0728
14091TIP3    H263689   3.769   3.440   1.953  0.2211 -1.3011  1.3411
14092TIP3   OH263690   4.050   5.986  11.423  0.2877 -0.6462 -0.2722
14092TIP3    H163691   4.048   6.081  11.440 -0.4168 -0.7391  0.1971
14092TIP3    H263692   3.958   5.962  11.413  0.5358 -1.0128 -2.0115
14093TIP3   OH263693   4.782   6.067  12.210  0.3531  0.3906 -0.1254
14093TIP3    H163694   4.771   6.019  12.293  1.3821  0.1303 -0.1206
14093TIP3    H263695   4.713   6.034  12.154 -0.8864  1.1669  0.8905
14094TIP3   OH263696   5.617   2.080   4.153  0.0004  0.1951  0.1150
14094TIP3    H163697   5.594   2.100   4.063  1.1053  0.8741 -0.0292
14094TIP3    H263698   5.663   2.157   4.184 -0.3095 -0.0544  1.2496
14095TIP3   OH263699   0.980   6.442  12.503  1.4461  0.5056  0.0295
14095TIP3    H163700   0.995   6.366  12.559  0.3448  1.2773  1.4310
14095TIP3    H263701   0.960   6.405  12.417  2.1045 -0.7354  0.3831
14096TIP3   OH263702   3.319   4.841  14.414 -0.3499 -0.1947 -0.3231
14096TIP3    H163703   3.323   4.751  14.448  0.4861 -0.2861 -0.6349
14096TIP3    H263704   3.239   4.843  14.362 -0.5827 -0.6455  0.0108
14097TIP3   OH263705   3.242   0.006  12.655 -0.4059  0.3527  0.5077
14097TIP3    H163706   3.331   0.021  12.622 -0.2826 -0.8988  0.2521
14097TIP3    H263707   3.206  -0.062  12.599 -1.9019  1.5100 -0.0114
14098TIP3   OH263708   5.541   3.881  14.019  0.1533  0.3038  0.5333
14098TIP3    H163709   5.494   3.924  13.948 -0.9796 -1.2125  0.2879
14098TIP3    H263710   5.534   3.941  14.093 -1.1821  0.6497  0.1545
14099TIP3   OH263711   6.505   3.681   6.691  0.1026  1.0092  0.4829
14099TIP3    H163712   6.569   3.684   6.762 -0.3448  1.4045  0.8763
14099TIP3    H263713   6.544   3.734   6.622  1.6777 -1.3256 -0.5666
14100TIP3   OH263714   0.704   0.760  15.923 -0.2074  0.2585 -0.0669
14100TIP3    H163715   0.795   0.759  15.893 -0.2409  0.7028 -0.1899
14100TIP3    H263716   0.703   0.701  15.999  0.5902  1.6690  1.0814
14101TIP3   OH263717   0.546   3.891  15.634 -0.2696 -0.1269 -0.1842
14101TIP3    H163718   0.570   3.931  15.551  2.8438  0.4157  0.8222
14101TIP3    H263719   0.611   3.821  15.646 -1.2061 -0.7854  1.3747
14102TIP3   OH263720   4.529   2.411  12.470 -0.2558 -0.0342  0.4112
14102TIP3    H163721   4.599   2.355  12.436 -0.1234 -0.5486  1.4921
14102TIP3    H263722   4.504   2.465  12.395 -0.4812 -1.6108 -0.7066
14103TIP3   OH263723   6.014   1.763  16.217 -0.2322 -0.6968 -0.2096
14103TIP3    H163724   5.954   1.835  16.198  0.0090 -0.3990  0.1246
14103TIP3    H263725   6.101   1.803  16.214 -0.1736 -0.6522  1.3212
14104TIP3   OH263726   2.703   4.277  13.342  0.2838 -0.4530  0.1945
14104TIP3    H163727   2.654   4.214  13.288 -1.6188  2.2802 -1.5165
14104TIP3    H263728   2.660   4.272  13.428 -0.6954 -0.6032 -0.2837
14105TIP3   OH263729   0.406   5.628   1.246 -0.1281 -0.0283 -0.1428
14105TIP3    H163730   0.396   5.614   1.340 -2.1044  0.2561 -0.2744
14105TIP3    H263731   0.498   5.652   1.235  0.3373 -0.8331  1.6001
14106TIP3   OH263732   0.517   6.303  14.384  0.5678  0.4781  0.5511
14106TIP3    H163733   0.558   6.273  14.465 -0.5048  0.3175  1.0554
14106TIP3    H263734   0.580   6.282  14.316  0.6285 -1.2979  1.0966
14107TIP3   OH263735   4.168   5.845   5.203  0.5284 -0.0860  0.0396
14107TIP3    H163736   4.152   5.750   5.201  1.5384 -0.2657  0.4954
14107TIP3    H263737   4.248   5.856   5.253  0.3231  1.0379  0.1554
14108TIP3   OH263738   2.422   2.479  14.846 -0.0146  0.1499 -0.1050
14108TIP3    H163739   2.395   2.491  14.755 -0.5418 -2.0931 -0.3075
14108TIP3    H263740   2.397   2.389  14.867 -0.3655  0.7467  2.4246
14109TIP3   OH263741   3.192   1.096   1.786 -0.3459  0.1369  0.2405
14109TIP3    H163742   3.100   1.091   1.757 -0.4461 -1.0744  0.7017
14109TIP3    H263743   3.240   1.045   1.721 -0.0492  0.4329  0.2258
14110TIP3   OH263744   3.331   0.190  14.548 -0.2828  0.5134 -0.2414
14110TIP3    H163745   3.250   0.219  14.507 -0.4999 -2.1125 -1.9133
14110TIP3    H263746   3.386   0.160  14.475  1.8564  1.3477  0.9287
14111TIP3   OH263747   1.275   4.834   3.568 -0.3967  0.2454  0.2164
14111TIP3    H163748   1.278   4.738   3.563 -1.7261  0.2411 -0.8732
14111TIP3    H263749   1.216   4.860   3.497 -0.3346  1.8538  0.7278
14112TIP3   OH263750   6.306   4.598   3.192  0.6222  0.5464 -0.2265
14112TIP3    H163751   6.396   4.582   3.161  1.4504  0.8888  1.8551
14112TIP3    H263752   6.279   4.514   3.229  0.7201  0.8977  0.6444
14113TIP3   OH263753   0.908   3.606   6.263  0.6992  0.0078  0.6762
14113TIP3    H163754   0.905   3.674   6.330  1.0113  2.2056 -1.4024
14113TIP3    H263755   1.001   3.587   6.252  0.6793 -0.0470  0.5995
14114TIP3   OH263756   2.628   2.645  14.931 -0.0666  0.5505  0.0438
14114TIP3    H163757   2.567   2.585  14.887 -0.4330  1.7875 -1.1937
14114TIP3    H263758   2.624   2.619  15.023 -1.2313 -0.4460 -0.2586
14115TIP3   OH263759   5.826   5.327   2.485 -0.2918  0.6009  0.1907
14115TIP3    H163760   5.836   5.417   2.455  0.5054  1.2871  2.3369
14115TIP3    H263761   5.890   5.318   2.556 -1.4552 -1.1610  1.0870
14116TIP3   OH263762   0.301   0.570  14.363 -0.4202  0.1332  0.2736
14116TIP3    H163763   0.380   0.521  14.337  0.2307  0.8616  0.8371
14116TIP3    H263764   0.255   0.585  14.280  0.8411  1.0605 -0.3101
14117TIP3   OH263765   6.732   1.851   0.283  0.1515  0.2151  0.8796
14117TIP3    H163766   6.675   1.927   0.278  0.6225  0.5291  0.2218
14117TIP3    H263767   6.688   1.792   0.345 -0.3781  0.8735  1.1414
14118TIP3   OH263768   2.502   4.367   5.970 -0.8103 -0.6778  0.0230
14118TIP3    H163769   2.430   4.322   6.013  0.1834 -2.6810 -0.2829
14118TIP3    H263770   2.472   4.382   5.880 -0.4699 -2.5736 -0.4482
14119TIP3   OH263771   4.028   4.459   1.785 -0.2708  0.0200 -0.0963
14119TIP3    H163772   4.061   4.474   1.873  0.5180 -1.2575 -0.1311
14119TIP3    H263773   4.001   4.545   1.753 -1.2112  0.3953  1.6266
14120TIP3   OH263774   2.174   5.845  13.396 -0.9211 -0.6103  0.1430
14120TIP3    H163775   2.225   5.776  13.354  0.1589  0.6409 -0.6950
14120TIP3    H263776   2.211   5.852  13.484  1.7724  1.5211 -1.0069
14121TIP3   OH263777   2.554   1.271  11.476 -0.0832 -0.1995 -0.2520
14121TIP3    H163778   2.631   1.315  11.440  0.5037  0.9247  2.1586
14121TIP3    H263779   2.507   1.340  11.524 -0.9177 -1.5005  0.8823
14122TIP3   OH263780   2.260   4.897   4.151  0.2059  0.2445 -0.3633
14122TIP3    H163781   2.349   4.873   4.176 -0.3024 -0.6683  0.6758
14122TIP3    H263782   2.256   4.992   4.164  0.6872  0.1336  0.7359
14123TIP3   OH263783   0.009   4.073  14.153 -0.0503  0.0115 -0.4166
14123TIP3    H163784  -0.076   4.084  14.110 -0.1863 -0.0235 -0.1596
14123TIP3    H263785  -0.009   4.092  14.245  0.4376  1.0440 -0.5241
14124TIP3   OH263786   6.240   4.411   4.188 -0.0810 -0.3058  0.2881
14124TIP3    H163787   6.295   4.453   4.122 -0.7398 -1.0458 -0.7553
14124TIP3    H263788   6.291   4.418   4.269  1.3847 -0.6403 -0.5635
14125TIP3   OH263789   6.538   6.609   2.564 -0.3634 -0.3992 -0.4707
14125TIP3    H163790   6.519   6.694   2.605  1.8966  0.6408 -1.3958
14125TIP3    H263791   6.493   6.614   2.479 -0.2039 -0.0806 -0.5410
14126TIP3   OH263792   4.742   1.062  12.326 -0.5011 -0.1111 -0.1713
14126TIP3    H163793   4.710   1.144  12.364 -0.9362 -0.4103  0.1232
14126TIP3    H263794   4.715   1.066  12.234  1.7223  1.2172 -0.8244
14127TIP3   OH263795   2.006   6.272  16.444 -0.5394 -0.0525 -0.2468
14127TIP3    H163796   2.055   6.338  16.492  1.1800 -0.5011 -1.3240
14127TIP3    H263797   1.954   6.322  16.381 -0.1825  0.3265 -0.2428
14128TIP3   OH263798   0.152   1.297  13.556  0.0514  0.4251  0.0661
14128TIP3    H163799   0.098   1.359  13.507  1.4607  1.2650 -0.5166
14128TIP3    H263800   0.097   1.220  13.567 -1.3307  1.3225 -0.2750
14129TIP3   OH263801   2.296   4.974  17.212  0.0250  0.0988 -0.1008
14129TIP3    H163802   2.331   4.886  17.198  0.0256  0.0389  0.2891
14129TIP3    H263803   2.304   4.989  17.306  1.0012  0.9217 -0.2927
14130TIP3   OH263804   2.281   1.276  14.939 -0.2497  0.3179  0.0694
14130TIP3    H163805   2.292   1.353  14.994 -1.2712  0.5083  0.0315
14130TIP3    H263806   2.306   1.305  14.851 -0.8766  0.6910  0.0084
14131TIP3   OH263807   0.531   2.916  16.925 -0.1736  0.2447 -0.8376
14131TIP3    H163808   0.467   2.866  16.874 -0.3504 -0.6208  0.2203
14131TIP3    H263809   0.582   2.964  16.858 -0.2160 -1.0626 -1.8506
14132TIP3   OH263810   3.834   5.685   1.212 -0.1336  0.1710  0.1214
14132TIP3    H163811   3.806   5.776   1.213  2.0152  0.8907  1.0028
14132TIP3    H263812   3.810   5.653   1.125 -1.2094  1.4640 -0.0843
14133TIP3   OH263813   4.848   1.982  14.215  0.0871 -0.1104 -0.5527
14133TIP3    H163814   4.923   1.951  14.265  1.0018  2.9715  0.1788
14133TIP3    H263815   4.878   1.984  14.124  1.5715  2.5659 -0.1024
14134TIP3   OH263816   1.712   6.312  12.208 -0.2730 -0.1529 -0.1972
14134TIP3    H163817   1.629   6.280  12.244 -0.6923  0.5080 -0.5469
14134TIP3    H263818   1.716   6.404  12.234  0.6634 -0.3369  0.3488
14135TIP3   OH263819   4.566   6.252   0.804  0.3189  0.0043 -0.3330
14135TIP3    H163820   4.616   6.171   0.800  0.1629 -0.0497 -1.5788
14135TIP3    H263821   4.477   6.227   0.777 -0.5097  0.0368  2.1128
14136TIP3   OH263822   2.258   3.169  14.862 -0.5500  0.5811  0.6603
14136TIP3    H163823   2.256   3.255  14.903  1.4101  0.9953 -0.0235
14136TIP3    H263824   2.225   3.184  14.773 -0.8917  0.4881  0.7722
14137TIP3   OH263825   2.699   2.638  15.793 -1.0362 -0.1278  0.5719
14137TIP3    H163826   2.606   2.658  15.792 -1.7671 -2.7480  3.1318
14137TIP3    H263827   2.704   2.546  15.819  2.2665 -0.3504 -0.3442
14138TIP3   OH263828   2.439   2.662  15.687  0.6306  0.2264 -0.4213
14138TIP3    H163829   2.427   2.651  15.593  0.3102 -0.3361 -0.3234
14138TIP3    H263830   2.381   2.734  15.711  1.0079  0.6300 -0.7149
14139TIP3   OH263831   3.032   5.069  12.995  0.7527 -0.1639  0.5553
14139TIP3    H163832   2.988   5.040  12.916  1.0341 -0.5206  0.5297
14139TIP3    H263833   2.961   5.093  13.055  0.5228  1.8411 -0.4255
14140TIP3   OH263834   3.864   0.765  15.375 -0.4154 -0.4660 -0.2763
14140TIP3    H163835   3.882   0.743  15.284 -0.9999 -0.9225 -0.2939
14140TIP3    H263836   3.801   0.698  15.403 -1.5154  0.6305 -0.0326
14141TIP3   OH263837   6.483   4.520   0.975  0.3394 -0.3057 -0.7135
14141TIP3    H163838   6.523   4.457   0.915  0.9684 -0.0871 -0.5271
14141TIP3    H263839   6.462   4.596   0.920 -2.3222 -1.4135 -1.3898
14142TIP3   OH263840   5.838   3.205  11.730  0.2052  0.3403 -0.0758
14142TIP3    H163841   5.765   3.178  11.674  0.3050 -2.4335  0.9710
14142TIP3    H263842   5.816   3.171  11.816  0.9970  2.7782  1.1679
14143TIP3   OH263843   0.503   6.530  14.629  0.2061 -0.3866 -0.1767
14143TIP3    H163844   0.556   6.496  14.558  0.6926  1.7842 -0.9261
14143TIP3    H263845   0.564   6.583  14.682 -0.5873 -0.2679  0.6529
14144TIP3   OH263846   3.216   0.896  15.816 -0.1694 -0.5225 -0.3412
14144TIP3    H163847   3.181   0.939  15.738 -2.5852 -0.8111  0.4997
14144TIP3    H263848   3.302   0.864  15.790 -0.6507 -0.0485 -2.6747
14145TIP3   OH263849   3.996   0.360   5.992  0.2753  0.3054  0.9608
14145TIP3    H163850   4.004   0.418   5.916  1.8694 -0.6919  0.3210
14145TIP3    H263851   3.948   0.412   6.056 -1.3798  1.0919 -0.7907
14146TIP3   OH263852   6.223   5.182   2.931  0.7427  0.0126  0.2416
14146TIP3    H163853   6.299   5.239   2.917  2.3708 -2.1758 -0.4081
14146TIP3    H263854   6.211   5.181   3.026  2.0277 -0.1648  0.4206
14147TIP3   OH263855   5.092   6.337  14.124  0.0444  0.3284  0.1093
14147TIP3    H163856   5.073   6.426  14.095  1.0116  0.7755  0.7944
14147TIP3    H263857   5.011   6.288  14.108  0.2204  0.7468 -2.4420
14148TIP3   OH263858   0.647   5.865  13.171 -0.3692  0.8085  0.1540
14148TIP3    H163859   0.617   5.826  13.253 -0.9008  0.2315 -0.3022
14148TIP3    H263860   0.702   5.938  13.198 -1.4350  1.3130  1.0236
14149TIP3   OH263861   3.277   1.186   2.108 -0.9108  0.7713 -0.1109
14149TIP3    H163862   3.236   1.269   2.132 -0.8247  0.1696  2.3446
14149TIP3    H263863   3.227   1.119   2.155 -0.2799 -0.4736 -1.1367
14150TIP3   OH263864   3.392   6.525   4.532 -0.6960 -0.1856 -0.3926
14150TIP3    H163865   3.379   6.620   4.532 -0.8097 -0.1443 -3.0091
14150TIP3    H263866   3.303   6.488   4.535 -0.6846 -0.1971 -0.1911
14151TIP3   OH263867   2.179   6.500   5.732  0.2302  0.2041  0.2497
14151TIP3    H163868   2.138   6.478   5.647 -0.2893 -1.3950  0.8693
14151TIP3    H263869   2.267   6.530   5.709  0.6019 -1.5265 -0.8155
14152TIP3   OH263870   2.223   0.227  12.943 -0.2043  0.4379 -0.5149
14152TIP3    H163871   2.183   0.314  12.944 -1.4472 -0.1150  0.9558
14152TIP3    H263872   2.157   0.172  12.901 -0.3091 -0.1708  0.4248
14153TIP3   OH263873   4.653   3.293   2.050  0.6106 -0.6837 -0.0972
14153TIP3    H163874   4.688   3.378   2.022 -0.7686  0.7324  2.1346
14153TIP3    H263875   4.577   3.279   1.994 -0.9248  1.1092  1.3966
14154TIP3   OH263876   1.102   4.637  12.740 -0.0665 -0.7711  0.6686
14154TIP3    H163877   1.154   4.654  12.819 -0.0005  2.5045  0.0842
14154TIP3    H263878   1.164   4.602  12.677  0.5186 -0.7802  1.2381
14155TIP3   OH263879   5.642   2.980  15.555 -0.4027 -0.1858 -0.2357
14155TIP3    H163880   5.603   3.065  15.575 -0.2460  0.0353 -0.8698
14155TIP3    H263881   5.713   2.970  15.619  1.2037  1.2775 -1.6921
14156TIP3   OH263882   5.678   2.756  17.384 -0.2800 -0.1487  0.9202
14156TIP3    H163883   5.689   2.698  17.308 -1.8704 -0.3819  0.8178
14156TIP3    H263884   5.767   2.781  17.409  0.5594 -3.0192  1.2573
14157TIP3   OH263885   3.515   2.686   6.371 -0.4737 -0.3633 -0.2421
14157TIP3    H163886   3.543   2.596   6.388 -0.2635 -0.5044 -1.2814
14157TIP3    H263887   3.586   2.725   6.321 -1.5663 -0.3602 -1.8842
14158TIP3   OH263888   1.773   4.422  16.390  0.5798 -0.0548 -0.1417
14158TIP3    H163889   1.824   4.376  16.456 -0.4035 -1.4596 -0.3067
14158TIP3    H263890   1.691   4.372  16.384  0.5639  0.1351 -2.2752
14159TIP3   OH263891   3.957   1.182  13.505  0.0719 -0.1536 -0.9326
14159TIP3    H163892   4.000   1.135  13.576 -0.3807  0.4522 -0.2458
14159TIP3    H263893   4.019   1.252  13.482 -0.3759  0.5016 -0.1837
14160TIP3   OH263894   1.485   0.552   3.206 -0.4350 -0.7814 -0.0896
14160TIP3    H163895   1.514   0.463   3.228 -0.2493 -0.7290 -0.1189
14160TIP3    H263896   1.562   0.607   3.223 -0.1560 -0.7886 -1.2024
14161TIP3   OH263897   4.682   4.229  15.165  0.3007 -0.4711  0.3826
14161TIP3    H163898   4.739   4.168  15.212  1.4089 -0.6909 -1.1589
14161TIP3    H263899   4.597   4.185  15.161  0.9237 -1.6645 -0.1545
14162TIP3   OH263900   0.052   4.517  12.385  0.0346 -0.4112  0.5784
14162TIP3    H163901   0.002   4.570  12.448  0.5231  1.6286 -0.6436
14162TIP3    H263902   0.136   4.502  12.428  0.1488  0.4456  0.6701
14163TIP3   OH263903   1.879   4.442  12.683 -0.0561  0.0870  0.1343
14163TIP3    H163904   1.943   4.503  12.646  1.1000 -0.5588  1.0107
14163TIP3    H263905   1.926   4.358  12.687 -1.4269 -0.7475 -0.5222
14164TIP3   OH263906   1.278   1.350   2.898  0.2085 -0.2419  0.0575
14164TIP3    H163907   1.262   1.331   2.805 -0.1171  0.3494 -0.0178
14164TIP3    H263908   1.219   1.291   2.945  1.1468 -1.3089 -0.0631
14165TIP3   OH263909   3.634   0.267  12.652  0.0807  0.0483  0.2545
14165TIP3    H163910   3.607   0.345  12.605  0.6819 -0.6055 -1.2338
14165TIP3    H263911   3.605   0.282  12.742 -1.4606  1.1577 -0.3832
14166TIP3   OH263912   0.214   0.344   2.988 -0.8009 -0.0943  0.5659
14166TIP3    H163913   0.227   0.431   3.024  1.6902 -0.0666 -0.2231
14166TIP3    H263914   0.144   0.355   2.923  0.6661  1.7656 -0.8193
14167TIP3   OH263915   0.532   2.816  15.090  0.4007  0.2738 -0.1758
14167TIP3    H163916   0.554   2.850  15.177 -0.8223  0.4566  0.0852
14167TIP3    H263917   0.528   2.894  15.035  0.2622  0.2550 -0.1911
14168TIP3   OH263918   5.840   2.523   4.682 -0.1206  0.7296  0.0059
14168TIP3    H163919   5.811   2.438   4.650 -0.5445  0.1673  1.7586
14168TIP3    H263920   5.816   2.523   4.775 -0.3939  2.8739 -0.0054
14169TIP3   OH263921   2.594   4.471  13.188 -0.5644 -0.2659 -0.0838
14169TIP3    H163922   2.676   4.438  13.226  0.3086  0.1482 -1.5570
14169TIP3    H263923   2.567   4.542  13.246  0.2661 -0.2284  0.2656
14170TIP3   OH263924   4.589   3.696   6.083  0.4433 -0.3809 -0.4888
14170TIP3    H163925   4.533   3.733   6.152  1.2042  1.6769 -0.9055
14170TIP3    H263926   4.655   3.763   6.067 -0.1282 -0.4466 -3.7351
14171TIP3   OH263927   5.721   4.099  12.260 -0.0172  0.2046 -0.3316
14171TIP3    H163928   5.645   4.156  12.245 -0.0742  0.5975  1.2373
14171TIP3    H263929   5.776   4.149  12.321  0.2386 -1.1611  0.5950
14172TIP3   OH263930   1.461   0.026   5.065  0.2404  0.2153  0.1239
14172TIP3    H163931   1.455   0.082   5.142 -0.3437 -0.5447  0.6496
14172TIP3    H263932   1.426  -0.058   5.094  0.3405 -0.1854 -0.8775
14173TIP3   OH263933   5.217   1.328  14.623 -0.8493  0.0411  0.2860
14173TIP3    H163934   5.191   1.377  14.545  0.4952  1.9117  0.9405
14173TIP3    H263935   5.306   1.298  14.604 -1.0732 -0.8006  0.5259
14174TIP3   OH263936   2.197   3.990  14.357  0.1427 -0.0959  0.3387
14174TIP3    H163937   2.154   3.988  14.442  1.6618  0.7410  1.1746
14174TIP3    H263938   2.139   3.940  14.300 -0.4771 -1.4623  2.0627
14175TIP3   OH263939   1.778   2.677   1.698 -0.2343  0.1333  0.1725
14175TIP3    H163940   1.688   2.683   1.664  0.6863 -1.9922 -3.1689
14175TIP3    H263941   1.786   2.586   1.726  1.2038 -0.0411 -0.7339
14176TIP3   OH263942   3.751   0.746   0.167 -0.4043 -0.6589  0.1214
14176TIP3    H163943   3.665   0.734   0.128 -0.2329  1.5119 -1.0936
14176TIP3    H263944   3.739   0.818   0.229  0.3410 -0.9331  0.5966
14177TIP3   OH263945   6.403   2.588  14.905 -0.2664 -0.4538 -0.1387
14177TIP3    H163946   6.414   2.549  14.992  0.0408 -0.5948 -0.2383
14177TIP3    H263947   6.439   2.523  14.845 -0.1962 -0.2232 -0.3472
14178TIP3   OH263948   3.094   0.682   3.874  0.3915 -0.1930 -0.8974
14178TIP3    H163949   3.153   0.702   3.946 -0.3758  1.5757 -0.7187
14178TIP3    H263950   3.139   0.716   3.796 -2.0710  5.4621 -0.3217
14179TIP3   OH263951   3.834   0.694   1.438 -0.1820 -0.7189 -1.1667
14179TIP3    H163952   3.743   0.668   1.454  0.0957 -0.2353  1.7449
14179TIP3    H263953   3.854   0.754   1.509  1.9764  0.4288 -2.6357
14180TIP3   OH263954   3.019   6.190   4.976  0.3574  0.3898 -0.1848
14180TIP3    H163955   3.088   6.234   4.926  1.0319 -0.0885  0.3012
14180TIP3    H263956   3.042   6.206   5.067 -0.8500  1.2424  0.0013
14181TIP3   OH263957   0.983   5.787  14.329 -0.0743  0.0208 -0.2843
14181TIP3    H163958   0.991   5.802  14.235 -0.5290  1.2051 -0.1489
14181TIP3    H263959   0.893   5.813  14.350 -0.5843 -1.9899  0.1759
14182TIP3   OH263960   1.444   3.753   0.339 -0.2281 -0.2003 -0.4154
14182TIP3    H163961   1.469   3.844   0.357 -0.7341 -0.1885  0.2999
14182TIP3    H263962   1.520   3.702   0.365  0.0947  0.0212 -0.9076
14183TIP3   OH263963   3.465   3.413   1.385 -0.2858 -0.9410  0.3782
14183TIP3    H163964   3.432   3.325   1.404  0.4968 -1.4249 -0.4317
14183TIP3    H263965   3.560   3.403   1.382 -0.0927  0.2245  1.6623
14184TIP3   OH263966   3.726   4.095  11.567  0.3910  0.3193  0.2531
14184TIP3    H163967   3.639   4.133  11.567  0.4327  0.4361  1.1529
14184TIP3    H263968   3.782   4.163  11.530  0.0633  0.1425 -0.5781
14185TIP3   OH263969   4.818   4.612   0.467  0.2526  0.2551  0.3700
14185TIP3    H163970   4.751   4.680   0.473  0.3613  0.3178  0.9553
14185TIP3    H263971   4.773   4.532   0.496 -0.4058 -0.3308 -2.0364
14186TIP3   OH263972   5.094   2.751  15.360 -0.0760 -0.5582 -0.3216
14186TIP3    H163973   5.172   2.701  15.384 -0.3466 -1.5526 -1.4420
14186TIP3    H263974   5.102   2.765  15.266 -1.5702 -1.2854 -0.5821
14187TIP3   OH263975   6.048   6.314   2.959 -0.2577  0.3069 -0.1604
14187TIP3    H163976   6.130   6.352   2.928  1.3734 -3.4902 -1.1293
14187TIP3    H263977   6.067   6.286   3.049 -1.1473  1.0624  0.2733
14188TIP3   OH263978   5.205   0.904  17.023  0.8195  0.2613  0.5014
14188TIP3    H163979   5.250   0.837  17.074  0.7590  1.3775  2.0707
14188TIP3    H263980   5.156   0.955  17.087  0.7829  1.7588 -0.6617
14189TIP3   OH263981   0.424   3.644  13.664  0.6202  0.1207  0.3582
14189TIP3    H163982   0.410   3.681  13.577  1.9500  2.2943  1.0011
14189TIP3    H263983   0.341   3.658  13.710  0.5290  0.6902  0.0200
14190TIP3   OH263984   1.844   0.211  16.429 -0.1469  0.2381 -0.3788
14190TIP3    H163985   1.809   0.148  16.366 -0.3770 -0.4444  0.4201
14190TIP3    H263986   1.814   0.179  16.514  1.6816  0.1091  0.2590
14191TIP3   OH263987   4.582   1.831   4.828  0.3773 -0.1039 -0.3186
14191TIP3    H163988   4.575   1.857   4.920 -0.5286 -0.9539 -0.1313
14191TIP3    H263989   4.549   1.907   4.780  1.6781  0.6880 -0.0020
14192TIP3   OH263990   3.576   4.807  13.946 -0.3746  0.6869  0.8392
14192TIP3    H163991   3.613   4.895  13.941 -0.4713  0.7489  1.1695
14192TIP3    H263992   3.588   4.770  13.858  0.2222  0.8053  0.8622
14193TIP3   OH263993   1.912   3.152  16.231  0.1739  0.2454 -0.4153
14193TIP3    H163994   1.976   3.151  16.302 -0.5097  1.1145  0.2393
14193TIP3    H263995   1.963   3.169  16.152  0.6695  1.6732  0.1890
14194TIP3   OH263996   1.690   4.252  14.454 -0.3601 -0.1680  0.0569
14194TIP3    H163997   1.603   4.261  14.492  0.7242 -1.5248  3.2018
14194TIP3    H263998   1.737   4.330  14.484 -0.1434 -0.0510 -0.5774
14195TIP3   OH263999   6.671   4.538   0.377  0.1676 -0.2800  0.0580
14195TIP3    H164000   6.734   4.610   0.379 -0.0373  0.0608 -2.4536
14195TIP3    H264001   6.724   4.460   0.394  0.9501  0.1798 -0.2055
14196TIP3   OH264002   5.580   6.202   5.793  0.6930  0.1644  0.0599
14196TIP3    H164003   5.645   6.174   5.858 -1.3578 -0.8832  1.7965
14196TIP3    H264004   5.527   6.123   5.777  0.5876  0.6347 -2.2749
14197TIP3   OH264005   2.350   5.525  13.027  0.0893  0.3963 -0.1824
14197TIP3    H164006   2.437   5.487  13.026  0.2296  0.6784  0.5450
14197TIP3    H264007   2.348   5.585  12.952 -0.3551 -1.4851 -1.7432
14198TIP3   OH264008   4.509   0.460   1.254 -0.3151 -0.8680  0.2233
14198TIP3    H164009   4.468   0.458   1.168 -0.7237 -0.8147  0.4137
14198TIP3    H264010   4.469   0.535   1.298  1.8738  0.8193 -0.4968
14199TIP3   OH264011   3.371   5.636  13.737  0.3035 -0.1567 -0.1328
14199TIP3    H164012   3.441   5.701  13.732 -0.1681  0.3933  0.1771
14199TIP3    H264013   3.408   5.564  13.787  0.9774 -0.3153 -0.8485
14200TIP3   OH264014   0.931   5.176  17.084 -0.8639  0.5653 -0.0075
14200TIP3    H164015   0.918   5.122  17.162 -0.5116 -0.8681 -0.9014
14200TIP3    H264016   0.953   5.262  17.118 -0.5951 -0.0572  1.4832
14201TIP3   OH264017   5.788   5.663  10.477  0.4167  0.5281  0.3387
14201TIP3    H164018   5.697   5.673  10.505  0.0349 -0.7771 -0.3572
14201TIP3    H264019   5.789   5.695  10.387  0.1645 -1.3102 -0.3578
14202TIP3   OH264020   0.397   0.060  16.240 -0.8117 -0.3969 -0.8891
14202TIP3    H164021   0.335   0.104  16.298 -0.8218  0.4857 -1.5347
14202TIP3    H264022   0.398  -0.031  16.269 -1.2638 -0.0969  0.0967
14203TIP3   OH264023   5.027   3.988  10.892 -0.0985 -0.5017 -0.8163
14203TIP3    H164024   5.087   4.044  10.843 -1.4730  1.9956  0.1784
14203TIP3    H264025   5.071   3.971  10.975  0.5151 -1.3402 -1.2965
14204TIP3   OH264026   5.262   6.313   2.360  0.3669  0.6133 -0.4349
14204TIP3    H164027   5.350   6.331   2.393  0.8669 -1.9411 -0.1390
14204TIP3    H264028   5.206   6.319   2.438  0.7675 -0.4593 -0.0319
14205TIP3   OH264029   5.273   2.139   3.539 -0.5442  0.0798  0.2671
14205TIP3    H164030   5.310   2.067   3.591  0.7527 -0.1840 -0.9428
14205TIP3    H264031   5.220   2.189   3.601  1.0338 -0.1308  1.8916
14206TIP3   OH264032   4.464   5.586  11.697 -0.0197  0.3367 -0.1053
14206TIP3    H164033   4.485   5.643  11.770 -1.0945  1.6602 -0.7830
14206TIP3    H264034   4.534   5.602  11.633  2.1471 -2.4113  1.3832
14207TIP3   OH264035   5.307   5.191   3.387  0.3096  0.2538 -0.3449
14207TIP3    H164036   5.402   5.188   3.390  0.2632 -0.0659  1.4631
14207TIP3    H264037   5.278   5.145   3.465 -1.3927 -1.5845 -1.9264
14208TIP3   OH264038   2.538   3.079  17.008  0.2382  0.3503  0.1909
14208TIP3    H164039   2.509   3.001  17.056 -0.5578  0.7830  0.4347
14208TIP3    H264040   2.625   3.098  17.043 -0.0179  0.2069  0.9204
14209TIP3   OH264041   2.558   4.049  14.964  0.6004  0.0967  0.3185
14209TIP3    H164042   2.481   4.097  14.933  1.3228  0.9684 -0.1538
14209TIP3    H264043   2.631   4.083  14.912  1.4069 -0.3311  1.1361
14210TIP3   OH264044   2.831   2.078  12.747 -0.0270 -0.1916 -0.1861
14210TIP3    H164045   2.882   2.125  12.681 -0.4179 -0.1435 -0.4553
14210TIP3    H264046   2.767   2.027  12.697  0.5654 -1.2404  0.0867
14211TIP3   OH264047   4.253   1.753   3.396 -0.1372 -0.0165 -0.1190
14211TIP3    H164048   4.251   1.685   3.329  0.3908 -0.3878  0.2249
14211TIP3    H264049   4.269   1.705   3.478  0.0014  0.4963  0.1614
14212TIP3   OH264050   1.056   1.448   3.927 -0.7531  0.2272 -0.3327
14212TIP3    H164051   1.101   1.524   3.889 -0.0156  0.7748  1.5217
14212TIP3    H264052   0.963   1.466   3.914 -0.5418  0.0765 -2.3826
14213TIP3   OH264053   4.922   0.281  15.148  0.8695  0.4924 -0.6691
14213TIP3    H164054   4.970   0.221  15.205 -0.3734  0.0301 -0.0671
14213TIP3    H264055   4.924   0.240  15.062  2.0316  0.7748 -0.7965
14214TIP3   OH264056   5.702   1.702  12.417 -0.0623  0.1382 -0.4974
14214TIP3    H164057   5.659   1.622  12.387 -0.8698  0.8517 -1.3008
14214TIP3    H264058   5.653   1.772  12.375  0.6296  1.0592  0.2091
14215TIP3   OH264059   5.406   3.369  12.687  0.2279  0.7481 -0.2995
14215TIP3    H164060   5.317   3.397  12.706  0.1538 -0.2706  0.9729
14215TIP3    H264061   5.439   3.333  12.769  0.5759 -2.1054 -1.5586
14216TIP3   OH264062   0.074   5.867   5.777  0.2127 -0.7345  0.5149
14216TIP3    H164063   0.043   5.880   5.687 -1.5599  0.9407  1.3033
14216TIP3    H264064   0.114   5.779   5.776  0.3987 -0.6968 -1.9164
14217TIP3   OH264065   4.931   5.939  14.178 -0.0669 -0.5916  0.5511
14217TIP3    H164066   4.900   6.029  14.180  0.7261 -0.2821 -0.5800
14217TIP3    H264067   4.852   5.887  14.163 -0.2248  0.1111 -1.3507
14218TIP3   OH264068   5.744   0.642   4.687  0.0438  0.6859  0.1455
14218TIP3    H164069   5.705   0.608   4.768 -1.5803  1.0527 -0.4399
14218TIP3    H264070   5.671   0.642   4.624  1.3492  0.0113 -1.4521
14219TIP3   OH264071   0.925   4.052   3.019  0.1176  0.4542 -0.6565
14219TIP3    H164072   0.995   3.992   3.043  1.5343  1.9931 -0.7966
14219TIP3    H264073   0.929   4.121   3.084 -1.2746  0.5875 -0.6853
14220TIP3   OH264074   3.176   6.656  13.951 -0.0239 -0.4841  0.3610
14220TIP3    H164075   3.188   6.732  13.894  0.1893 -1.2376 -0.6248
14220TIP3    H264076   3.082   6.651  13.965 -0.0238  0.0705  0.5955
14221TIP3   OH264077   3.017   0.558   4.985  0.3629 -0.4515 -0.0736
14221TIP3    H164078   2.983   0.647   4.979 -0.0953 -0.6018  0.2498
14221TIP3    H264079   3.082   0.562   5.056 -0.3560 -0.5816  0.6111
14222TIP3   OH264080   0.257   1.065  11.191  0.1218 -0.7424 -0.3533
14222TIP3    H164081   0.202   0.987  11.187  0.5980 -1.1360  0.6009
14222TIP3    H264082   0.293   1.065  11.280  2.8158 -1.3026 -1.3577
14223TIP3   OH264083   4.487   2.843   6.731  0.0858 -0.4566  0.5678
14223TIP3    H164084   4.524   2.883   6.653 -0.9405 -0.8708 -0.1443
14223TIP3    H264085   4.545   2.769   6.751 -1.4528 -2.4777 -1.8223
14224TIP3   OH264086   3.875   3.564  15.132 -0.1160 -0.3943  0.3284
14224TIP3    H164087   3.921   3.539  15.052 -1.8008 -0.2455 -0.7425
14224TIP3    H264088   3.892   3.658  15.141 -0.7194 -0.1988 -0.4379
14225TIP3   OH264089   6.503   5.114   2.331 -0.0266 -0.1339 -0.2657
14225TIP3    H164090   6.575   5.127   2.392 -0.3045 -0.6340  0.1780
14225TIP3    H264091   6.492   5.199   2.288  0.6465  0.0148 -0.1439
14226TIP3   OH264092   3.462   3.615   3.248 -0.3191 -0.5399  0.0015
14226TIP3    H164093   3.515   3.561   3.306 -0.6447 -0.6262  0.2267
14226TIP3    H264094   3.377   3.622   3.293 -0.7382 -1.0155 -0.6903
14227TIP3   OH264095   5.131   0.430  17.020 -0.5253 -0.4246 -0.2278
14227TIP3    H164096   5.192   0.368  17.060 -0.1704 -0.0574 -0.1968
14227TIP3    H264097   5.071   0.454  17.090 -0.5862 -0.6331 -0.2081
14228TIP3   OH264098   6.596   2.034  11.927  0.2550  0.2272 -0.4763
14228TIP3    H164099   6.504   2.033  11.901  0.0605  1.1672  0.1362
14228TIP3    H264100   6.637   2.100  11.869  0.7356 -0.7796 -1.3218
14229TIP3   OH264101   2.528   0.825  16.543  0.6568  0.3333 -0.6714
14229TIP3    H164102   2.473   0.900  16.561  0.4885  0.2827 -0.9660
14229TIP3    H264103   2.473   0.749  16.564  0.9148  0.2932 -0.1220
14230TIP3   OH264104   1.329   5.059  11.400  0.6755 -0.5296 -0.0190
14230TIP3    H164105   1.243   5.024  11.426  0.6715 -0.1695  0.4804
14230TIP3    H264106   1.308   5.139  11.352  0.6249 -1.8380 -2.3106
14231TIP3   OH264107   4.810   4.991  12.126 -0.0665 -0.0129  0.4548
14231TIP3    H164108   4.769   5.019  12.208 -0.1271 -0.7316  0.6759
14231TIP3    H264109   4.778   5.053  12.060 -1.5107 -0.5523  0.6237
14232TIP3   OH264110   5.181   4.637  15.047  0.4705  0.4219  0.1282
14232TIP3    H164111   5.213   4.707  14.989  0.4948  0.5627  0.3117
14232TIP3    H264112   5.246   4.567  15.038 -0.4885 -0.3342 -1.4801
14233TIP3   OH264113   2.753   5.305   5.701 -0.1922  0.1386 -0.6265
14233TIP3    H164114   2.754   5.222   5.750 -1.0932  0.8793  0.7263
14233TIP3    H264115   2.668   5.305   5.656 -0.6986  0.8032  0.2925
14234TIP3   OH264116   5.657   2.155   5.124 -0.3052 -0.2513  0.3647
14234TIP3    H164117   5.705   2.234   5.149 -1.2114  0.4284 -0.0215
14234TIP3    H264118   5.651   2.160   5.029 -1.7683  0.0445  0.4570
14235TIP3   OH264119   1.003   5.041   5.555  0.1965  0.1699 -0.4506
14235TIP3    H164120   0.986   5.126   5.595 -0.3884 -0.1038 -0.1160
14235TIP3    H264121   0.929   5.027   5.496 -0.3471 -0.6428  0.3908
14236TIP3   OH264122   4.890   3.300   3.227 -0.9862 -0.2779 -0.0628
14236TIP3    H164123   4.918   3.256   3.307 -0.5593  2.6076  1.5411
14236TIP3    H264124   4.933   3.253   3.156  3.3281  0.3540  1.8327
14237TIP3   OH264125   2.401   0.552  12.063 -0.2359  0.6990 -0.1166
14237TIP3    H164126   2.377   0.644  12.077 -0.1666  0.7081 -0.0615
14237TIP3    H264127   2.327   0.503  12.100 -1.3789  0.7579 -2.1425
14238TIP3   OH264128   0.171   2.075   1.434 -0.5027  0.6035 -0.7014
14238TIP3    H164129   0.234   2.140   1.465 -2.5014  2.4406 -0.2745
14238TIP3    H264130   0.188   2.068   1.340  0.9018  0.3533 -0.4547
14239TIP3   OH264131   4.615   3.238  15.707 -0.0022  0.1441 -0.0893
14239TIP3    H164132   4.605   3.252  15.802  2.9015 -0.5701  0.4050
14239TIP3    H264133   4.596   3.145  15.695  0.1404  0.1217 -0.1353
14240TIP3   OH264134   0.246   4.619  12.198 -0.1098  0.2825 -0.0780
14240TIP3    H164135   0.180   4.580  12.255  0.2388  2.9984  2.4538
14240TIP3    H264136   0.314   4.551  12.191 -0.8763 -0.7242  1.4985
14241TIP3   OH264137   4.512   5.977  15.691  0.0843  0.3979 -0.1187
14241TIP3    H164138   4.537   5.928  15.612  1.9970 -0.2322  0.8265
14241TIP3    H264139   4.481   5.910  15.752  2.8093  0.2292  1.2191
14242TIP3   OH264140   3.443   1.276   2.574  0.3379  0.3511 -0.8053
14242TIP3    H164141   3.411   1.322   2.652 -0.2597 -0.2794 -0.6719
14242TIP3    H264142   3.420   1.184   2.589  0.4022  0.1921 -1.6359
14243TIP3   OH264143   1.353   2.688  11.543  0.2495  0.0307 -0.1680
14243TIP3    H164144   1.421   2.645  11.595 -0.7516 -2.7766 -0.9935
14243TIP3    H264145   1.289   2.619  11.527 -1.0906  1.6695 -2.3236
14244TIP3   OH264146   4.462   3.809   5.102  0.5598 -0.1615 -0.2730
14244TIP3    H164147   4.440   3.777   5.189  0.6755  0.2108 -0.1071
14244TIP3    H264148   4.428   3.898   5.099 -1.3240 -0.8491 -1.3417
14245TIP3   OH264149   3.219   1.545   4.332  0.3531 -0.5539  0.5360
14245TIP3    H164150   3.170   1.468   4.302  2.0937 -0.6288 -2.6146
14245TIP3    H264151   3.154   1.615   4.336 -0.5519 -1.2851 -0.6962
14246TIP3   OH264152   2.027   4.947   4.562 -0.3427 -0.0325  0.4441
14246TIP3    H164153   2.080   5.002   4.620 -0.9865  0.8353  0.2342
14246TIP3    H264154   1.941   4.989   4.562  0.0107  0.8726 -2.2906
14247TIP3   OH264155   1.139   4.514  15.589 -0.3966 -0.0045 -0.0539
14247TIP3    H164156   1.221   4.510  15.640 -0.1304  0.4147 -0.4404
14247TIP3    H264157   1.168   4.517  15.498 -0.8186  0.8863 -0.1671
14248TIP3   OH264158   0.558   3.482   5.114 -0.3941 -0.7334  0.1658
14248TIP3    H164159   0.557   3.555   5.052  1.3481 -0.3651  0.5228
14248TIP3    H264160   0.585   3.521   5.197 -1.5830 -1.4253  0.9053
14249TIP3   OH264161   6.551   1.702   5.441 -0.8772  0.0357  0.1588
14249TIP3    H164162   6.497   1.663   5.373 -1.9933 -0.7818  1.4736
14249TIP3    H264163   6.620   1.637   5.457  1.2660  1.5263 -2.2704
14250TIP3   OH264164   0.402   6.087  12.565  0.2047 -0.0854 -0.0254
14250TIP3    H164165   0.445   6.172  12.563  0.7019 -0.3527 -0.9284
14250TIP3    H264166   0.438   6.039  12.491  0.5203 -1.3766  0.9159
14251TIP3   OH264167   3.835   6.113  16.364  0.0248  0.1726 -0.2301
14251TIP3    H164168   3.875   6.200  16.358  0.2327  0.0104 -1.4988
14251TIP3    H264169   3.902   6.058  16.405  1.5385 -0.2912 -3.0592
14252TIP3   OH264170   1.500   1.493   2.784 -0.0083  0.1011  0.0267
14252TIP3    H164171   1.432   1.463   2.844  0.3691 -1.5904 -0.3323
14252TIP3    H264172   1.518   1.418   2.728  2.8382  0.1191  0.7332
14253TIP3   OH264173   2.754   3.062   5.462  0.1661 -0.3348  0.4720
14253TIP3    H164174   2.795   3.046   5.547  1.3759 -0.5900 -0.1306
14253TIP3    H264175   2.794   3.143   5.432 -1.0129  0.3031  0.5795
14254TIP3   OH264176   0.097   5.728  16.259 -0.0501  0.4245 -0.1481
14254TIP3    H164177   0.147   5.783  16.199 -2.6250  2.3269 -0.7338
14254TIP3    H264178   0.061   5.790  16.323 -1.2601 -0.8692  0.4745
14255TIP3   OH264179   0.158   6.030  13.658 -0.5040  0.5234  0.2182
14255TIP3    H164180   0.112   6.000  13.580 -0.9854  1.3587  0.1814
14255TIP3    H264181   0.111   5.989  13.731 -0.8135  0.7384  0.1393
14256TIP3   OH264182   6.579   4.257   5.420 -0.2905  0.1566 -0.1307
14256TIP3    H164183   6.575   4.250   5.325  0.5784  0.4022 -0.1948
14256TIP3    H264184   6.629   4.181   5.448 -0.5874  0.0562  0.1364
14257TIP3   OH264185   2.873   6.049  10.439 -0.7308 -0.0920  0.5363
14257TIP3    H164186   2.886   6.139  10.409 -1.9720 -0.6347 -1.8793
14257TIP3    H264187   2.781   6.031  10.420 -0.6313 -1.7171  1.4497
14258TIP3   OH264188   4.596   4.079   4.523  0.3339 -0.7601  0.2379
14258TIP3    H164189   4.500   4.076   4.521  0.3222 -0.5100  0.3798
14258TIP3    H264190   4.617   4.172   4.512  0.5430 -0.7108  1.0417
14259TIP3   OH264191   1.943   6.651   5.838  0.2447  0.3052 -0.0978
14259TIP3    H164192   1.895   6.734   5.838 -1.4279 -0.6089  0.7838
14259TIP3    H264193   2.017   6.667   5.780 -2.1481  1.2413 -3.2341
14260TIP3   OH264194   3.699   6.690  12.265 -0.3421 -0.1770  0.3289
14260TIP3    H164195   3.710   6.772  12.218  0.7213 -0.1859  0.5394
14260TIP3    H264196   3.697   6.715  12.358  0.1048 -0.3868  0.3996
14261TIP3   OH264197   6.046   6.728   5.575 -0.4913  0.1465  0.2354
14261TIP3    H164198   6.116   6.756   5.517 -1.8444  0.3097 -1.4153
14261TIP3    H264199   6.051   6.787   5.650  0.8265  0.4479 -0.0672
14262TIP3   OH264200   1.700   2.912   0.968  0.2124 -0.0267  0.5934
14262TIP3    H164201   1.767   2.978   0.983  1.6406 -1.8354  2.8309
14262TIP3    H264202   1.713   2.884   0.878  3.7005 -1.4511  1.3717
14263TIP3   OH264203   0.132   5.813  14.707 -0.4402  0.1876  0.2550
14263TIP3    H164204   0.044   5.831  14.676  0.0970  0.5663 -1.1236
14263TIP3    H264205   0.170   5.899  14.727  0.1543  0.1585 -0.7140
14264TIP3   OH264206   1.626   3.406  13.503 -0.4319 -0.1568 -0.4650
14264TIP3    H164207   1.648   3.443  13.417  0.4428 -0.1772 -0.2638
14264TIP3    H264208   1.691   3.336  13.516  1.8394  2.1478  1.7598
14265TIP3   OH264209   1.324   5.406  12.614 -0.0842 -0.0368  0.4505
14265TIP3    H164210   1.270   5.452  12.550  0.1287 -0.7980 -0.3043
14265TIP3    H264211   1.300   5.314  12.603  0.5605 -0.2630  0.8871
14266TIP3   OH264212   3.490   1.180   1.672 -0.3503  0.1140 -0.2678
14266TIP3    H164213   3.506   1.257   1.726 -0.0697  0.2511 -0.5431
14266TIP3    H264214   3.433   1.212   1.602 -1.7246 -0.3278  0.6028
14267TIP3   OH264215   3.918   1.857  12.082  0.5093 -0.0517 -0.7602
14267TIP3    H164216   3.915   1.789  12.149  1.0003  1.2557  0.6610
14267TIP3    H264217   3.839   1.909  12.096 -0.3551 -0.8459 -2.4498
14268TIP3   OH264218   0.167   4.990   1.258  0.0156  0.0521 -0.4575
14268TIP3    H164219   0.081   5.009   1.221  0.3032  2.6922  0.0520
14268TIP3    H264220   0.148   4.958   1.346 -0.4712  0.9558 -0.2163
14269TIP3   OH264221   4.697   6.656  14.165 -0.4604 -0.0869 -0.5217
14269TIP3    H164222   4.676   6.646  14.258  0.3270  0.3014 -0.2918
14269TIP3    H264223   4.621   6.700  14.127  0.3425  2.3886  0.5187
14270TIP3   OH264224   2.350   3.930   1.236 -0.2043 -0.1671  0.4594
14270TIP3    H164225   2.274   3.978   1.270  0.8926  2.0117  0.0397
14270TIP3    H264226   2.390   3.890   1.314  1.5484  3.6744  1.8034
14271TIP3   OH264227   3.426   6.707   6.112 -0.1937  0.2393  0.8628
14271TIP3    H164228   3.363   6.691   6.042 -0.2058 -0.5411  1.0396
14271TIP3    H264229   3.373   6.712   6.192  0.0652 -2.3002  1.2921
14272TIP3   OH264230   0.175   6.134   0.785  0.7081 -0.1811  1.1163
14272TIP3    H164231   0.182   6.201   0.853  0.5583 -0.2232  1.1732
14272TIP3    H264232   0.257   6.085   0.792  0.6797 -0.2074  1.2909
14273TIP3   OH264233   4.574   2.512   0.634  0.7611 -0.2129 -0.8629
14273TIP3    H164234   4.524   2.482   0.558  0.5371 -1.5989 -0.2156
14273TIP3    H264235   4.514   2.569   0.682  0.9460  0.7677 -1.7735
14274TIP3   OH264236   2.963   1.258  14.875 -0.5186 -0.5346  0.0644
14274TIP3    H164237   2.919   1.273  14.791 -0.7293 -2.3748 -0.1902
14274TIP3    H264238   2.895   1.275  14.940 -0.5534  0.2058 -0.1510
14275TIP3   OH264239   3.636   4.787   0.029 -0.6888  0.0933 -0.2656
14275TIP3    H164240   3.570   4.758  -0.034 -0.9992 -0.2532  0.2055
14275TIP3    H264241   3.710   4.816  -0.024 -0.8470 -0.4364 -0.7777
14276TIP3   OH264242   0.838   2.489   1.688 -0.5517 -0.0445  0.2453
14276TIP3    H164243   0.898   2.452   1.624 -1.8070 -0.0006 -1.0201
14276TIP3    H264244   0.835   2.583   1.667 -1.5265 -0.1493 -0.1190
14277TIP3   OH264245   1.602   0.558  15.364  0.3854 -0.6047 -0.9862
14277TIP3    H164246   1.540   0.628  15.385  2.5875  2.2368 -3.1334
14277TIP3    H264247   1.631   0.526  15.449 -0.8538  0.9807  0.1084
14278TIP3   OH264248   5.049   5.520   0.283  0.6472  0.3562  0.0610
14278TIP3    H164249   5.002   5.570   0.217 -0.3433  1.0472  1.2251
14278TIP3    H264250   5.021   5.429   0.269  0.0818  0.5628 -0.1765
14279TIP3   OH264251   5.975   0.693   0.206 -0.1629 -0.6067 -0.1366
14279TIP3    H164252   5.950   0.653   0.289  1.9692  0.6233  1.1984
14279TIP3    H264253   5.912   0.659   0.143 -2.4883 -0.8075  2.1441
14280TIP3   OH264254   3.022   3.746  15.398  0.4166  0.5963  0.5827
14280TIP3    H164255   3.027   3.755  15.302 -1.0501  2.5361  0.6355
14280TIP3    H264256   3.108   3.775  15.429  0.5537  0.9584 -0.1130
14281TIP3   OH264257   2.486   0.837  12.072 -0.2371 -0.0201 -0.7289
14281TIP3    H164258   2.536   0.829  12.154 -0.9252  2.0536 -0.0175
14281TIP3    H264259   2.396   0.852  12.101 -0.7951 -0.9067 -1.9271
14282TIP3   OH264260   5.438   3.111  15.812 -0.5362  0.4699 -0.2091
14282TIP3    H164261   5.487   3.155  15.742  1.6404 -1.0925  0.2059
14282TIP3    H264262   5.463   3.158  15.892 -1.7939  1.2749 -0.2663
14283TIP3   OH264263   3.864   5.485  15.313 -0.6009  0.6482 -0.3914
14283TIP3    H164264   3.804   5.548  15.353 -0.9353 -0.6563  1.2694
14283TIP3    H264265   3.808   5.414  15.281 -0.0007 -1.1587  2.2256
14284TIP3   OH264266   2.458   4.577   4.819  0.1270 -0.2092  0.0002
14284TIP3    H164267   2.485   4.509   4.881  3.6954  0.4927 -0.5443
14284TIP3    H264268   2.454   4.532   4.734 -1.2421 -0.4500  0.1755
14285TIP3   OH264269   0.737   3.661  10.785  0.0365  0.9637  0.2286
14285TIP3    H164270   0.732   3.751  10.755 -1.4032  0.3206 -1.6961
14285TIP3    H264271   0.813   3.624  10.739 -0.6567  0.6691 -0.7375
14286TIP3   OH264272   1.191   4.350  12.609 -0.6911  0.4449  0.3641
14286TIP3    H164273   1.262   4.286  12.606 -2.2682 -1.4056  0.6900
14286TIP3    H264274   1.161   4.350  12.700 -1.9237  0.2107 -0.0142
14287TIP3   OH264275   3.798   2.660  16.883 -0.2766 -0.3644 -0.3264
14287TIP3    H164276   3.712   2.637  16.849  0.5393 -1.8996 -1.4731
14287TIP3    H264277   3.795   2.637  16.976 -0.7252 -1.5421 -0.6235
14288TIP3   OH264278   0.045   1.977   4.879 -0.4492 -0.3588  0.1567
14288TIP3    H164279   0.034   1.938   4.966  0.9699  0.4659  0.7419
14288TIP3    H264280   0.140   1.972   4.863 -0.5577  0.5065 -0.8529
14289TIP3   OH264281   6.586   1.296   5.754  0.5683  0.1993 -0.4053
14289TIP3    H164282   6.527   1.236   5.708  2.4200 -1.0569 -1.2885
14289TIP3    H264283   6.674   1.269   5.725  1.7217  0.6603  2.3834
14290TIP3   OH264284   1.015   4.497  13.806  0.4905  0.9285  0.0497
14290TIP3    H164285   0.930   4.454  13.816  0.9017  0.4334  1.9461
14290TIP3    H264286   0.995   4.590  13.799 -0.2117  0.8052  0.3568
14291TIP3   OH264287   4.978   4.495  13.610 -0.6090 -0.0068  0.1752
14291TIP3    H164288   5.005   4.456  13.694  3.2268  1.6536 -0.0794
14291TIP3    H264289   4.947   4.582  13.634  2.2141  1.1946 -0.0754
14292TIP3   OH264290   5.276   5.263   6.000 -1.0202  0.2125 -0.2833
14292TIP3    H164291   5.199   5.292   6.048 -0.2364 -0.1818  1.2639
14292TIP3    H264292   5.346   5.321   6.028 -0.5098 -0.1151 -0.8474
14293TIP3   OH264293   4.695   5.586  16.746  0.2683  0.3049  0.1094
14293TIP3    H164294   4.665   5.572  16.836  0.9207  3.4837  0.9578
14293TIP3    H264295   4.791   5.589  16.754  0.5121 -1.6704 -1.1831
14294TIP3   OH264296   0.067   3.116  14.324  0.4083 -0.4264 -0.0168
14294TIP3    H164297   0.088   3.051  14.390 -2.2900 -2.6465 -1.1201
14294TIP3    H264298  -0.029   3.113  14.317  0.3682  1.8441 -1.9544
14295TIP3   OH264299   0.729   2.006  15.789 -0.0451 -0.2026 -0.6899
14295TIP3    H164300   0.698   2.096  15.798 -0.7623 -0.2905 -2.0956
14295TIP3    H264301   0.659   1.960  15.743  0.4653 -1.4000 -0.3163
14296TIP3   OH264302   3.773   6.301   1.307  0.4950 -0.3292 -0.6778
14296TIP3    H164303   3.680   6.280   1.313  0.1765  1.1609  0.1548
14296TIP3    H264304   3.817   6.217   1.307 -0.7677 -1.0214  0.7904
14297TIP3   OH264305   2.142   3.766   2.397 -0.5299 -0.4277 -0.1297
14297TIP3    H164306   2.172   3.856   2.411 -0.7872 -0.4042  0.2692
14297TIP3    H264307   2.167   3.720   2.477 -0.4240 -0.7048 -0.3230
14298TIP3   OH264308   4.600   2.974  15.692  0.1269 -0.3964 -0.3622
14298TIP3    H164309   4.683   2.971  15.738  1.0631 -0.7219 -1.9845
14298TIP3    H264310   4.553   2.896  15.721  0.3314 -0.1562  0.6456
14299TIP3   OH264311   1.348   5.579   2.542 -0.1087 -0.2496  0.9987
14299TIP3    H164312   1.310   5.602   2.627 -1.1756 -1.5023  0.8962
14299TIP3    H264313   1.391   5.659   2.512 -0.2674  0.3965  2.4222
14300TIP3   OH264314   1.273   4.548   3.036 -0.0127 -0.1045  0.1988
14300TIP3    H164315   1.334   4.475   3.023 -1.9725 -1.3396 -2.9385
14300TIP3    H264316   1.330   4.623   3.055  2.2257 -1.8469  0.8385
14301TIP3   OH264317   5.750   0.822   4.350 -0.1122 -0.2454  0.1252
14301TIP3    H164318   5.749   0.918   4.355 -0.9758 -0.1505 -1.2264
14301TIP3    H264319   5.661   0.796   4.375 -0.7676 -0.4657 -2.1829
14302TIP3   OH264320   1.353   2.201  14.076 -0.3023 -0.0778 -0.0132
14302TIP3    H164321   1.331   2.273  14.136 -0.8254  1.5510 -2.0632
14302TIP3    H264322   1.292   2.131  14.100 -0.8575  0.7257  1.0209
14303TIP3   OH264323   1.521   3.812  13.492 -0.0555 -0.0720  0.3602
14303TIP3    H164324   1.609   3.837  13.464 -0.4770 -0.5139 -1.5145
14303TIP3    H264325   1.464   3.883  13.462 -0.3652  0.2060  1.5471
14304TIP3   OH264326   5.973   2.325   1.770 -0.4089 -0.3067 -0.1132
14304TIP3    H164327   6.030   2.260   1.730  0.7905 -0.6897  2.0398
14304TIP3    H264328   6.028   2.403   1.778 -0.8017 -0.0621  0.2470
14305TIP3   OH264329   6.121   5.685  16.558  0.7579 -0.1775  0.3455
14305TIP3    H164330   6.088   5.751  16.497 -1.9283 -1.1117  0.6807
14305TIP3    H264331   6.195   5.645  16.512  1.2313  1.7044 -0.6481
14306TIP3   OH264332   3.218   5.837  16.081 -0.1037  0.3630 -0.5945
14306TIP3    H164333   3.230   5.742  16.080 -2.2111  0.0394 -2.5361
14306TIP3    H264334   3.205   5.858  16.173 -3.6334 -1.8879 -0.3929
14307TIP3   OH264335   6.596   2.375   6.533  0.4724  0.9079  0.2502
14307TIP3    H164336   6.588   2.318   6.609  3.4043  0.5068  0.3391
14307TIP3    H264337   6.507   2.410   6.521 -0.8055 -1.4756  1.8552
14308TIP3   OH264338   1.363   6.704   4.668  0.1101  0.1452 -0.0677
14308TIP3    H164339   1.313   6.744   4.597  0.3182 -2.0160 -1.5105
14308TIP3    H264340   1.451   6.741   4.660 -0.0270  0.3666 -0.5762
14309TIP3   OH264341   1.993   6.487  14.963 -0.8138 -0.2980 -0.1067
14309TIP3    H164342   2.055   6.539  15.014 -0.9868  0.6928 -0.8894
14309TIP3    H264343   2.046   6.446  14.895 -0.7502 -0.8056  0.2446
14310TIP3   OH264344   0.442   0.023   4.938 -0.3272  0.2574  0.2753
14310TIP3    H164345   0.504   0.096   4.929  1.3693 -1.2985 -1.5631
14310TIP3    H264346   0.357   0.062   4.919  0.5186  1.8192 -0.5618
14311TIP3   OH264347   2.682   0.290   6.328  0.2990 -0.4052  0.5136
14311TIP3    H164348   2.591   0.314   6.310  0.7292  3.3546  2.5247
14311TIP3    H264349   2.731   0.325   6.254  0.2787 -1.2824  0.0732
14312TIP3   OH264350   0.823   4.157  16.059  0.4847  0.1921  0.1088
14312TIP3    H164351   0.753   4.168  16.123 -0.1314  1.6595 -0.7870
14312TIP3    H264352   0.829   4.062  16.047 -2.8603  0.0676 -1.3826
14313TIP3   OH264353   3.434   5.839   1.574  0.4068 -0.5214  0.1361
14313TIP3    H164354   3.393   5.756   1.596  0.8081 -0.6586  0.3744
14313TIP3    H264355   3.500   5.817   1.508 -1.3893  0.0088 -1.9388
14314TIP3   OH264356   1.101   5.431   5.515 -0.3808 -0.4923  0.2444
14314TIP3    H164357   1.153   5.378   5.575  1.8594  0.9610 -0.2908
14314TIP3    H264358   1.090   5.515   5.560  0.9421  0.4670 -1.1256
14315TIP3   OH264359   6.558   6.297  17.173 -0.0053 -0.0769  0.0295
14315TIP3    H164360   6.505   6.334  17.244 -0.4183  0.4871 -0.5538
14315TIP3    H264361   6.557   6.203  17.189 -1.3661 -0.1081 -0.0614
14316TIP3   OH264362   3.716   3.918  15.181  0.3965  0.1308 -0.2007
14316TIP3    H164363   3.701   3.931  15.088 -0.2059 -1.4671 -0.3547
14316TIP3    H264364   3.635   3.880  15.214  0.7315  0.3205  0.9064
14317TIP3   OH264365   0.436   3.324   3.611 -0.2268  0.6437  0.3910
14317TIP3    H164366   0.348   3.288   3.602  1.8823 -5.3585 -0.5288
14317TIP3    H264367   0.459   3.309   3.703  0.0707  1.9221  0.5577
14318TIP3   OH264368   4.662   2.902  11.290  0.4497 -0.2800  0.3464
14318TIP3    H164369   4.637   2.943  11.207 -1.4674 -1.3777  0.3416
14318TIP3    H264370   4.718   2.968  11.332 -0.0426  1.0664 -0.9916
14319TIP3   OH264371   0.650   0.084  11.832 -0.0417  0.4632 -0.0070
14319TIP3    H164372   0.719   0.137  11.870  1.7746 -2.3721  0.9483
14319TIP3    H264373   0.678   0.068  11.742 -0.4690  0.9137 -0.2248
14320TIP3   OH264374   6.069   5.503   5.201  0.2171 -0.0839  0.9387
14320TIP3    H164375   5.974   5.506   5.205  0.2575  0.9769  1.4360
14320TIP3    H264376   6.091   5.536   5.113  0.1323  0.1116  0.9897
14321TIP3   OH264377   4.841   4.876  14.059  0.2054  0.2141 -0.2042
14321TIP3    H164378   4.749   4.871  14.035  0.4025 -0.5054 -0.8603
14321TIP3    H264379   4.866   4.966  14.040  0.4099 -0.3461 -3.0647
14322TIP3   OH264380   1.126   0.852   1.857  0.0328  0.0242 -0.1579
14322TIP3    H164381   1.214   0.828   1.829  0.5034 -1.5453  2.3752
14322TIP3    H264382   1.079   0.769   1.865 -1.2023  0.7169  0.1118
14323TIP3   OH264383   6.737   4.489  15.700 -0.2620 -0.1106  0.4104
14323TIP3    H164384   6.644   4.466  15.692 -0.0075 -0.9063 -0.3674
14323TIP3    H264385   6.784   4.410  15.672  0.6461  0.7495 -0.5629
14324TIP3   OH264386   1.509   4.016  15.876  0.2794  0.6999 -0.5639
14324TIP3    H164387   1.442   4.053  15.820 -0.2133 -0.0392 -0.4725
14324TIP3    H264388   1.467   4.008  15.962 -0.0386 -1.2160 -0.8697
14325TIP3   OH264389   1.449   0.347  17.242  0.1236  0.1934  0.4444
14325TIP3    H164390   1.543   0.332  17.237  0.2578  0.4836  1.6499
14325TIP3    H264391   1.421   0.296  17.318 -0.7762 -0.2477 -0.1687
14326TIP3   OH264392   5.849   4.784   3.606  0.4637 -0.1731 -0.1864
14326TIP3    H164393   5.902   4.858   3.575  0.1489  0.7382  1.3289
14326TIP3    H264394   5.762   4.802   3.570  0.3574  0.2752  0.2832
14327TIP3   OH264395   4.446   0.702   3.299  0.0273  0.6547  0.2005
14327TIP3    H164396   4.355   0.683   3.277  0.3138  1.8631 -2.3956
14327TIP3    H264397   4.497   0.633   3.257  0.3357 -0.4830  2.3149
14328TIP3   OH264398   1.829   0.213   0.046 -0.0965  0.7834 -0.4149
14328TIP3    H164399   1.793   0.128   0.021 -0.7967  1.1310 -0.5914
14328TIP3    H264400   1.757   0.258   0.091  0.3177  1.2232 -0.1785
14329TIP3   OH264401   5.180   5.378   2.067 -0.0208  0.0233 -0.3953
14329TIP3    H164402   5.149   5.345   1.982  0.9432 -1.6151 -0.1470
14329TIP3    H264403   5.276   5.379   2.059  0.0478  0.9081  0.3209
14330TIP3   OH264404   5.154   2.877   1.578 -0.3973  0.5613  0.3652
14330TIP3    H164405   5.232   2.868   1.523  0.0764  0.8203  0.9833
14330TIP3    H264406   5.095   2.932   1.526  0.5273  1.8215  0.5937
14331TIP3   OH264407   1.970   5.813  16.644  0.0984 -0.6534 -0.5748
14331TIP3    H164408   2.025   5.803  16.567  1.2900 -1.0430  0.2883
14331TIP3    H264409   1.932   5.900  16.636  0.3421 -0.6294 -1.5100
14332TIP3   OH264410   3.427   1.036   4.791  0.1614  0.1148 -0.4589
14332TIP3    H164411   3.390   0.947   4.800 -0.3579  0.1629 -1.8355
14332TIP3    H264412   3.514   1.022   4.754 -1.0767  0.2318 -3.7333
14333TIP3   OH264413   3.197   1.077   2.364  0.3334 -0.2474  0.1955
14333TIP3    H164414   3.173   1.167   2.390 -0.8309 -0.0886 -1.2990
14333TIP3    H264415   3.142   1.021   2.419  1.3110 -0.0959  1.3814
14334TIP3   OH264416   2.653   4.233   0.387  0.0574 -0.6743 -0.2659
14334TIP3    H164417   2.717   4.169   0.355  0.3757 -0.2225 -0.5330
14334TIP3    H264418   2.617   4.192   0.466 -0.9702 -1.9550 -1.3490
14335TIP3   OH264419   5.972   3.416   4.765  0.0755 -0.1295 -0.0980
14335TIP3    H164420   5.971   3.507   4.797  0.2501  0.4394 -1.5937
14335TIP3    H264421   6.061   3.404   4.732  0.3602 -1.2170  1.0258
14336TIP3   OH264422   5.767   5.627  12.013  0.3611  0.5732 -0.2729
14336TIP3    H164423   5.743   5.642  12.104  2.9259  1.0381  0.3995
14336TIP3    H264424   5.754   5.711  11.970 -1.2736  0.2432 -0.4957
14337TIP3   OH264425   6.364   0.858   5.813  0.2466 -0.0499  0.1528
14337TIP3    H164426   6.287   0.857   5.755  0.5932  0.7563 -0.3469
14337TIP3    H264427   6.334   0.904   5.891  0.1416  0.0348  0.0633
14338TIP3   OH264428   5.083   1.355   5.071  0.2110  0.1646  0.3557
14338TIP3    H164429   5.045   1.271   5.093 -0.0851 -0.2465 -1.5196
14338TIP3    H264430   5.054   1.414   5.140 -0.2035 -1.0942  1.2887
14339TIP3   OH264431   0.546   2.243  16.505  0.0491  0.3789 -0.0697
14339TIP3    H164432   0.591   2.191  16.572  1.8677  0.4005 -1.1899
14339TIP3    H264433   0.505   2.178  16.447  1.1920  0.2056 -0.7144
14340TIP3   OH264434   3.450   6.240   0.035  0.6445 -0.1273 -0.9840
14340TIP3    H164435   3.522   6.251  -0.027  0.1043 -0.1272 -1.6253
14340TIP3    H264436   3.371   6.246  -0.019  0.1889 -1.6702 -0.5177
14341TIP3   OH264437   6.059   1.167   1.048 -0.1658 -0.1386  0.5796
14341TIP3    H164438   6.010   1.161   0.966  0.1827  2.2847  0.1001
14341TIP3    H264439   6.005   1.121   1.112 -0.9890 -1.1329 -0.7737
14342TIP3   OH264440   5.916   1.397   4.106  0.5468  0.5021 -0.3537
14342TIP3    H164441   6.009   1.418   4.118  0.4658 -0.2919  2.1795
14342TIP3    H264442   5.870   1.474   4.140  0.2852  0.2453 -0.1241
14343TIP3   OH264443   1.053   4.266   4.906  0.8225 -0.5574 -0.2639
14343TIP3    H164444   0.959   4.254   4.917  1.0286 -1.1843  1.0753
14343TIP3    H264445   1.079   4.325   4.977  1.5247 -0.8848 -0.2328
14344TIP3   OH264446   3.251   0.030   1.953 -0.3236  0.0400  0.0958
14344TIP3    H164447   3.202  -0.025   1.892  1.5124  0.2613 -1.6983
14344TIP3    H264448   3.311  -0.030   1.996  0.5711  0.3601 -0.6797
14345TIP3   OH264449   0.056   1.976   0.586 -0.2785  0.0441  0.4157
14345TIP3    H164450   0.113   1.974   0.509  1.1435 -0.7462  1.4458
14345TIP3    H264451   0.031   2.068   0.596 -1.2686  0.0261 -1.5161
14346TIP3   OH264452   2.770   3.758   6.381  0.3275  0.2665  0.2076
14346TIP3    H164453   2.724   3.817   6.440  0.9748 -0.0451  1.0394
14346TIP3    H264454   2.837   3.813   6.340  0.1442  0.3862  0.0645
14347TIP3   OH264455   6.321   2.944  16.341  0.2849 -0.1975 -0.2582
14347TIP3    H164456   6.242   2.923  16.292  0.3249 -0.4279 -0.2281
14347TIP3    H264457   6.352   2.859  16.373  0.2804 -0.0536  0.1334
14348TIP3   OH264458   3.285   5.910   2.616  0.5268 -0.3689 -0.0167
14348TIP3    H164459   3.366   5.931   2.664 -0.5522  0.5378  1.5084
14348TIP3    H264460   3.218   5.905   2.684 -1.1048  1.0178 -1.4297
14349TIP3   OH264461   3.370   3.568   1.584 -0.0618  0.6429  0.0797
14349TIP3    H164462   3.432   3.640   1.599 -0.3975  0.9810 -0.1246
14349TIP3    H264463   3.405   3.522   1.507 -0.5155  1.3488 -0.5636
14350TIP3   OH264464   1.318   2.081   0.460 -0.7357  0.1612  0.1888
14350TIP3    H164465   1.291   2.056   0.548 -0.9364  0.1906  0.1368
14350TIP3    H264466   1.313   2.000   0.409  0.1755 -0.0310  0.3914
14351TIP3   OH264467   6.533   1.810  16.502  0.3302  0.1362  0.4023
14351TIP3    H164468   6.536   1.794  16.407  0.1287  0.9915  0.2391
14351TIP3    H264469   6.459   1.758  16.533 -0.3303  0.7457 -0.1090
14352TIP3   OH264470   0.035   2.619   2.061 -0.0745  0.1143 -0.5340
14352TIP3    H164471   0.086   2.542   2.034  0.3581 -0.4367  1.6607
14352TIP3    H264472  -0.012   2.646   1.981  0.3303 -1.9602 -1.5454
14353TIP3   OH264473   4.510   5.167  15.531  0.9093  0.0600  0.2980
14353TIP3    H164474   4.537   5.135  15.618  0.1703  0.3478  0.6360
14353TIP3    H264475   4.470   5.252  15.549  2.1461  0.8455 -0.5044
14354TIP3   OH264476   1.413   2.334  12.652  0.1977  0.0550 -0.5640
14354TIP3    H164477   1.348   2.400  12.675 -0.3359 -0.3085 -1.0144
14354TIP3    H264478   1.364   2.252  12.644  0.2293  0.2254 -3.4366
14355TIP3   OH264479   5.497   3.777   0.226 -0.1591 -0.3187 -0.2272
14355TIP3    H164480   5.473   3.869   0.238 -2.0842 -1.0043  1.8863
14355TIP3    H264481   5.588   3.772   0.256  0.5606  1.1599 -2.0059
14356TIP3   OH264482   0.802   0.749  14.119 -0.2122 -0.0650 -0.4312
14356TIP3    H164483   0.865   0.678  14.128  0.2026  0.5102  2.1260
14356TIP3    H264484   0.852   0.821  14.082  0.1865 -0.1645 -0.0911
14357TIP3   OH264485   5.625   4.634  14.717 -0.0049  0.2545  0.1004
14357TIP3    H164486   5.606   4.541  14.720  1.0538  0.0272  0.2593
14357TIP3    H264487   5.657   4.649  14.628  2.9549 -0.2314  0.9675
14358TIP3   OH264488   3.233   2.252   4.860  0.1488 -0.3086 -0.3766
14358TIP3    H164489   3.165   2.286   4.917  0.3681  0.0487 -0.3258
14358TIP3    H264490   3.271   2.179   4.910  2.7600  2.1892  1.5858
14359TIP3   OH264491   1.288   4.975  14.850 -0.0208  0.1389  0.6879
14359TIP3    H164492   1.300   5.029  14.928 -0.2097 -1.0728  1.5688
14359TIP3    H264493   1.376   4.945  14.827 -0.0573 -0.1158  0.8802
14360TIP3   OH264494   5.618   0.781  12.060  0.0982  0.2753 -0.4775
14360TIP3    H164495   5.703   0.785  12.102 -0.5486  1.2287  0.7876
14360TIP3    H264496   5.557   0.820  12.123 -1.2438 -0.1782 -1.4352
14361TIP3   OH264497   4.214   4.969  11.043 -0.0055 -0.6071  0.6432
14361TIP3    H164498   4.135   4.936  11.086 -0.1603 -2.8680 -1.1955
14361TIP3    H264499   4.276   4.896  11.047  0.9327  0.0870 -0.5532
14362TIP3   OH264500   2.271   4.068  16.381  0.5266  0.4070 -0.6766
14362TIP3    H164501   2.349   4.083  16.433  0.4917 -0.5011 -0.3384
14362TIP3    H264502   2.218   4.147  16.392  1.2113  0.8507 -0.5802
14363TIP3   OH264503   4.496   5.684  14.292  0.2216 -0.2979  0.1249
14363TIP3    H164504   4.473   5.729  14.373  0.8337  1.0854 -0.4463
14363TIP3    H264505   4.449   5.732  14.224  1.7667  0.1923 -0.6286
14364TIP3   OH264506   3.039   4.997   4.777 -0.1980  0.2926 -0.2959
14364TIP3    H164507   3.093   5.076   4.787  0.4670 -0.2022  0.1323
14364TIP3    H264508   3.051   4.950   4.860 -0.5929 -0.2544 -0.5479
14365TIP3   OH264509   4.491   1.878   0.413  0.3806 -0.6064  0.1061
14365TIP3    H164510   4.548   1.881   0.490  2.4853  1.4758 -1.4206
14365TIP3    H264511   4.448   1.793   0.419  2.7596 -1.8077  1.9954
14366TIP3   OH264512   3.222   6.224   1.699  0.3743  0.7211 -0.2306
14366TIP3    H164513   3.317   6.235   1.691  0.3891  1.4025  0.6537
14366TIP3    H264514   3.192   6.210   1.610  1.4092 -0.3952 -0.4258
14367TIP3   OH264515   4.316   3.900   2.856 -0.6058  0.1354 -0.0998
14367TIP3    H164516   4.230   3.865   2.877 -1.9066  3.3060  0.4459
14367TIP3    H264517   4.304   3.995   2.857  3.1662  0.7714  1.1172
14368TIP3   OH264518   5.642   3.103   4.904  0.1248  0.1781 -0.1505
14368TIP3    H164519   5.661   3.197   4.897  1.9791 -0.2934 -2.6492
14368TIP3    H264520   5.727   3.061   4.905 -0.6539 -1.5998 -1.8689
14369TIP3   OH264521   2.634   2.968  12.600 -0.1367  0.3091 -0.6123
14369TIP3    H164522   2.619   2.973  12.506  0.0865 -0.4691 -0.6944
14369TIP3    H264523   2.637   2.874  12.619  0.1755  0.4588  0.1146
14370TIP3   OH264524   1.941   4.148  16.149  0.1605  0.0511 -0.2734
14370TIP3    H164525   1.855   4.116  16.121  0.6803 -1.1294 -0.5513
14370TIP3    H264526   1.999   4.073  16.140  1.4429  1.1021 -1.0156
14371TIP3   OH264527   2.587   5.467   1.780  0.0900 -0.1148  0.0723
14371TIP3    H164528   2.668   5.466   1.830 -0.2947  0.3694  0.7192
14371TIP3    H264529   2.615   5.476   1.689  0.7994 -1.1723  0.1796
14372TIP3   OH264530   3.049   3.355  12.816 -0.3075  0.6499  0.4416
14372TIP3    H164531   3.093   3.292  12.872  4.0461  1.9408 -1.1361
14372TIP3    H264532   2.963   3.316  12.798  0.4699 -2.6293  2.9928
14373TIP3   OH264533   4.773   1.923   1.069 -0.3315 -0.3775  0.9462
14373TIP3    H164534   4.812   1.864   1.004 -0.5246  0.9050 -0.3903
14373TIP3    H264535   4.824   1.908   1.148  2.1219  0.3581 -0.4019
14374TIP3   OH264536   6.268   2.855   0.565 -0.3768  0.1469  0.3737
14374TIP3    H164537   6.341   2.861   0.503  0.0824 -0.2999  0.8626
14374TIP3    H264538   6.208   2.792   0.526  0.0260 -0.3164  0.4927
14375TIP3   OH264539   0.440   6.635   1.934 -0.2215  0.4661  0.0837
14375TIP3    H164540   0.480   6.661   2.017 -0.2184  1.5153 -0.2307
14375TIP3    H264541   0.461   6.542   1.926 -0.1750  0.3644  1.2255
14376TIP3   OH264542   4.147   5.866  14.391 -0.0276 -0.0701 -0.6337
14376TIP3    H164543   4.170   5.947  14.345 -1.0724 -0.0121 -1.0903
14376TIP3    H264544   4.051   5.864  14.390 -0.0288 -1.0817 -0.2120
14377TIP3   OH264545   4.277   1.346  12.472 -0.2714  0.1471  0.2034
14377TIP3    H164546   4.238   1.325  12.387  0.7777  0.7225 -0.4484
14377TIP3    H264547   4.228   1.294  12.535 -0.4097 -1.0745 -0.8760
14378TIP3   OH264548   0.271   5.853   4.102 -0.4719 -0.0218 -0.3648
14378TIP3    H164549   0.347   5.803   4.131  0.2890  0.3919 -1.5752
14378TIP3    H264550   0.262   5.924   4.166 -0.7913 -0.9521  0.6413
14379TIP3   OH264551   5.805   1.741   0.913 -0.5295  0.1463  0.2379
14379TIP3    H164552   5.795   1.650   0.943  0.8396 -0.7973 -1.9237
14379TIP3    H264553   5.715   1.773   0.903 -1.0378 -0.3440  2.6621
14380TIP3   OH264554   3.471   1.621   3.516 -0.0211 -0.4659  0.3757
14380TIP3    H164555   3.437   1.593   3.431 -0.8545  0.0145  0.5408
14380TIP3    H264556   3.515   1.704   3.498  1.4219 -1.2548  0.0989
14381TIP3   OH264557   2.073   6.549  11.898  0.1480  0.8401  0.3411
14381TIP3    H164558   2.132   6.605  11.847 -0.5773  3.0184  1.7689
14381TIP3    H264559   2.124   6.525  11.976  0.5376 -0.7837 -0.3624
14382TIP3   OH264560   5.490   6.318   3.260  0.3458  0.0932 -0.3967
14382TIP3    H164561   5.529   6.394   3.302 -0.0452  0.2305 -0.2878
14382TIP3    H264562   5.499   6.248   3.325  1.4007 -0.1552 -0.7846
14383TIP3   OH264563   6.267   4.338  11.403 -0.8247 -0.2290 -0.9378
14383TIP3    H164564   6.263   4.433  11.394  0.8077 -0.0454 -0.2524
14383TIP3    H264565   6.303   4.307  11.320  3.3492  0.3255  0.4178
14384TIP3   OH264566   1.550   4.863  16.327 -0.0322  0.0319  0.2124
14384TIP3    H164567   1.483   4.802  16.297  1.0136 -0.2562 -1.6230
14384TIP3    H264568   1.606   4.878  16.251  1.0308  1.5717  1.2305
14385TIP3   OH264569   0.726   5.570  11.506 -0.0353  0.2658  0.0342
14385TIP3    H164570   0.717   5.589  11.599 -0.4183 -0.3812  0.1327
14385TIP3    H264571   0.658   5.505  11.488 -0.4985  0.9739 -0.8656
14386TIP3   OH264572   2.189   3.109   2.562 -0.4184 -0.0334  0.2285
14386TIP3    H164573   2.225   3.058   2.489 -2.5422  0.9317 -1.6083
14386TIP3    H264574   2.189   3.048   2.636  1.0005 -1.3283 -0.7722
14387TIP3   OH264575   6.514   3.196   2.137 -0.0529 -0.3183  0.1413
14387TIP3    H164576   6.580   3.265   2.130 -1.1409  0.9104  1.4896
14387TIP3    H264577   6.482   3.202   2.227 -2.6077 -0.2835 -0.6999
14388TIP3   OH264578   0.343   2.672   2.631  0.3082  0.7184 -0.3822
14388TIP3    H164579   0.373   2.623   2.555 -0.0434 -1.1882  0.6497
14388TIP3    H264580   0.320   2.605   2.696 -2.5868  2.1203  0.2270
14389TIP3   OH264581   6.045   6.516  10.664 -0.4701 -0.3489  0.3054
14389TIP3    H164582   5.984   6.479  10.728 -0.1549  1.4141  1.7051
14389TIP3    H264583   6.125   6.463  10.673 -0.8701 -0.9306  0.4430
14390TIP3   OH264584   1.246   3.729   4.483 -0.8073 -0.5018  0.3295
14390TIP3    H164585   1.212   3.747   4.571  0.5504  1.8487  0.4719
14390TIP3    H264586   1.202   3.794   4.427 -0.0233 -0.4956 -0.2948
14391TIP3   OH264587   3.940   3.384  16.031 -0.2583 -0.2688  0.2501
14391TIP3    H164588   3.903   3.303  15.994  1.4568  0.7530 -4.3414
14391TIP3    H264589   4.032   3.363  16.047 -0.2534  0.2436  0.9150
14392TIP3   OH264590   3.255   5.857  11.459  0.2118 -0.1487 -0.3656
14392TIP3    H164591   3.210   5.786  11.413  0.5122 -1.4508  1.2863
14392TIP3    H264592   3.287   5.913  11.389 -2.2529 -0.2108 -1.6619
14393TIP3   OH264593   4.285   2.193  16.630  0.3118  0.7511  0.7770
14393TIP3    H164594   4.210   2.237  16.670  0.2881  0.1078  1.4565
14393TIP3    H264595   4.356   2.206  16.693  0.6020  0.7916  0.4437
14394TIP3   OH264596   1.459   4.989   0.423 -0.0443 -0.4119 -0.1360
14394TIP3    H164597   1.372   5.007   0.386 -0.6759  1.3485  1.9899
14394TIP3    H264598   1.519   5.006   0.351 -1.4048 -0.9460 -1.4503
14395TIP3   OH264599   0.712   1.376   4.379 -0.1210 -0.4810 -0.3611
14395TIP3    H164600   0.683   1.377   4.288 -0.6488 -1.2006 -0.2198
14395TIP3    H264601   0.679   1.292   4.413 -0.7622  0.2037  0.7529
14396TIP3   OH264602   3.684   4.217   4.478 -0.1646  0.0256  0.3782
14396TIP3    H164603   3.719   4.175   4.557 -2.1224  0.9820  1.8315
14396TIP3    H264604   3.631   4.149   4.437  1.4060 -0.6910 -0.5518
14397TIP3   OH264605   6.068   0.645   2.002 -0.0743  0.4512  0.5631
14397TIP3    H164606   6.020   0.705   2.060 -1.1018 -0.1136  0.3121
14397TIP3    H264607   6.121   0.592   2.061  0.5708  1.3541  0.8145
14398TIP3   OH264608   2.067   3.428  11.468 -0.1687 -0.2762 -0.5991
14398TIP3    H164609   2.089   3.498  11.407  0.1319  1.2505  1.1772
14398TIP3    H264610   2.148   3.412  11.516 -0.2137 -1.9326 -1.0084
14399TIP3   OH264611   5.392   4.141  14.496  0.2038  0.3253  0.2525
14399TIP3    H164612   5.319   4.201  14.511  1.3122  1.8120  0.0057
14399TIP3    H264613   5.464   4.178  14.548  0.4622 -1.7916  1.4997
14400TIP3   OH264614   2.718   1.389   0.093 -0.0624  0.2740 -0.3058
14400TIP3    H164615   2.623   1.376   0.091 -0.0248  0.0100 -0.4691
14400TIP3    H264616   2.731   1.480   0.067 -0.3244  0.5757  0.5909
14401TIP3   OH264617   0.969   5.067  17.364 -0.1977  0.2843 -0.4421
14401TIP3    H164618   1.043   5.083  17.423  0.4307 -0.3714 -1.0405
14401TIP3    H264619   0.963   4.972  17.359 -0.2139  0.3349 -1.4822
14402TIP3   OH264620   5.084   0.009  12.737  0.1177  0.1408 -0.1520
14402TIP3    H164621   5.015   0.005  12.671 -0.4177 -1.7151  0.4610
14402TIP3    H264622   5.037   0.023  12.820  0.2742 -2.4582  0.4521
14403TIP3   OH264623   4.113   0.946  14.194 -0.2748 -0.5268 -0.2016
14403TIP3    H164624   4.121   0.850  14.188  0.1466 -0.4329 -1.6117
14403TIP3    H264625   4.025   0.960  14.229  0.6452 -1.4294  2.8000
14404TIP3   OH264626   6.218   3.069  11.514  0.0960 -0.3647  0.3150
14404TIP3    H164627   6.204   3.067  11.609 -1.4653 -0.6934  0.1108
14404TIP3    H264628   6.139   3.028  11.478 -0.2290  1.4740 -1.2092
14405TIP3   OH264629   1.720   3.423   4.912 -0.2764  0.4890  0.6227
14405TIP3    H164630   1.673   3.472   4.979 -1.8848  0.5026 -0.4674
14405TIP3    H264631   1.669   3.344   4.899 -1.0822  1.3094 -1.8364
14406TIP3   OH264632   2.996   2.192  11.280  0.0683  0.0707 -0.0525
14406TIP3    H164633   3.038   2.183  11.195 -0.1235  0.0692 -0.1488
14406TIP3    H264634   3.068   2.194  11.343  0.4058  2.6294 -0.4019
14407TIP3   OH264635   4.491   2.089  12.365 -0.4866  0.0969  0.1813
14407TIP3    H164636   4.417   2.128  12.413  0.2620 -1.4462  2.8035
14407TIP3    H264637   4.465   1.998  12.352 -0.0123  0.1318 -1.0364
14408TIP3   OH264638   6.177   0.489  14.833  0.2976 -0.0401  0.2375
14408TIP3    H164639   6.140   0.408  14.868  1.8032 -0.2668  1.4068
14408TIP3    H264640   6.212   0.464  14.747  1.7098 -0.9460  1.0270
14409TIP3   OH264641   6.470   4.427  15.595  0.8240 -0.0469  0.0616
14409TIP3    H164642   6.407   4.484  15.640 -0.4437 -1.5337  0.2538
14409TIP3    H264643   6.458   4.448  15.502  1.9789  1.5581  0.2351
14410TIP3   OH264644   0.195   1.379  16.769  0.1567 -0.3074 -0.3091
14410TIP3    H164645   0.202   1.284  16.770  2.7012 -0.1790  1.2357
14410TIP3    H264646   0.136   1.399  16.841 -3.5460 -0.7091 -2.8957
14411TIP3   OH264647   1.627   4.059   5.659  0.4455  0.5211  0.2620
14411TIP3    H164648   1.656   4.131   5.715  0.4515  0.4126  0.3981
14411TIP3    H264649   1.540   4.037   5.691  0.4969  0.3804  0.3045
14412TIP3   OH264650   2.200   6.113  12.989  0.0836  0.7830  0.1442
14412TIP3    H164651   2.197   6.068  12.904 -0.1818 -1.7211  1.4152
14412TIP3    H264652   2.290   6.145  12.995  0.2491  0.5690 -0.8622
14413TIP3   OH264653   4.082   6.625   4.696  0.3728  0.2298  0.7500
14413TIP3    H164654   4.016   6.565   4.662  0.9789  0.7347 -1.5514
14413TIP3    H264655   4.047   6.656   4.779 -0.1620 -2.8988  1.8172
14414TIP3   OH264656   4.850   6.221   3.730 -0.6237  0.3662  0.5223
14414TIP3    H164657   4.845   6.239   3.636 -0.0833 -0.3639  0.3408
14414TIP3    H264658   4.766   6.182   3.752 -0.4168 -0.3103  0.1412
14415TIP3   OH264659   4.859   2.102  16.629 -0.0024 -0.0304 -0.3830
14415TIP3    H164660   4.862   2.193  16.598  1.9262  0.5827  1.3731
14415TIP3    H264661   4.773   2.070  16.600 -1.1067  2.5964 -0.3279
14416TIP3   OH264662   5.761   1.145  13.419  0.7494 -0.3069  0.2505
14416TIP3    H164663   5.685   1.150  13.360  2.0774 -2.1190 -1.7474
14416TIP3    H264664   5.722   1.131  13.506 -1.2305  0.7599 -0.3911
14417TIP3   OH264665   4.059   2.423  14.602 -0.1776  0.1631  0.1869
14417TIP3    H164666   4.084   2.495  14.543  0.3739 -1.4703 -1.6906
14417TIP3    H264667   4.121   2.429  14.675  0.2202  1.2421 -0.2147
14418TIP3   OH264668   3.752   5.833  14.848  0.6427  0.4296  0.1899
14418TIP3    H164669   3.789   5.757  14.804 -0.3520  1.0483 -1.8164
14418TIP3    H264670   3.713   5.885  14.778  1.3879  2.8657  1.4763
14419TIP3   OH264671   4.635   5.237  16.737 -0.6823  0.6018 -0.8412
14419TIP3    H164672   4.602   5.304  16.677 -3.1285  0.2547  0.0004
14419TIP3    H264673   4.583   5.248  16.816  0.1558 -1.0960 -0.0069
14420TIP3   OH264674   2.454   0.081   0.258 -0.1479  0.0585 -0.2520
14420TIP3    H164675   2.454   0.166   0.302  0.9127  0.0711 -0.2518
14420TIP3    H264676   2.516   0.028   0.308 -0.5046 -0.5925 -0.4888
14421TIP3   OH264677   0.353   0.134  15.614 -0.3923 -0.2008  0.5710
14421TIP3    H164678   0.345   0.188  15.536 -1.0658 -0.4714  0.4504
14421TIP3    H264679   0.437   0.161  15.653 -0.9049  1.2227  0.7402
14422TIP3   OH264680   5.618   4.661   2.604  0.1984 -0.2282  0.0715
14422TIP3    H164681   5.687   4.708   2.651 -0.2489 -1.7109  2.3436
14422TIP3    H264682   5.659   4.579   2.576 -0.3118 -0.6075  0.4163
14423TIP3   OH264683   1.284   4.415   0.324  0.4560  0.2537 -0.0373
14423TIP3    H164684   1.310   4.385   0.237  1.3707  2.1746 -0.4806
14423TIP3    H264685   1.193   4.442   0.313  0.2067 -0.5689 -0.0844
14424TIP3   OH264686   6.230   0.519   4.755 -0.7076  0.3040 -0.2788
14424TIP3    H164687   6.236   0.595   4.812  0.3322 -0.9359  1.3584
14424TIP3    H264688   6.304   0.463   4.781 -0.8425 -0.8121 -2.1092
14425TIP3   OH264689   5.727   5.642  12.296 -0.2009  0.1316 -0.5230
14425TIP3    H164690   5.794   5.687  12.346  0.7251 -2.1884  0.4835
14425TIP3    H264691   5.706   5.564  12.348 -3.3838  0.5148 -1.0338
14426TIP3   OH264692   3.162   3.295   0.838 -0.0227 -0.2787 -0.1541
14426TIP3    H164693   3.081   3.282   0.887  0.2160  2.4922  1.1910
14426TIP3    H264694   3.137   3.284   0.746 -1.8086  0.0374  0.2560
14427TIP3   OH264695   1.644   2.889   3.593 -0.3853  0.3390  0.5052
14427TIP3    H164696   1.689   2.971   3.577  0.0525 -0.2315 -1.3891
14427TIP3    H264697   1.551   2.912   3.596 -0.1579  1.1894  2.2144
14428TIP3   OH264698   5.155   0.533   3.521 -0.7857  0.0837  0.2236
14428TIP3    H164699   5.242   0.529   3.560 -0.7625  0.6040  0.2355
14428TIP3    H264700   5.145   0.449   3.475  0.1922  0.4842 -0.7711
14429TIP3   OH264701   0.692   1.654   4.964 -0.0462 -0.6009 -0.2049
14429TIP3    H164702   0.705   1.748   4.973 -0.4681 -0.6082  0.5278
14429TIP3    H264703   0.753   1.615   5.027  0.0759 -0.8218 -0.4550
14430TIP3   OH264704   0.440   2.601  13.253 -0.3408 -0.4451 -0.0980
14430TIP3    H164705   0.447   2.673  13.191  0.7728  0.0036  0.5246
14430TIP3    H264706   0.515   2.545  13.234  0.5036  0.1223  1.3297
14431TIP3   OH264707   3.742   1.282   2.699 -0.1252  0.3921 -0.4477
14431TIP3    H164708   3.666   1.311   2.749  0.2478  1.7873 -0.6261
14431TIP3    H264709   3.706   1.234   2.625 -0.6989 -1.3031  0.8875
14432TIP3   OH264710   2.913   2.414  17.236 -0.0474 -0.5605  0.2372
14432TIP3    H164711   2.846   2.427  17.169 -0.1350 -0.8879  0.2620
14432TIP3    H264712   2.864   2.411  17.319 -0.0039 -0.7874  0.2563
14433TIP3   OH264713   2.443   1.003  12.776  0.8327 -0.4662 -0.4325
14433TIP3    H164714   2.377   1.071  12.788  0.7861 -0.1376 -2.3542
14433TIP3    H264715   2.504   1.039  12.712  1.3362 -1.8721 -0.7785
14434TIP3   OH264716   1.673   4.767  14.841  0.2226  0.8105  0.4897
14434TIP3    H164717   1.751   4.728  14.879 -1.0063 -1.0763  1.2229
14434TIP3    H264718   1.632   4.815  14.913  0.0586  0.7425  0.4433
14435TIP3   OH264719   5.639   5.275   4.045 -0.0912 -0.6606  0.3243
14435TIP3    H164720   5.691   5.216   4.099  0.2884  0.8933  1.7414
14435TIP3    H264721   5.553   5.277   4.088 -0.2193 -0.4981  0.0633
14436TIP3   OH264722   2.078   1.713  11.007 -0.2897  0.4347  0.0395
14436TIP3    H164723   2.097   1.778  10.940 -0.0805 -0.0105 -0.3455
14436TIP3    H264724   1.986   1.691  10.994 -1.0444  2.3404  1.6825
14437TIP3   OH264725   2.101   1.764  13.060 -0.0787 -0.1870  0.1046
14437TIP3    H164726   2.064   1.852  13.069  0.4548  0.0473  0.0816
14437TIP3    H264727   2.092   1.744  12.967  0.4437  0.1434 -0.0237
14438TIP3   OH264728   0.267   1.059   5.734  0.3516  0.0862 -0.3256
14438TIP3    H164729   0.248   1.007   5.656  0.1165  2.6794 -2.0886
14438TIP3    H264730   0.181   1.084   5.768  0.4690 -0.3669  0.3292
14439TIP3   OH264731   4.175   2.470  15.797  0.1860 -0.2004 -0.0038
14439TIP3    H164732   4.130   2.535  15.851  0.6376  0.3041 -0.2260
14439TIP3    H264733   4.116   2.395  15.795  0.6209 -0.6443  2.0844
14440TIP3   OH264734   1.616   4.108   5.385 -0.3205  0.0477  0.5269
14440TIP3    H164735   1.665   4.190   5.391 -0.7335  0.2068  2.9113
14440TIP3    H264736   1.621   4.071   5.473 -1.1569 -1.9057 -0.1945
14441TIP3   OH264737   6.450   4.286  16.640  0.3302  0.0322  0.1819
14441TIP3    H164738   6.365   4.294  16.596  0.7355 -2.9622 -1.4151
14441TIP3    H264739   6.513   4.323  16.577  0.3588  1.2280  0.8887
14442TIP3   OH264740   3.870   6.294  12.320  0.3902  0.8920  0.3214
14442TIP3    H164741   3.965   6.295  12.320  0.4504  0.6224 -2.2694
14442TIP3    H264742   3.847   6.229  12.387  2.2238 -2.4348 -1.9678
14443TIP3   OH264743   2.173   4.292   5.397 -0.1079  0.1269 -0.3283
14443TIP3    H164744   2.227   4.223   5.435 -0.3137  1.3736  2.4595
14443TIP3    H264745   2.083   4.265   5.415 -0.1857  1.1090  0.8485
14444TIP3   OH264746   3.839   0.612   4.957  0.2300 -0.2083 -0.1237
14444TIP3    H164747   3.799   0.535   4.917  1.3053 -0.6149 -0.4409
14444TIP3    H264748   3.933   0.597   4.951  0.4993  1.5308 -0.9746
14445TIP3   OH264749   2.530   1.809   6.228 -0.0518  0.1509 -0.6173
14445TIP3    H164750   2.567   1.731   6.187  1.6580  2.1769 -3.3334
14445TIP3    H264751   2.598   1.841   6.286 -1.0124 -0.6457  1.0254
14446TIP3   OH264752   3.817   2.866   1.395 -0.2185 -0.1277 -0.5111
14446TIP3    H164753   3.734   2.826   1.369 -1.1410  0.9381  0.6395
14446TIP3    H264754   3.834   2.831   1.483 -0.0263  0.4809 -0.2989
14447TIP3   OH264755   1.945   4.179  11.645 -0.5419  0.5688  0.5640
14447TIP3    H164756   1.910   4.239  11.580  1.4353  2.2471  0.9297
14447TIP3    H264757   1.973   4.235  11.718  2.6406 -0.5238  0.3664
14448TIP3   OH264758   1.948   0.828  16.661  0.0752  0.3481  0.3571
14448TIP3    H164759   1.911   0.841  16.574 -0.6067  0.7172  0.6941
14448TIP3    H264760   1.991   0.911  16.681  1.3896 -0.1805 -0.1604
14449TIP3   OH264761   1.250   2.296  11.703  0.0547  0.6377 -0.3750
14449TIP3    H164762   1.327   2.330  11.748 -0.5636  1.7966 -0.1697
14449TIP3    H264763   1.224   2.366  11.643 -0.3784 -0.0546 -1.0163
14450TIP3   OH264764   4.745   4.815   2.058  0.0767  0.1147 -0.2986
14450TIP3    H164765   4.791   4.897   2.076 -0.2122  0.3533 -0.6340
14450TIP3    H264766   4.747   4.807   1.963  3.8453 -2.3994 -0.2310
14451TIP3   OH264767   3.943   4.899  14.376 -0.1589  0.0484 -0.5368
14451TIP3    H164768   3.939   4.901  14.472  1.1549 -0.5291 -0.4450
14451TIP3    H264769   3.910   4.813  14.352  1.7443 -0.7714 -0.4127
14452TIP3   OH264770   5.411   1.196   3.049  0.1367 -0.0417  0.0164
14452TIP3    H164771   5.489   1.193   3.104  0.8746  0.6783 -0.9629
14452TIP3    H264772   5.343   1.154   3.102  0.7629  0.8051  1.5517
14453TIP3   OH264773   5.771   5.328   4.955 -0.0750 -0.3547  0.1011
14453TIP3    H164774   5.856   5.285   4.949 -0.7169 -1.4932 -2.0186
14453TIP3    H264775   5.773   5.374   5.039  3.3818  1.3015 -0.6847
14454TIP3   OH264776   4.191   6.071  14.192  0.4478  0.5346  0.4230
14454TIP3    H164777   4.218   6.115  14.112 -0.2820  2.6521  1.2621
14454TIP3    H264778   4.095   6.073  14.189  0.3963  1.3163  1.6328
14455TIP3   OH264779   4.450   0.903   6.691 -0.1967 -0.0469  0.2313
14455TIP3    H164780   4.501   0.929   6.767  0.5684  0.6597 -0.5102
14455TIP3    H264781   4.514   0.892   6.621 -0.9066 -0.5184 -0.3696
14456TIP3   OH264782   6.100   1.489  13.479 -0.1975  0.5118  0.7345
14456TIP3    H164783   6.130   1.572  13.442  0.1452 -0.8473 -2.2694
14456TIP3    H264784   6.045   1.451  13.411 -0.0576 -1.8923  1.8764
14457TIP3   OH264785   5.845   5.889  11.461  0.8000  0.1267  0.7332
14457TIP3    H164786   5.909   5.938  11.410 -0.3450  1.3244  0.3893
14457TIP3    H264787   5.835   5.806  11.413  2.0724 -0.0885  0.8068
14458TIP3   OH264788   4.130   2.227   5.327  0.2589 -0.7061 -0.0156
14458TIP3    H164789   4.140   2.174   5.406  1.0550 -2.1519 -1.0395
14458TIP3    H264790   4.209   2.282   5.325  0.0115 -0.3256  0.4223
14459TIP3   OH264791   4.572   3.545   3.109  0.0388 -0.0610  0.4860
14459TIP3    H164792   4.524   3.466   3.134 -1.9023  0.8118 -0.3457
14459TIP3    H264793   4.549   3.559   3.017  2.7361 -0.1569 -0.3216
14460TIP3   OH264794   4.764   0.107  16.111  0.3446 -0.2138  0.3054
14460TIP3    H164795   4.715   0.189  16.117  0.2967 -0.3198  1.9754
14460TIP3    H264796   4.791   0.101  16.020  1.4154  2.2732  0.3915
14461TIP3   OH264797   5.871   0.281   3.967  0.0054 -0.2231  0.1432
14461TIP3    H164798   5.820   0.201   3.978  1.2758 -0.8396  2.0079
14461TIP3    H264799   5.925   0.265   3.890 -1.2985 -0.2579 -0.7975
14462TIP3   OH264800   2.679   4.612  15.141 -0.0257  0.3336 -0.2573
14462TIP3    H164801   2.714   4.702  15.140  2.4311 -0.5517 -0.6446
14462TIP3    H264802   2.659   4.596  15.234  0.9214  0.8072  0.0476
14463TIP3   OH264803   0.831   2.522   3.982 -0.0664 -0.3321 -0.1837
14463TIP3    H164804   0.824   2.508   3.887 -1.6954  3.5810 -0.8374
14463TIP3    H264805   0.746   2.495   4.017 -0.8184  1.5031 -0.4781
14464TIP3   OH264806   2.014   0.360   5.047  0.5812 -0.2464  0.1983
14464TIP3    H164807   1.993   0.337   5.137  2.8126 -0.0260  0.8210
14464TIP3    H264808   2.108   0.377   5.047  0.5671  0.1963 -2.0861
14465TIP3   OH264809   5.597   1.979   2.775  0.0693  0.0094 -0.2583
14465TIP3    H164810   5.625   2.070   2.760  0.4673  0.0909  0.9108
14465TIP3    H264811   5.666   1.940   2.827 -0.3766 -0.8081 -0.2578
14466TIP3   OH264812   1.621   0.769   5.412  0.1634  0.0090  0.0633
14466TIP3    H164813   1.629   0.788   5.318  3.0805 -1.5625 -0.1195
14466TIP3    H264814   1.527   0.767   5.427 -0.4117  0.5708 -2.7779
14467TIP3   OH264815   1.908   2.688   4.079 -0.0441 -0.1717  0.2921
14467TIP3    H164816   1.824   2.716   4.115 -0.0314 -0.4588  0.5544
14467TIP3    H264817   1.893   2.682   3.985  0.1656  1.4377  0.1303
14468TIP3   OH264818   6.627   4.467   2.398  0.5669  0.0650 -0.4528
14468TIP3    H164819   6.692   4.398   2.385  0.7925  0.6830 -3.0266
14468TIP3    H264820   6.544   4.426   2.374  0.0545 -0.4404  1.9300
14469TIP3   OH264821   5.614   1.113   0.698 -0.5924 -0.3472  0.3633
14469TIP3    H164822   5.556   1.044   0.730  0.6582 -3.0373 -2.5841
14469TIP3    H264823   5.559   1.164   0.639 -0.9360 -0.3168  0.7043
14470TIP3   OH264824   1.675   6.735  13.222 -0.3381  0.1922  0.2626
14470TIP3    H164825   1.592   6.715  13.180  0.3531 -0.1116 -1.0158
14470TIP3    H264826   1.690   6.662  13.282 -0.5938 -0.1755 -0.1207
14471TIP3   OH264827   3.230   2.604   2.393 -0.0949  0.4894  0.6236
14471TIP3    H164828   3.223   2.620   2.299  1.1376 -1.5825  0.1146
14471TIP3    H264829   3.157   2.653   2.431 -1.3706  0.3946 -1.5363
14472TIP3   OH264830   3.831   6.165  15.069 -0.1211 -0.1814 -0.2612
14472TIP3    H164831   3.904   6.213  15.029  0.0827  1.6838  2.0930
14472TIP3    H264832   3.763   6.166  15.002  1.2068  0.0529 -1.6757
14473TIP3   OH264833   5.610   1.378  16.315 -0.0928 -0.1738 -0.3947
14473TIP3    H164834   5.592   1.331  16.234 -3.9656  0.0635  0.1162
14473TIP3    H264835   5.604   1.470  16.291  0.4180 -0.0639 -0.1155
14474TIP3   OH264836   5.875   3.938  14.657  0.4110 -0.2449 -0.0137
14474TIP3    H164837   5.875   3.943  14.753  1.1029 -0.7157  0.0125
14474TIP3    H264838   5.879   4.029  14.629 -2.2755  0.0870  0.3776
14475TIP3   OH264839   3.258   0.329  17.010  1.3425 -0.1782 -0.7176
14475TIP3    H164840   3.177   0.317  17.058 -0.2321 -0.0873 -3.1735
14475TIP3    H264841   3.301   0.403  17.052 -0.7640  0.9673 -0.4795
14476TIP3   OH264842   3.800   1.126  16.622  0.1474  0.5633  0.2266
14476TIP3    H164843   3.762   1.116  16.535 -0.7227 -1.2348  0.7659
14476TIP3    H264844   3.752   1.199  16.661 -2.0394 -0.8986  0.4529
14477TIP3   OH264845   4.235   5.536  13.327  0.0282 -0.5469 -0.2004
14477TIP3    H164846   4.172   5.512  13.259  1.0829 -0.5810 -1.1904
14477TIP3    H264847   4.263   5.453  13.365  1.2683 -0.7270 -1.4294
14478TIP3   OH264848   5.736   2.658   2.084  0.4702  0.0920 -0.2422
14478TIP3    H164849   5.730   2.563   2.095 -1.4884  0.3621  1.5730
14478TIP3    H264850   5.651   2.683   2.048  0.5148  1.2716  0.4332
14479TIP3   OH264851   3.399   4.948  11.811 -0.0337 -0.5632  0.0285
14479TIP3    H164852   3.474   4.984  11.859  0.5009  0.3381 -1.4169
14479TIP3    H264853   3.324   4.968  11.868  0.7693 -1.3591  1.4315
14480TIP3   OH264854   3.724   6.449   2.164  0.4821  0.9498 -0.3954
14480TIP3    H164855   3.758   6.366   2.133 -1.1073  0.4410 -0.8355
14480TIP3    H264856   3.795   6.512   2.147  1.7371 -0.3065  0.0531
14481TIP3   OH264857   3.084   0.259   4.677  0.4402 -0.5777  0.5481
14481TIP3    H164858   3.074   0.169   4.644  0.4449 -0.3930  0.0286
14481TIP3    H264859   3.027   0.311   4.621 -1.6154 -0.5904  2.4795
14482TIP3   OH264860   3.329   2.779   6.533  0.2154  0.1217 -0.0888
14482TIP3    H164861   3.398   2.745   6.477 -0.8375 -0.5571 -1.0144
14482TIP3    H264862   3.269   2.706   6.545 -0.5397  0.8017  0.3796
14483TIP3   OH264863   5.491   1.817  11.582 -0.2797 -0.3107  0.5196
14483TIP3    H164864   5.576   1.785  11.550 -0.0352 -1.1749  1.9329
14483TIP3    H264865   5.511   1.900  11.624 -0.5161  0.5637 -1.0218
14484TIP3   OH264866   3.903   4.992  12.166 -0.0642 -0.6595  0.1436
14484TIP3    H164867   3.949   4.962  12.244  0.3439  2.0212  1.0524
14484TIP3    H264868   3.819   5.025  12.199  0.1878  0.6815 -0.4744
14485TIP3   OH264869   1.229   1.147  12.140 -0.4050  0.0520  0.3171
14485TIP3    H164870   1.134   1.154  12.134 -0.3738  0.1072 -0.1598
14485TIP3    H264871   1.259   1.234  12.164 -0.2882  0.7343 -2.0660
14486TIP3   OH264872   0.030   2.156  16.841  0.0501  0.0678 -0.3325
14486TIP3    H164873   0.106   2.194  16.797  1.6603 -2.7835 -0.2336
14486TIP3    H264874  -0.008   2.097  16.776 -0.1576 -0.9000  0.6482
14487TIP3   OH264875   3.530   6.569  14.189  0.3636 -0.5868 -0.3525
14487TIP3    H164876   3.601   6.509  14.212  0.2224 -0.0263  1.8508
14487TIP3    H264877   3.451   6.516  14.195  0.2183 -0.2189  1.8048
14488TIP3   OH264878   5.202   5.453   2.706  0.0257  0.0463 -0.0396
14488TIP3    H164879   5.182   5.361   2.687 -2.4399 -0.0371  2.3098
14488TIP3    H264880   5.274   5.474   2.647 -1.6866 -2.2929 -3.3463
14489TIP3   OH264881   3.110   5.705  12.597 -0.0860 -0.1968 -0.1708
14489TIP3    H164882   3.118   5.614  12.624 -1.6861 -0.6888 -1.2038
14489TIP3    H264883   3.069   5.749  12.672 -0.3248 -0.5728 -0.0760
14490TIP3   OH264884   4.281   4.239  14.622 -0.5827  0.2243 -0.0821
14490TIP3    H164885   4.305   4.322  14.663 -1.6452  0.2150  0.6053
14490TIP3    H264886   4.223   4.198  14.685  0.0508 -1.1212 -0.3511
14491TIP3   OH264887   4.594   1.995   2.770  0.6564 -0.3379  0.5496
14491TIP3    H164888   4.626   1.907   2.789  0.0871 -0.2147  2.2342
14491TIP3    H264889   4.506   1.981   2.735  0.9745 -0.4841 -0.1955
14492TIP3   OH264890   0.664   0.944  13.900 -0.5515  0.6526 -0.1221
14492TIP3    H164891   0.632   1.005  13.966 -0.2988  0.5013  0.1423
14492TIP3    H264892   0.755   0.969  13.886 -0.5792  0.6306 -0.3519
14493TIP3   OH264893   5.956   1.582  12.342 -0.4101 -0.1612 -0.2705
14493TIP3    H164894   6.021   1.652  12.345 -0.2296 -0.2869 -1.0326
14493TIP3    H264895   5.873   1.625  12.364 -0.3030  0.2930 -0.7303
14494TIP3   OH264896   5.291   4.542   2.199 -1.3501  0.1806 -0.1813
14494TIP3    H164897   5.226   4.562   2.132 -1.5211  0.6963  0.1296
14494TIP3    H264898   5.306   4.448   2.191 -0.9339  0.3326 -1.3271
14495TIP3   OH264899   3.103   6.227   5.772  0.2830 -0.1596  0.1611
14495TIP3    H164900   3.157   6.148   5.767  1.1950  0.5292 -1.4084
14495TIP3    H264901   3.101   6.247   5.866  1.4942 -1.0565  0.4134
14496TIP3   OH264902   4.483   0.336  17.091  0.4108 -0.1915  0.2869
14496TIP3    H164903   4.441   0.288  17.019  1.2582 -1.2815  0.4986
14496TIP3    H264904   4.414   0.394  17.125 -1.0130 -2.1149  0.8061
14497TIP3   OH264905   5.663   4.401   4.510 -0.0492 -0.4237  0.1132
14497TIP3    H164906   5.651   4.406   4.415  0.8412  0.0563  0.0201
14497TIP3    H264907   5.729   4.467   4.530 -1.8826  1.1089  1.3870
14498TIP3   OH264908   3.955   1.989   5.558  0.2851  0.0510 -0.8572
14498TIP3    H164909   3.898   1.956   5.488  0.7503 -0.3373 -1.0614
14498TIP3    H264910   3.895   2.021   5.625 -0.1907 -0.8990 -0.8025
14499TIP3   OH264911   4.238   0.616  16.672 -0.3421  0.1219 -0.7866
14499TIP3    H164912   4.291   0.599  16.594 -0.7780 -2.1339 -0.6479
14499TIP3    H264913   4.149   0.625  16.638 -0.3971  0.0886 -0.6489
14500TIP3   OH264914   2.017   6.451  16.220  0.5439  0.1702 -0.4185
14500TIP3    H164915   2.099   6.498  16.232  0.3962  0.7109 -1.4637
14500TIP3    H264916   2.027   6.404  16.138  0.1025 -0.4041 -0.1510
14501TIP3   OH264917   6.132   5.031  11.133  0.5195  0.4363 -0.4192
14501TIP3    H164918   6.140   5.113  11.083 -0.2009  0.5126 -0.4170
14501TIP3    H264919   6.195   5.041  11.204  1.7387  0.2283 -1.4272
14502TIP3   OH264920   4.006   0.375   4.461 -0.3714  0.4135 -0.0215
14502TIP3    H164921   3.964   0.315   4.522 -0.3273  2.6696  2.4091
14502TIP3    H264922   4.068   0.424   4.515  2.5897 -0.0707 -2.6893
14503TIP3   OH264923   1.173   1.279  15.330 -0.0150  0.4934  0.2292
14503TIP3    H164924   1.244   1.335  15.360  1.9820 -1.8436  0.1511
14503TIP3    H264925   1.108   1.282  15.401  1.4357  0.5361  1.6063
14504TIP3   OH264926   3.152   4.201   1.177 -0.1401 -0.3206 -0.0975
14504TIP3    H164927   3.126   4.292   1.186 -2.0588 -0.9333  1.1560
14504TIP3    H264928   3.213   4.200   1.104 -1.3002  1.7320 -1.1578
14505TIP3   OH264929   1.200   6.669  13.877 -0.0683 -0.4385 -0.4849
14505TIP3    H164930   1.182   6.685  13.969  1.9893 -1.6633  0.1857
14505TIP3    H264931   1.270   6.730  13.855 -0.2904 -0.4137 -1.1503
14506TIP3   OH264932   6.392   5.203  11.531  0.7918  0.0176 -0.5865
14506TIP3    H164933   6.469   5.158  11.497  0.6953 -0.8968  0.3738
14506TIP3    H264934   6.406   5.208  11.625 -0.3118 -0.1524 -0.4033
14507TIP3   OH264935   4.263   1.657  16.171  0.1620  0.2932  0.3210
14507TIP3    H164936   4.296   1.743  16.199 -0.5611  0.3721  0.9806
14507TIP3    H264937   4.235   1.615  16.253  4.1316 -2.2423  0.6639
14508TIP3   OH264938   3.506   1.758   2.122  0.2880 -0.0301 -0.1221
14508TIP3    H164939   3.455   1.699   2.066  0.2869 -0.7896  0.6620
14508TIP3    H264940   3.578   1.704   2.154  0.7168  0.6128  0.0119
14509TIP3   OH264941   4.307   4.479  15.894 -0.3960  0.1352  0.0267
14509TIP3    H164942   4.388   4.449  15.853 -0.2732  0.6403 -0.1004
14509TIP3    H264943   4.280   4.555  15.842 -0.3801  0.6213  0.7234
14510TIP3   OH264944   2.679   3.529  13.695 -0.1659  0.1034 -0.4162
14510TIP3    H164945   2.729   3.496  13.770 -1.9982 -0.4625  0.6224
14510TIP3    H264946   2.625   3.599  13.732 -1.9910 -0.9883 -0.8978
14511TIP3   OH264947   1.680   6.258   4.483 -0.1378  0.1029 -0.2211
14511TIP3    H164948   1.745   6.188   4.495 -0.4201 -0.2424 -0.6358
14511TIP3    H264949   1.707   6.327   4.542 -0.2035 -0.6108  0.6732
14512TIP3   OH264950   3.273   4.662   0.914 -0.2768 -0.1149 -0.0268
14512TIP3    H164951   3.226   4.616   0.983  1.2325 -0.9051  0.5217
14512TIP3    H264952   3.301   4.744   0.954 -1.4376  0.5036 -0.4541
14513TIP3   OH264953   6.499   1.842  11.441  0.0912 -0.4072 -0.5124
14513TIP3    H164954   6.561   1.826  11.512  0.4791  1.4845 -0.3688
14513TIP3    H264955   6.491   1.938  11.438 -4.2418 -0.5373  0.6893
14514TIP3   OH264956   5.870   1.678  16.857 -0.0459 -0.5699 -0.6108
14514TIP3    H164957   5.850   1.645  16.769 -0.9051 -0.9539 -0.2914
14514TIP3    H264958   5.828   1.615  16.916  0.6453 -0.4001  0.0804
14515TIP3   OH264959   4.585   4.623   0.874 -0.2825 -0.3340  0.0447
14515TIP3    H164960   4.651   4.691   0.887 -0.1806 -0.2633 -0.8132
14515TIP3    H264961   4.503   4.663   0.901 -0.1457 -0.0453  0.0327
14516TIP3   OH264962   0.482   3.554  17.036 -0.0512 -0.4799 -0.2673
14516TIP3    H164963   0.401   3.504  17.037 -0.1322 -0.6086 -3.2971
14516TIP3    H264964   0.551   3.489  17.050 -0.3201 -0.9323 -1.0029
14517TIP3   OH264965   5.442   4.074  11.333  0.0017 -0.0415 -0.0205
14517TIP3    H164966   5.459   3.993  11.286 -1.1173 -0.0834 -0.3904
14517TIP3    H264967   5.443   4.142  11.265 -2.6628 -0.2297 -0.3603
14518TIP3   OH264968   0.674   3.901  13.488 -0.4289 -0.0971 -0.3663
14518TIP3    H164969   0.704   3.849  13.562 -1.5094  1.0507  0.9054
14518TIP3    H264970   0.652   3.836  13.421 -2.4271 -1.3699  1.4138
14519TIP3   OH264971   1.400   1.651   4.081 -0.1356 -0.5479  0.0916
14519TIP3    H164972   1.402   1.693   3.995 -1.6253  0.2741  0.4231
14519TIP3    H264973   1.437   1.717   4.140 -3.1971  0.7310  0.7392
14520TIP3   OH264974   1.633   3.513   2.336 -0.0041  0.0745  0.1318
14520TIP3    H164975   1.727   3.528   2.328 -0.0065  0.6353  1.0199
14520TIP3    H264976   1.623   3.465   2.418 -0.6361  1.6848  1.0419
14521TIP3   OH264977   3.893   3.010  11.845  0.1590  0.0658  0.2408
14521TIP3    H164978   3.809   3.038  11.809  0.1777  0.7540  0.7073
14521TIP3    H264979   3.958   3.061  11.797  0.2512  0.1692  0.4725
14522TIP3   OH264980   0.853   3.804   5.121 -0.1753  0.9328 -0.2978
14522TIP3    H164981   0.804   3.861   5.062  1.6134  1.9355 -0.8573
14522TIP3    H264982   0.861   3.854   5.202  1.4724  1.5676 -0.8180
14523TIP3   OH264983   6.177   5.934  12.469  0.0713  0.9498  0.1021
14523TIP3    H164984   6.208   5.846  12.487 -0.9949  1.1509  3.8383
14523TIP3    H264985   6.119   5.925  12.394  1.0518 -1.2483 -0.4583
14524TIP3   OH264986   5.298   4.862   3.416  0.6285 -0.1760  0.2625
14524TIP3    H164987   5.275   4.789   3.474 -1.0384  1.0274  1.1959
14524TIP3    H264988   5.358   4.824   3.352  0.3038 -2.2012  1.0940
14525TIP3   OH264989   0.943   2.164   3.195  0.2500  0.8559 -0.1812
14525TIP3    H164990   0.936   2.223   3.119 -0.4228 -0.4212 -1.1448
14525TIP3    H264991   0.975   2.082   3.158  0.2965  0.3302  1.0022
14526TIP3   OH264992   3.231   0.391   5.087  0.1363 -0.6624  0.1056
14526TIP3    H164993   3.308   0.448   5.081  0.2135 -0.7780 -0.0281
14526TIP3    H264994   3.220   0.357   4.998 -0.2230 -0.4482  0.0677
14527TIP3   OH264995   3.896   3.545  14.405 -0.2142 -0.4475 -0.1739
14527TIP3    H164996   3.867   3.636  14.413 -0.2327 -0.5093  0.5727
14527TIP3    H264997   3.903   3.529  14.311 -0.4944  0.2357 -0.3100
14528TIP3   OH264998   1.167   1.637   4.999 -0.0225 -0.6789  0.8163
14528TIP3    H164999   1.079   1.660   4.969 -0.1053 -1.0347  0.7786
14528TIP3    H265000   1.156   1.615   5.091  0.2476  0.4971  1.1452
14529TIP3   OH265001   3.661   1.553   5.460 -0.1918 -0.5007 -0.0187
14529TIP3    H165002   3.586   1.495   5.448 -0.9610  0.9497 -3.0994
14529TIP3    H265003   3.624   1.629   5.505 -0.1547 -0.5299  0.0622
14530TIP3   OH265004   2.424   4.321   0.842 -0.3349  0.4172 -0.1756
14530TIP3    H165005   2.399   4.274   0.922 -1.6046 -0.4140 -1.0124
14530TIP3    H265006   2.514   4.350   0.858 -0.1490 -0.7488  1.0898
14531TIP3   OH265007   5.390   3.313  13.411  0.2275 -0.0969  1.0548
14531TIP3    H165008   5.332   3.378  13.372 -0.2181  0.3597  2.4200
14531TIP3    H265009   5.378   3.234  13.358 -1.1126  0.2061  0.8897
14532TIP3   OH265010   4.678   2.947   3.467  0.0523  0.2798 -0.0141
14532TIP3    H165011   4.640   3.028   3.500  0.2556  0.3232  0.1126
14532TIP3    H265012   4.654   2.881   3.532  1.8405  0.6612  1.0956
14533TIP3   OH265013   1.963   1.040   2.492  0.3782 -0.1160 -0.1523
14533TIP3    H165014   1.993   1.108   2.552  3.5561  0.2477 -1.9327
14533TIP3    H265015   1.887   1.079   2.447  0.6873  1.3223  0.5171
14534TIP3   OH265016   0.409   0.538  16.028 -0.5024 -0.4393  0.3723
14534TIP3    H165017   0.469   0.536  15.953 -0.2485  2.8693  0.3362
14534TIP3    H265018   0.456   0.589  16.095 -1.3289 -2.0472  2.2716
14535TIP3   OH265019   2.289   2.231  15.182 -0.0788  0.2682 -0.3908
14535TIP3    H165020   2.198   2.214  15.206 -0.2838 -0.5249 -1.5910
14535TIP3    H265021   2.339   2.163  15.226 -0.3354 -0.5903 -1.3865
14536TIP3   OH265022   4.741   1.208   0.400 -0.2759 -0.2365  0.1418
14536TIP3    H165023   4.748   1.146   0.328 -0.1873  1.0471 -1.0092
14536TIP3    H265024   4.648   1.232   0.403 -0.3444 -0.5602  0.7035
14537TIP3   OH265025   6.423   3.083   3.941 -0.2480 -0.3059  0.0480
14537TIP3    H165026   6.493   3.071   4.005 -0.0515 -1.0341 -0.2820
14537TIP3    H265027   6.344   3.099   3.993  0.3222  1.5589  0.4093
14538TIP3   OH265028   3.761   2.023  13.086 -0.0554  0.3821 -0.0125
14538TIP3    H165029   3.734   1.932  13.084  1.4179 -0.0816 -1.5587
14538TIP3    H265030   3.685   2.072  13.053 -0.5427 -0.3685 -0.0178
14539TIP3   OH265031   1.177   3.361  13.298  0.4073 -0.2269 -0.2317
14539TIP3    H165032   1.202   3.362  13.205 -0.8588  0.1672 -0.5787
14539TIP3    H265033   1.082   3.352  13.297  0.3788 -0.1230  1.0325
14540TIP3   OH265034   2.604   2.345  12.569  0.0629 -0.2780 -0.0099
14540TIP3    H165035   2.511   2.368  12.572  0.1634  0.1299  0.0315
14540TIP3    H265036   2.626   2.348  12.476 -0.1002 -0.9398 -0.0766
14541TIP3   OH265037   0.884   6.603   2.848 -0.2268 -0.1624 -0.0297
14541TIP3    H165038   0.901   6.608   2.942 -1.1057 -1.9795  0.2531
14541TIP3    H265039   0.942   6.670   2.810 -0.5646  1.2880  1.8595
14542TIP3   OH265040   5.441   5.787   5.399  0.4557  0.3460  0.2235
14542TIP3    H165041   5.435   5.732   5.478  1.0207 -0.2117 -0.1109
14542TIP3    H265042   5.451   5.876   5.433 -0.9094  0.3150  0.7753
14543TIP3   OH265043   1.178   1.042   6.025  0.3974  0.4533 -0.4628
14543TIP3    H165044   1.150   0.992   5.948  0.5508  0.1741 -0.3392
14543TIP3    H265045   1.253   1.092   5.994  0.4918  0.3013 -0.4817
14544TIP3   OH265046   2.261   3.459  12.483  0.2202 -0.5389 -0.0194
14544TIP3    H165047   2.339   3.515  12.480 -0.0953  0.0738  1.7951
14544TIP3    H265048   2.194   3.508  12.435  0.4574 -0.2156 -0.0205
14545TIP3   OH265049   5.002   2.235   0.349 -0.2651  0.3206  1.0679
14545TIP3    H165050   4.952   2.205   0.273 -0.1944  0.7394  0.8525
14545TIP3    H265051   4.990   2.330   0.350 -0.9858  0.2297  2.1035
14546TIP3   OH265052   5.344   3.325  16.271  0.3170 -0.4818  0.4115
14546TIP3    H165053   5.369   3.409  16.233 -0.7811  0.0391  0.8009
14546TIP3    H265054   5.251   3.335  16.292  0.8485 -0.7504  3.2031
14547TIP3   OH265055   0.671   4.344  12.882  0.0894  0.3141 -0.3040
14547TIP3    H165056   0.747   4.382  12.927  0.9357 -0.4347 -1.0439
14547TIP3    H265057   0.611   4.417  12.870  0.8617  1.0105 -0.0184
14548TIP3   OH265058   4.027   2.972   2.766  0.3464 -0.3036  0.3523
14548TIP3    H165059   4.050   2.960   2.858 -0.2261  0.5710  0.6242
14548TIP3    H265060   4.073   2.902   2.721  0.5544 -0.8097  1.3142
14549TIP3   OH265061   3.175   3.912  14.711  0.1687  0.2918 -0.3366
14549TIP3    H165062   3.127   3.880  14.787 -1.7712  1.6999 -0.8910
14549TIP3    H265063   3.122   3.887  14.636  1.5684 -0.2416 -1.1895
14550TIP3   OH265064   4.602   0.038  13.568 -0.5519  0.0185  0.0457
14550TIP3    H165065   4.515   0.011  13.540 -0.8070 -0.7417  1.4618
14550TIP3    H265066   4.657  -0.039  13.554  0.1470  0.7831 -1.7372
14551TIP3   OH265067   5.619   4.372  14.557  0.9759 -0.5199 -0.1646
14551TIP3    H165068   5.546   4.414  14.512  1.0683  0.2449  0.3792
14551TIP3    H265069   5.676   4.342  14.487  0.5033 -0.4665 -0.5792
14552TIP3   OH265070   4.186   6.208   0.341 -0.0562  0.5926 -0.4651
14552TIP3    H165071   4.246   6.256   0.398  0.1556 -0.5299  0.2750
14552TIP3    H265072   4.124   6.275   0.310  0.7666  1.5101 -0.1892
14553TIP3   OH265073   2.492   3.037  11.537  0.8455 -0.2689  0.0794
14553TIP3    H165074   2.443   3.119  11.539  1.0816 -0.1284  1.8972
14553TIP3    H265075   2.551   3.046  11.462 -0.5844  0.3309 -1.0099
14554TIP3   OH265076   0.414   2.648   2.928  0.2438  0.2021  0.2922
14554TIP3    H165077   0.344   2.595   2.890 -0.2792 -0.8143  2.5147
14554TIP3    H265078   0.374   2.734   2.940 -0.1207  0.0644  0.1134
14555TIP3   OH265079   6.389   2.394   2.988 -0.5326 -0.5422 -0.0567
14555TIP3    H165080   6.461   2.432   2.939 -0.2777 -0.4259  0.4037
14555TIP3    H265081   6.406   2.418   3.079 -1.5423  0.1175 -0.0216
14556TIP3   OH265082   6.224   5.673  12.001 -0.5710 -0.2823 -0.3108
14556TIP3    H165083   6.291   5.709  11.942  0.9362 -2.4906 -0.0837
14556TIP3    H265084   6.169   5.618  11.944  0.4813 -1.8809  0.1268
14557TIP3   OH265085   2.455   3.667   5.436  1.2400  0.0796  0.5332
14557TIP3    H165086   2.460   3.574   5.412  0.0748 -0.0609  0.8061
14557TIP3    H265087   2.510   3.711   5.371 -1.7207 -0.2984 -2.4626
14558TIP3   OH265088   0.962   6.175  13.077 -0.0337 -0.9579 -0.4877
14558TIP3    H165089   1.039   6.124  13.051  0.3534 -1.7030  1.8997
14558TIP3    H265090   0.948   6.152  13.169  0.3136  3.4671  0.8914
14559TIP3   OH265091   3.530   5.017   6.804 -0.5618 -0.0349 -0.3493
14559TIP3    H165092   3.466   5.054   6.744 -0.8928  0.3713  0.2354
14559TIP3    H265093   3.508   5.055   6.889  0.2633 -0.1335 -0.0772
14560TIP3   OH265094   3.625   0.529  17.244  0.0143 -0.3829  0.6417
14560TIP3    H165095   3.565   0.459  17.271 -0.0318 -0.3454  0.6355
14560TIP3    H265096   3.708   0.483  17.227  0.2881 -0.2832  1.6744
14561TIP3   OH265097   6.742   5.909  15.961  0.8400 -0.0974 -0.7336
14561TIP3    H165098   6.726   5.821  15.995 -1.2207  0.1863 -0.8219
14561TIP3    H265099   6.806   5.896  15.891 -0.6095 -1.8144 -1.8492
14562TIP3   OH265100   1.837   3.961  11.202  0.4348  0.3700 -0.5191
14562TIP3    H165101   1.904   4.015  11.161  0.9150  0.0401 -0.1803
14562TIP3    H265102   1.788   4.021  11.257 -0.7800  0.9991 -2.2227
14563TIP3   OH265103   6.214   1.114   5.179 -0.4295 -0.1250 -0.2425
14563TIP3    H165104   6.293   1.105   5.126 -0.2537 -0.9255  0.1376
14563TIP3    H265105   6.149   1.059   5.135 -0.6767  0.2456 -0.3497
14564TIP3   OH265106   2.140   4.048   3.137 -0.0484 -0.0234  0.6817
14564TIP3    H165107   2.171   4.139   3.130  1.5059 -0.5253  0.7160
14564TIP3    H265108   2.061   4.046   3.083 -0.7506  1.6197  1.5872
14565TIP3   OH265109   6.458   6.453   4.869  0.8048  0.3265 -0.1872
14565TIP3    H165110   6.519   6.494   4.930  0.7367  0.0063  0.1045
14565TIP3    H265111   6.416   6.526   4.824  0.3974  0.5905  0.6060
14566TIP3   OH265112   2.879   2.303   3.731 -0.4783 -0.5605  0.2280
14566TIP3    H165113   2.933   2.341   3.662 -0.8596 -1.2243 -0.4459
14566TIP3    H265114   2.859   2.377   3.789 -2.8061  0.7705 -2.0560
14567TIP3   OH265115   4.151   5.893   3.250  0.4434  0.0144  0.3883
14567TIP3    H165116   4.109   5.977   3.234 -2.9222 -1.9288 -1.9637
14567TIP3    H265117   4.240   5.903   3.216 -0.7862  1.8017 -2.6009
14568TIP3   OH265118   1.509   6.191   5.352 -0.7184  0.2515 -0.2297
14568TIP3    H165119   1.517   6.145   5.269  2.6968  0.1640  0.0285
14568TIP3    H265120   1.480   6.123   5.414 -0.1576 -0.4711 -0.7432
14569TIP3   OH265121   5.417   5.964   2.619 -0.5208 -0.3786  0.5225
14569TIP3    H165122   5.456   5.877   2.620  2.5093  0.8442 -0.2877
14569TIP3    H265123   5.478   6.019   2.669 -1.6688  1.5230 -0.0372
14570TIP3   OH265124   2.205   2.371   3.095 -0.2222 -0.1897  0.4041
14570TIP3    H165125   2.190   2.398   3.005 -1.5530 -0.1622  0.6083
14570TIP3    H265126   2.300   2.377   3.107 -0.2074  1.7980 -0.3620
14571TIP3   OH265127   1.558   0.247   2.806  0.2054 -0.2769 -0.4514
14571TIP3    H165128   1.650   0.223   2.822  0.9432  2.3799 -0.2397
14571TIP3    H265129   1.560   0.296   2.724 -1.1780 -0.7492 -0.7910
14572TIP3   OH265130   5.791   0.589  15.857 -0.3571 -0.0955  0.1510
14572TIP3    H165131   5.736   0.666  15.843 -1.2470 -0.7754 -0.2284
14572TIP3    H265132   5.877   0.624  15.879 -1.1309  1.0110  1.5717
14573TIP3   OH265133   3.934   3.805  10.644  0.0909  0.1539  0.2739
14573TIP3    H165134   4.013   3.815  10.591 -0.3299  0.1458 -0.3721
14573TIP3    H265135   3.965   3.808  10.735  0.9967 -1.1469  0.0442
14574TIP3   OH265136   1.991   3.000  12.902 -0.1549  1.0653  0.3561
14574TIP3    H165137   1.952   2.940  12.838 -0.8676  0.3632  1.4188
14574TIP3    H265138   1.942   2.984  12.982 -0.1048  2.8161  0.7674
14575TIP3   OH265139   5.339   1.778  15.330 -0.5878 -0.3664 -0.2859
14575TIP3    H165140   5.359   1.869  15.355  0.0471 -1.2582  2.9101
14575TIP3    H265141   5.362   1.774  15.237  0.7323  2.3831 -0.2033
14576TIP3   OH265142   0.432   0.451   5.392 -0.1299 -0.1448 -0.0638
14576TIP3    H165143   0.501   0.388   5.377  1.4317  1.0656  1.5265
14576TIP3    H265144   0.467   0.534   5.361 -1.5817  0.2155 -0.8426
14577TIP3   OH265145   1.882   2.853   2.227  0.1085 -0.4397 -0.5783
14577TIP3    H165146   1.821   2.784   2.200  0.7998 -1.3083  0.0198
14577TIP3    H265147   1.844   2.888   2.307 -0.5150  0.2491 -1.1626
14578TIP3   OH265148   6.231   3.739   2.802  0.5831 -0.4084 -0.0011
14578TIP3    H165149   6.310   3.707   2.845  0.5110 -0.1759  0.3087
14578TIP3    H265150   6.161   3.721   2.864  0.2523 -1.4038 -0.6287
14579TIP3   OH265151   4.459   0.207   3.134  0.2929 -0.2934  0.0934
14579TIP3    H165152   4.511   0.239   3.060  0.9537 -0.3952  0.5083
14579TIP3    H265153   4.520   0.155   3.185  0.6930  2.1606  2.3236
14580TIP3   OH265154   4.068   1.094   0.780 -0.0940 -0.2024 -0.1430
14580TIP3    H165155   4.135   1.030   0.757 -1.4434 -1.7475 -0.0018
14580TIP3    H265156   4.061   1.150   0.703 -0.3206 -1.5464 -1.1390
14581TIP3   OH265157   2.177   5.498   1.765 -0.0590 -0.3168 -0.5330
14581TIP3    H165158   2.156   5.408   1.787 -1.3213  0.3051  0.9287
14581TIP3    H265159   2.234   5.528   1.835  1.2030 -0.2539 -1.5418
14582TIP3   OH265160   4.794   6.605   0.396  0.1070 -0.3021 -0.0115
14582TIP3    H165161   4.763   6.688   0.360  1.0158 -0.1981 -0.5941
14582TIP3    H265162   4.716   6.563   0.431 -0.0673  1.7424  2.2448
14583TIP3   OH265163   3.349   0.536  15.603  0.6349  0.2627 -0.4015
14583TIP3    H165164   3.402   0.544  15.683 -0.3293 -0.7273  0.3611
14583TIP3    H265165   3.279   0.601  15.614  0.2615 -0.1656 -0.2449
14584TIP3   OH265166   0.219   0.626  17.355 -0.2875  0.0617  0.7572
14584TIP3    H165167   0.160   0.668  17.416  1.0920  0.3681  1.9295
14584TIP3    H265168   0.188   0.536  17.349 -2.7395  0.9095 -1.1056
14585TIP3   OH265169   3.852   0.114   0.773 -0.7344  0.0913  0.0909
14585TIP3    H165170   3.934   0.117   0.821 -0.0897  0.1185 -0.9703
14585TIP3    H265171   3.784   0.123   0.840  0.1213  0.0459  0.9839
14586TIP3   OH265172   2.298   6.551  14.611 -0.2297  0.3877  0.0849
14586TIP3    H165173   2.282   6.538  14.518 -0.4829 -3.0103  0.4689
14586TIP3    H265174   2.392   6.563  14.619 -0.2369  0.9128 -0.6195
14587TIP3   OH265175   4.161   0.251   0.526  0.2135 -0.3950 -0.4509
14587TIP3    H165176   4.177   0.314   0.456  0.9687  0.4065  0.4141
14587TIP3    H265177   4.084   0.202   0.497 -0.5281  1.0685 -1.0372
14588TIP3   OH265178   2.008   4.372  14.045  0.2769 -0.0215 -0.3012
14588TIP3    H165179   1.931   4.395  14.097  1.5152 -0.8196  2.0390
14588TIP3    H265180   2.033   4.454  14.002 -1.9576  0.1962 -1.2918
14589TIP3   OH265181   0.575   0.732  12.276  0.4847  0.1570  0.1996
14589TIP3    H165182   0.533   0.808  12.237  0.0000 -0.6724 -0.9889
14589TIP3    H265183   0.506   0.665  12.277  1.2016 -0.5987  0.1477
14590TIP3   OH265184   4.378   6.364  11.258 -0.2032  0.2405 -0.0266
14590TIP3    H165185   4.301   6.322  11.219  0.5337 -0.8571 -0.3534
14590TIP3    H265186   4.449   6.301  11.244  0.7623  1.2393  0.2516
14591TIP3   OH265187   1.588   2.823  14.183  0.1911  0.1755  0.2643
14591TIP3    H165188   1.601   2.732  14.157  0.9477 -0.0239  1.2773
14591TIP3    H265189   1.609   2.874  14.105  0.5491 -0.4776 -0.0713
14592TIP3   OH265190   3.790   2.195   1.257 -0.2869 -0.0781 -0.5400
14592TIP3    H165191   3.708   2.145   1.261 -0.2873 -0.1019 -0.8608
14592TIP3    H265192   3.762   2.286   1.253 -0.2877  0.1412  2.2840
14593TIP3   OH265193   0.282   6.070   4.785  0.2467  0.2421  0.7366
14593TIP3    H165194   0.247   6.018   4.858  0.8586  1.8420  2.2161
14593TIP3    H265195   0.376   6.070   4.798  0.3125  1.0907  0.3235
14594TIP3   OH265196   2.597   3.052  13.974 -0.6235 -0.1363  0.8055
14594TIP3    H165197   2.662   3.065  14.042  0.5152  1.3703 -0.5053
14594TIP3    H265198   2.536   3.125  13.984 -1.0883 -0.5334  0.9059
14595TIP3   OH265199   6.289   3.381   5.013  0.6009  0.0302  0.8359
14595TIP3    H165200   6.254   3.293   4.998  0.6094  0.0453  0.7263
14595TIP3    H265201   6.363   3.388   4.953  0.2503  0.3223  0.4305
14596TIP3   OH265202   6.624   2.789   1.664  0.2375  0.5273 -0.0906
14596TIP3    H165203   6.655   2.727   1.729  1.9023  0.1930 -1.1468
14596TIP3    H265204   6.584   2.735   1.596  0.2775  0.7255 -0.2724
14597TIP3   OH265205   5.132   0.500   2.361  0.3382  0.3707  0.0195
14597TIP3    H165206   5.180   0.537   2.287  0.1506  0.4421 -0.0652
14597TIP3    H265207   5.111   0.576   2.416  1.4447  0.2019  0.7115
14598TIP3   OH265208   3.411   3.991  11.415 -0.0444  0.0093 -0.2826
14598TIP3    H165209   3.432   3.977  11.507  0.0370  0.6678 -0.1945
14598TIP3    H265210   3.322   4.026  11.415  0.7297  2.1089 -0.2749
14599TIP3   OH265211   1.945   3.929   2.225  0.3568  0.6818  0.0398
14599TIP3    H165212   1.968   3.866   2.156 -0.5929  0.0439  0.2804
14599TIP3    H265213   1.989   3.895   2.303  0.9287  1.0600 -0.1165
14600TIP3   OH265214   1.460   6.478  17.244 -0.1366  0.0125  0.6122
14600TIP3    H165215   1.416   6.430  17.174  0.0077 -0.2973  0.7324
14600TIP3    H265216   1.518   6.413  17.285  0.1561  0.3214  0.6930
14601TIP3   OH265217   4.938   0.333  12.084  0.4255  0.2683  0.5197
14601TIP3    H165218   4.882   0.341  12.161 -0.1940  0.1869  0.0878
14601TIP3    H265219   4.994   0.258  12.103  1.0387  0.9300  1.3553
14602TIP3   OH265220   5.313   5.795   4.088 -0.1889 -0.2234  0.4731
14602TIP3    H165221   5.285   5.721   4.034 -2.3283  0.7820  0.0894
14602TIP3    H265222   5.267   5.871   4.050  1.9249  1.3413  0.8307
14603TIP3   OH265223   1.876   2.473   3.063 -0.2501 -0.5230  0.2386
14603TIP3    H165224   1.849   2.509   2.978  1.0676 -0.9604 -0.3978
14603TIP3    H265225   1.799   2.427   3.095 -0.7121 -0.5387 -0.8414
14604TIP3   OH265226   4.870   0.925  15.724  0.3039 -0.1702  0.3440
14604TIP3    H165227   4.847   0.868  15.651 -0.1323 -0.1662  0.4717
14604TIP3    H265228   4.912   1.001  15.684 -2.0899  0.9929 -0.1670
14605TIP3   OH265229   3.203   1.758   0.466  0.0927  0.1498 -0.1931
14605TIP3    H165230   3.168   1.803   0.543 -1.7978 -0.7161 -0.4940
14605TIP3    H265231   3.182   1.816   0.393  1.1951  0.6050 -0.1660
14606TIP3   OH265232   4.744   6.326   2.294 -0.7130 -0.7652 -0.0272
14606TIP3    H165233   4.655   6.362   2.303 -1.1939 -1.8008 -0.4200
14606TIP3    H265234   4.742   6.280   2.210  0.9376  1.1995 -1.2281
14607TIP3   OH265235   4.430   2.341   2.314  0.4410  0.0893  0.0635
14607TIP3    H165236   4.388   2.419   2.277  0.7994 -0.1997 -0.9884
14607TIP3    H265237   4.496   2.377   2.375  0.7756  0.6273 -0.5997
14608TIP3   OH265238   4.237   3.264   4.351  0.3425  0.4829  0.1091
14608TIP3    H165239   4.259   3.206   4.424  3.0487  1.0081 -0.1918
14608TIP3    H265240   4.276   3.348   4.375  1.9530  0.4723 -2.2022
14609TIP3   OH265241   0.435   1.040  15.199 -0.4455  0.5661 -0.6867
14609TIP3    H165242   0.482   1.026  15.281 -0.7682  0.4990 -0.5148
14609TIP3    H265243   0.490   0.997  15.133  0.0935  1.0815 -0.5918
14610TIP3   OH265244   3.291   0.319  15.044 -0.8162 -0.1277 -0.2291
14610TIP3    H165245   3.312   0.336  14.952 -1.8115 -1.7792 -0.8082
14610TIP3    H265246   3.266   0.227  15.046 -3.1296  0.4641  1.2662
14611TIP3   OH265247   5.788   0.479  11.314 -0.6304  0.5999 -0.1301
14611TIP3    H165248   5.724   0.503  11.247 -3.3074 -1.9431  1.3059
14611TIP3    H265249   5.791   0.384  11.313  1.1716  0.5568  1.6768
14612TIP3   OH265250   6.297   0.835   3.894  0.3889  0.5192  0.8571
14612TIP3    H165251   6.365   0.801   3.953  0.2867 -0.7109  0.2909
14612TIP3    H265252   6.268   0.917   3.936  2.2060  1.0858  1.1150
14613TIP3   OH265253   1.074   3.660  13.860  0.0864 -0.2953  0.1661
14613TIP3    H165254   1.028   3.605  13.923 -0.4861 -0.0955 -0.0657
14613TIP3    H265255   1.149   3.608  13.833  0.4744 -0.2823  1.1873
14614TIP3   OH265256   2.230   1.047   4.011 -0.0797 -0.0045 -0.1290
14614TIP3    H165257   2.290   1.102   4.061 -0.2951 -0.6804  0.9050
14614TIP3    H265258   2.212   1.098   3.931  2.3987 -0.0949 -0.8256
14615TIP3   OH265259   2.260   5.293   4.053  0.7492 -0.0464  0.5277
14615TIP3    H165260   2.335   5.253   4.098  1.8852  0.1414 -1.0687
14615TIP3    H265261   2.268   5.262   3.963 -0.9781  0.1877  0.2655
14616TIP3   OH265262   4.582   0.223   2.819 -0.2145  0.6585 -0.8853
14616TIP3    H165263   4.501   0.191   2.779 -1.2067 -0.2709  1.7066
14616TIP3    H265264   4.574   0.318   2.817 -2.0587  0.5827  0.5475
14617TIP3   OH265265   1.052   2.283   4.474  0.2143 -0.0894 -0.3122
14617TIP3    H165266   1.045   2.242   4.561 -1.3445 -1.9521 -1.2196
14617TIP3    H265267   1.141   2.316   4.470  0.6609 -0.9159  1.5944
14618TIP3   OH265268   3.652   2.822  15.813 -0.1879  0.5703 -0.4396
14618TIP3    H165269   3.685   2.823  15.903  1.0751 -1.4157 -0.8233
14618TIP3    H265270   3.631   2.730  15.796 -0.7447  0.9661 -2.0670
14619TIP3   OH265271   6.755   3.532  16.998  0.4976  0.2539 -0.2936
14619TIP3    H165272   6.670   3.487  17.007  1.2845 -1.1092  0.7857
14619TIP3    H265273   6.748   3.579  16.915 -1.3519  0.2618 -0.1795
14620TIP3   OH265274   0.008   1.436  15.424 -0.2453 -0.3308  0.0587
14620TIP3    H165275  -0.021   1.371  15.361 -0.7081 -2.7013  2.5279
14620TIP3    H265276   0.103   1.441  15.412 -0.4099 -0.1057 -1.3011
14621TIP3   OH265277   1.877   4.417  11.874 -0.0342 -0.0489  0.2021
14621TIP3    H165278   1.956   4.471  11.879 -0.3515  0.3274  1.7506
14621TIP3    H265279   1.814   4.471  11.826  0.2067  0.2219  0.1885
14622TIP3   OH265280   5.750   2.971  17.173 -0.3304  0.2108 -0.4903
14622TIP3    H165281   5.772   3.057  17.136 -0.6048  0.2389 -0.5878
14622TIP3    H265282   5.780   2.975  17.264  0.3759  0.1349 -0.7123
14623TIP3   OH265283   5.042   1.278  16.567 -0.0109  0.1098 -0.1560
14623TIP3    H165284   5.054   1.296  16.474  1.3354 -0.6088 -0.1605
14623TIP3    H265285   5.129   1.292  16.605 -0.7449  1.2506  1.1548
14624TIP3   OH265286   3.417   2.401   0.549 -0.4033  0.0528  0.6150
14624TIP3    H165287   3.441   2.356   0.630  1.4740  0.7163  0.4666
14624TIP3    H265288   3.424   2.494   0.570  2.7113  0.2840 -0.9362
14625TIP3   OH265289   4.744   6.584   3.663 -0.2066 -0.5752 -0.1783
14625TIP3    H165290   4.839   6.597   3.669 -0.0694 -1.7592  0.8528
14625TIP3    H265291   4.720   6.551   3.750 -1.7385  0.6845 -0.0892
14626TIP3   OH265292   3.293   4.243   0.819  0.3747  0.4986 -0.0755
14626TIP3    H165293   3.197   4.246   0.824  0.4343  0.7644  1.1816
14626TIP3    H265294   3.311   4.181   0.748 -0.7273  1.8883 -1.6354
14627TIP3   OH265295   0.428   4.835   2.244  0.5265 -0.0513  0.1126
14627TIP3    H165296   0.467   4.764   2.193  0.7264 -0.4926  0.8696
14627TIP3    H265297   0.349   4.797   2.281 -0.0773  0.5241 -0.5427
14628TIP3   OH265298   3.203   5.293  12.967  0.9532 -0.4103 -0.7198
14628TIP3    H165299   3.159   5.370  13.002  0.9979  0.1418 -1.8134
14628TIP3    H265300   3.150   5.219  12.997 -3.5837  0.3379 -5.4599
14629TIP3   OH265301   1.657   5.176   5.331  0.1155  0.2558  0.1334
14629TIP3    H165302   1.659   5.142   5.242 -0.1065  0.2256  0.1378
14629TIP3    H265303   1.739   5.224   5.341 -0.7436  2.0384 -0.7816
14630TIP3   OH265304   6.565   4.773  12.276  0.0308  0.5165 -0.7872
14630TIP3    H165305   6.629   4.841  12.298 -0.3553 -0.1231  3.0546
14630TIP3    H265306   6.514   4.762  12.357 -0.0771 -4.1785 -1.2439
14631TIP3   OH265307   6.266   2.500  15.761  0.2202 -0.2857  0.0858
14631TIP3    H165308   6.333   2.492  15.694  1.0130  2.0959  0.4858
14631TIP3    H265309   6.202   2.562  15.724 -0.2668 -0.3355  0.8202
14632TIP3   OH265310   1.464   6.053   6.575  0.2087 -0.0803 -0.7130
14632TIP3    H165311   1.497   6.008   6.653 -1.1782  0.1791  0.0698
14632TIP3    H265312   1.399   5.994   6.539  0.5097  0.0118 -1.4095
14633TIP3   OH265313   0.392   4.207  11.312  0.3282 -0.4954 -0.4894
14633TIP3    H165314   0.473   4.223  11.361 -0.2672  0.4264  0.2187
14633TIP3    H265315   0.419   4.151  11.239  1.8986  1.1077 -1.1914
14634TIP3   OH265316   2.496   2.948  17.257  0.2169  0.0521 -0.8061
14634TIP3    H165317   2.516   2.867  17.305 -0.3391  0.4021  0.0301
14634TIP3    H265318   2.569   3.006  17.277  0.5838 -0.2152 -1.3554
14635TIP3   OH265319   0.827   3.889  16.786 -0.0536  0.2090 -0.0548
14635TIP3    H165320   0.779   3.868  16.866 -0.5618  1.3358 -0.0556
14635TIP3    H265321   0.882   3.812  16.771 -0.0790 -0.0924  1.2748
14636TIP3   OH265322   2.961   1.223  12.741 -0.4972 -0.0109  0.1490
14636TIP3    H165323   2.928   1.279  12.672 -0.5543 -1.0408 -0.6841
14636TIP3    H265324   2.960   1.135  12.703 -0.1197 -0.5345  1.3103
14637TIP3   OH265325   0.254   4.274   4.196  0.4208 -0.2202 -0.0042
14637TIP3    H165326   0.333   4.278   4.143 -0.3816 -0.8398 -1.2978
14637TIP3    H265327   0.188   4.234   4.139  0.0532 -2.9177  2.1170
14638TIP3   OH265328   5.328   6.759  12.328 -0.4232  0.3091 -0.6528
14638TIP3    H165329   5.365   6.825  12.268 -0.5507 -0.4266 -1.5677
14638TIP3    H265330   5.291   6.810  12.400  1.1247  1.1496 -0.4076
14639TIP3   OH265331   6.221   2.429  11.497 -0.3736 -0.3094 -0.1380
14639TIP3    H165332   6.227   2.523  11.516 -0.0965 -0.4165  0.3091
14639TIP3    H265333   6.128   2.415  11.476 -0.3123  0.1618 -0.7407
14640TIP3   OH265334   6.668   2.617  14.207  0.3804  0.1533 -0.8097
14640TIP3    H165335   6.676   2.708  14.179 -1.3866  0.0485 -1.8243
14640TIP3    H265336   6.687   2.566  14.128 -2.7330 -0.1991 -1.4563
14641TIP3   OH265337   3.675   5.451  13.613  0.9658 -0.1258 -0.7218
14641TIP3    H165338   3.625   5.444  13.694  1.3810  0.5770 -0.3904
14641TIP3    H265339   3.609   5.447  13.543  0.5983 -0.6370 -0.3525
14642TIP3   OH265340   1.998   0.406  15.427 -0.0704 -0.5942 -0.0055
14642TIP3    H165341   1.942   0.371  15.357 -2.3703  0.9261  0.9495
14642TIP3    H265342   2.069   0.450  15.380 -1.8587  0.8935 -1.5161
14643TIP3   OH265343   2.996   5.100   4.244 -0.0794 -0.2425  0.6938
14643TIP3    H165344   2.944   5.062   4.174 -0.1515 -0.4633  0.8672
14643TIP3    H265345   2.959   5.064   4.324  1.2223 -1.5572  0.7693
14644TIP3   OH265346   6.253   1.361   4.601  0.8201  0.2139 -0.2658
14644TIP3    H165347   6.278   1.417   4.528 -0.6666  0.2930 -0.7572
14644TIP3    H265348   6.238   1.423   4.673 -1.3707  0.5860 -0.9613
14645TIP3   OH265349   5.357   5.773  15.737  0.5602 -0.5687  0.3726
14645TIP3    H165350   5.438   5.723  15.748  0.6585 -0.2156  1.2993
14645TIP3    H265351   5.358   5.836  15.808  1.0225  1.6050 -1.4457
14646TIP3   OH265352   5.198   5.586  15.028  0.0050 -0.0937  0.4816
14646TIP3    H165353   5.116   5.635  15.029  0.9874  1.6511  0.4287
14646TIP3    H265354   5.239   5.611  14.945  1.3183  0.3909  1.2482
14647TIP3   OH265355   4.311   1.927  15.325 -0.1995 -0.3261 -0.1546
14647TIP3    H165356   4.377   1.944  15.258 -0.6976  0.5198 -0.4514
14647TIP3    H265357   4.324   1.997  15.389 -0.8547 -0.1025 -0.2582
14648TIP3   OH265358   4.397   3.219  14.599 -0.5993  0.0545 -0.8903
14648TIP3    H165359   4.452   3.276  14.545  0.0044 -1.7370 -2.2736
14648TIP3    H265360   4.421   3.130  14.572 -0.8943 -0.9251  1.7412
14649TIP3   OH265361   1.851   0.523   0.360 -0.3973 -0.1382  0.0786
14649TIP3    H165362   1.859   0.599   0.418 -2.1403 -0.3046  0.5843
14649TIP3    H265363   1.854   0.447   0.418 -0.1354 -0.3957 -0.2675
14650TIP3   OH265364   4.133   6.732  15.930 -0.1800  0.4271 -0.4308
14650TIP3    H165365   4.089   6.756  15.849  1.0094 -0.7939 -1.4962
14650TIP3    H265366   4.086   6.779  15.999 -2.6640 -0.2500 -1.5569
14651TIP3   OH265367   1.180   4.123  11.723  0.0112  0.1185 -0.4129
14651TIP3    H165368   1.159   4.217  11.718 -1.6967 -0.2587 -1.2336
14651TIP3    H265369   1.245   4.110  11.654 -0.8742  0.4664 -1.3525
14652TIP3   OH265370   0.698   2.691   3.277  0.2498 -0.0206  0.1023
14652TIP3    H165371   0.664   2.781   3.272 -1.2819 -0.5323  0.5728
14652TIP3    H265372   0.625   2.637   3.247  0.5710 -1.2105  1.3795
14653TIP3   OH265373   5.262   3.836  12.180  0.3352 -0.3547  0.4016
14653TIP3    H165374   5.344   3.801  12.214  0.8801  2.5651  2.4876
14653TIP3    H265375   5.289   3.915  12.132 -1.1927  0.1082  0.2701
14654TIP3   OH265376   5.593   0.475  16.008 -0.1487  0.0107 -0.1103
14654TIP3    H165377   5.654   0.543  15.977 -0.1353 -0.8274 -2.0816
14654TIP3    H265378   5.525   0.473  15.941  0.1655 -2.3106 -0.4200
14655TIP3   OH265379   1.707   0.186   5.340 -0.6797  0.1731  0.1209
14655TIP3    H165380   1.716   0.113   5.278 -0.2613  1.1436 -0.9795
14655TIP3    H265381   1.748   0.260   5.296  1.1143  0.5168  2.2256
14656TIP3   OH265382   2.733   4.618   2.026  0.5913  0.4042 -0.3366
14656TIP3    H165383   2.665   4.666   1.979  0.4881  0.6589  0.0643
14656TIP3    H265384   2.744   4.537   1.977 -1.0544 -0.3152  0.4094
14657TIP3   OH265385   3.691   3.104  11.682 -0.6248  0.2598  0.0885
14657TIP3    H165386   3.745   3.125  11.606 -1.0283  2.2609  0.3067
14657TIP3    H265387   3.611   3.155  11.670 -1.0845 -0.0993  1.4102
14658TIP3   OH265388   1.605   6.522   2.565 -0.8262  0.0184 -0.3096
14658TIP3    H165389   1.536   6.464   2.597 -1.2184 -0.7734 -2.4309
14658TIP3    H265390   1.568   6.610   2.572 -1.7811 -0.3325 -0.7007
14659TIP3   OH265391   0.598   2.304  13.881 -0.6457 -0.1152  0.2984
14659TIP3    H165392   0.570   2.326  13.970 -2.7270 -0.3037 -0.2365
14659TIP3    H265393   0.579   2.383  13.830 -2.5786 -1.0144 -0.5237
14660TIP3   OH265394   4.366   3.369   2.470 -0.4148  0.0554  0.2212
14660TIP3    H165395   4.318   3.441   2.511  2.0275  2.5295 -0.9319
14660TIP3    H265396   4.390   3.403   2.384  0.0130 -2.5669 -0.7588
14661TIP3   OH265397   4.895   2.901  12.958 -0.0333 -0.5518  0.2877
14661TIP3    H165398   4.871   2.942  12.875 -1.2083 -0.8355  0.4631
14661TIP3    H265399   4.982   2.864  12.943  0.7080  1.2741 -0.1159
14662TIP3   OH265400   3.098   0.419   2.072 -0.2542 -0.0320  0.4755
14662TIP3    H165401   3.105   0.513   2.090 -0.1354 -0.0968  0.7683
14662TIP3    H265402   3.081   0.414   1.978 -2.3690  0.3767  0.7822
14663TIP3   OH265403   4.531   3.234   0.401 -1.0583 -0.2624  0.0899
14663TIP3    H165404   4.567   3.172   0.465 -1.5107 -1.8959 -1.1441
14663TIP3    H265405   4.503   3.309   0.453  0.2777 -0.7261  1.5608
14664TIP3   OH265406   4.903   0.400   0.261  0.5073  0.1639 -0.3798
14664TIP3    H165407   4.811   0.392   0.235  1.3008 -0.4100 -3.3954
14664TIP3    H265408   4.949   0.337   0.206  2.5813 -0.7225  2.1763
14665TIP3   OH265409   0.853   5.167  11.511 -0.3868 -0.1026 -0.1492
14665TIP3    H165410   0.837   5.131  11.598 -0.4217  1.3744  0.4946
14665TIP3    H265411   0.913   5.240  11.527 -0.1742  0.0119 -1.4021
14666TIP3   OH265412   5.900   2.665  11.999  0.9422  0.6693 -0.0763
14666TIP3    H165413   5.884   2.724  12.073 -0.3753  0.0126  0.1991
14666TIP3    H265414   5.971   2.608  12.028 -0.0988 -0.1129  1.0351
14667TIP3   OH265415   0.402   2.378   2.591  0.4963 -0.5505 -0.5637
14667TIP3    H165416   0.479   2.322   2.598  0.9974  0.1855 -0.0181
14667TIP3    H265417   0.335   2.322   2.552  1.3868 -1.1177 -1.3168
14668TIP3   OH265418   5.685   0.239  14.497 -0.4202 -0.2892  0.1147
14668TIP3    H165419   5.653   0.246  14.587 -1.3221 -0.6084 -0.1767
14668TIP3    H265420   5.711   0.329  14.474 -1.3435  0.0285  0.2781
14669TIP3   OH265421   4.635   6.734  11.884  0.3021 -0.3625  0.1485
14669TIP3    H165422   4.718   6.711  11.844 -0.0871 -0.0693 -0.8504
14669TIP3    H265423   4.569   6.697  11.825 -0.3534  2.6772 -1.2159
14670TIP3   OH265424   3.991   5.607  15.113 -0.3305 -0.1131  0.2823
14670TIP3    H165425   3.939   5.550  15.169 -0.8726  0.2159  0.1303
14670TIP3    H265426   3.996   5.690  15.162 -0.0952 -0.0883  0.2175
14671TIP3   OH265427   2.571   1.443   2.979  0.1465 -0.3040  0.4147
14671TIP3    H165428   2.559   1.410   2.890  1.7897 -0.7784  0.3394
14671TIP3    H265429   2.504   1.511   2.989 -1.1037 -1.3247 -0.6069
14672TIP3   OH265430   5.297   3.507  11.995 -0.4775  0.8151  0.0522
14672TIP3    H165431   5.372   3.559  12.023 -0.1126 -0.0372  0.6908
14672TIP3    H265432   5.278   3.450  12.070 -0.0468 -0.8874 -1.0833
14673TIP3   OH265433   4.059   0.806  12.175 -0.1231  0.1995 -0.1892
14673TIP3    H165434   4.126   0.872  12.193  1.7424 -1.1252 -1.8421
14673TIP3    H265435   4.021   0.787  12.260  2.3611  0.2805  1.0355
14674TIP3   OH265436   3.392   4.459   3.359  0.5065  0.6622 -0.3190
14674TIP3    H165437   3.377   4.530   3.421  1.3795  1.5983 -1.1558
14674TIP3    H265438   3.376   4.379   3.410 -0.1593  1.4291  0.7210
14675TIP3   OH265439   6.617   5.883  11.419  0.1399 -0.1458  0.4459
14675TIP3    H165440   6.666   5.964  11.423 -0.6888  0.3360  1.2516
14675TIP3    H265441   6.681   5.817  11.392  0.8852  0.7086  0.0896
14676TIP3   OH265442   0.055   4.796   3.949  0.0725 -0.0230  0.3570
14676TIP3    H165443   0.035   4.832   4.035 -1.5950  3.3395 -1.2322
14676TIP3    H265444   0.130   4.846   3.918 -0.2038 -0.2051 -0.6549
14677TIP3   OH265445   4.517   0.364   2.395 -0.1083 -1.0727  0.3705
14677TIP3    H165446   4.552   0.389   2.480  0.0876  1.5539 -0.3942
14677TIP3    H265447   4.575   0.407   2.332 -1.3299 -1.4326 -1.0495
14678TIP3   OH265448   3.997   4.501   2.924 -0.3532 -0.1888  0.0745
14678TIP3    H165449   4.080   4.455   2.915 -0.6730 -0.7361 -0.1131
14678TIP3    H265450   3.938   4.458   2.861 -1.0745 -0.5151  0.9410
14679TIP3   OH265451   4.401   1.058  13.647 -0.2211 -0.1675  0.0009
14679TIP3    H165452   4.466   0.989  13.641 -0.0497 -0.0260  0.2098
14679TIP3    H265453   4.434   1.127  13.590 -0.9564 -0.6976 -1.1083
14680TIP3   OH265454   5.046   0.088   1.522 -0.1668 -0.2115 -0.1640
14680TIP3    H165455   5.055   0.075   1.617 -1.1717 -0.2841 -0.0596
14680TIP3    H265456   5.077   0.007   1.483  0.4091 -0.1182  0.0931
14681TIP3   OH265457   2.493   3.604  11.678  0.3347  0.0711 -0.4324
14681TIP3    H165458   2.537   3.564  11.753 -1.1949  1.1490  1.1171
14681TIP3    H265459   2.564   3.645  11.629  1.3974 -0.7813  0.3200
14682TIP3   OH265460   2.220   1.710  16.899  0.1504 -0.0640 -0.3578
14682TIP3    H165461   2.143   1.717  16.956  0.3555 -0.8211  0.0177
14682TIP3    H265462   2.212   1.624  16.857 -0.0220  0.4968 -1.5250
14683TIP3   OH265463   3.732   1.559   0.307  0.3612  0.5701 -0.9272
14683TIP3    H165464   3.787   1.637   0.300 -0.1751  1.0608  0.1707
14683TIP3    H265465   3.706   1.556   0.399  0.8543 -1.2366 -0.8118
14684TIP3   OH265466   2.514   3.438   3.402  0.2147  0.0419 -0.0035
14684TIP3    H165467   2.525   3.513   3.343  0.7043 -0.5869 -0.7262
14684TIP3    H265468   2.420   3.417   3.396  0.0526  0.6510  0.2876
14685TIP3   OH265469   3.901   3.168  11.087 -0.2849  0.1949 -0.0906
14685TIP3    H165470   3.809   3.141  11.076 -0.4265  0.6527 -0.0458
14685TIP3    H265471   3.899   3.263  11.079  0.2631  0.1673 -0.6324
14686TIP3   OH265472   4.539   2.665  14.969  1.1822  0.1515 -0.2599
14686TIP3    H165473   4.611   2.680  14.907  0.1951  2.0670 -1.0201
14686TIP3    H265474   4.573   2.697  15.052  1.4077  0.5816 -0.5081
14687TIP3   OH265475   1.586   2.150  11.601  0.6017  1.2968  0.2084
14687TIP3    H165476   1.500   2.189  11.588  0.5158  1.0855  0.1385
14687TIP3    H265477   1.648   2.220  11.577  0.4498  1.4190  0.1746
14688TIP3   OH265478   1.649   5.144  14.761  0.2417  0.3131  0.3830
14688TIP3    H165479   1.639   5.113  14.671  1.1321  0.4847  0.2120
14688TIP3    H265480   1.654   5.239  14.753 -0.3282  0.3705  0.6836
14689TIP3   OH265481   5.963   2.528  13.533  0.0065 -0.0700 -0.8510
14689TIP3    H165482   5.999   2.493  13.615  1.0495  1.1344 -0.7669
14689TIP3    H265483   6.001   2.472  13.465  2.9062  1.6580 -0.8497
14690TIP3   OH265484   1.629   5.079  11.308 -0.9918 -0.2024  0.3319
14690TIP3    H165485   1.543   5.038  11.322 -0.9792  0.1121  1.4185
14690TIP3    H265486   1.632   5.151  11.370  0.3387 -0.6268  0.7969
14691TIP3   OH265487   4.250   0.660  14.347 -0.0130 -0.4474  0.2362
14691TIP3    H165488   4.336   0.700  14.333 -0.1288  1.2885  3.4801
14691TIP3    H265489   4.207   0.664  14.262  2.6220 -0.2261 -1.1916
14692TIP3   OH265490   6.219   1.273   2.423 -0.6272 -0.3053  0.5018
14692TIP3    H165491   6.261   1.209   2.364 -1.0589  0.1075 -0.2706
14692TIP3    H265492   6.134   1.234   2.444 -2.3410  1.3633 -2.5890
14693TIP3   OH265493   6.010   0.815  11.612  0.3208 -0.8018  0.1016
14693TIP3    H165494   6.006   0.894  11.559 -1.5309 -1.7764 -1.3449
14693TIP3    H265495   5.979   0.746  11.553  1.1211 -2.4707  1.5618
14694TIP3   OH265496   1.544   4.121   0.209  0.6140 -0.1173 -0.4258
14694TIP3    H165497   1.633   4.087   0.216  1.2765  1.7307  0.6539
14694TIP3    H265498   1.519   4.144   0.298 -0.0114  1.6089 -1.0041
14695TIP3   OH265499   3.180   4.689   2.547 -0.0201  0.1670 -0.8249
14695TIP3    H165500   3.181   4.784   2.534 -0.0126  0.0502 -1.7358
14695TIP3    H265501   3.265   4.669   2.586  0.6016  0.3494 -2.0526
14696TIP3   OH265502   1.508   5.501  17.071  0.2205 -0.0107  0.2964
14696TIP3    H165503   1.424   5.456  17.074 -1.0398  2.1660  0.3507
14696TIP3    H265504   1.573   5.433  17.090 -1.6499 -1.4694  1.9807
14697TIP3   OH265505   4.602   1.840   5.672  0.1382 -0.1416 -0.2170
14697TIP3    H165506   4.647   1.922   5.693  2.8246 -1.5914  0.1698
14697TIP3    H265507   4.614   1.786   5.750  0.6263 -1.7422 -1.3469
14698TIP3   OH265508   0.510   1.038  13.506  0.0676  0.1138  0.0345
14698TIP3    H165509   0.426   1.037  13.461  0.0521 -2.3740  0.0074
14698TIP3    H265510   0.575   1.025  13.437  0.1829 -1.6334  0.4329
14699TIP3   OH265511   6.272   4.795  17.200  0.4646 -0.0842  0.5132
14699TIP3    H165512   6.181   4.764  17.201  0.0371  1.0812  1.9545
14699TIP3    H265513   6.318   4.732  17.145 -1.2636 -0.5323 -0.5031
14700TIP3   OH265514   6.725   2.397  15.860  0.3942  0.4426 -0.4547
14700TIP3    H165515   6.642   2.400  15.906  0.5122  0.5626 -0.2477
14700TIP3    H265516   6.754   2.488  15.855  0.9597  0.3148  0.3073
14701TIP3   OH265517   6.079   3.206  12.493  0.1840 -0.3332 -0.1742
14701TIP3    H165518   5.992   3.202  12.452 -0.4094  1.8485  0.7117
14701TIP3    H265519   6.060   3.220  12.586  1.5123 -2.7739  0.5297
14702TIP3   OH265520   6.563   4.928   3.227 -0.4281 -0.5194 -0.7172
14702TIP3    H165521   6.606   4.881   3.156 -0.2620  1.5527 -2.0873
14702TIP3    H265522   6.470   4.924   3.204 -0.2847  1.1245 -1.7601
14703TIP3   OH265523   4.978   6.675   4.064  0.2674  0.3199 -0.0290
14703TIP3    H165524   5.056   6.683   4.119 -0.8885  0.1398  1.7045
14703TIP3    H265525   4.960   6.581   4.061  0.3732  0.3131 -0.8476
14704TIP3   OH265526   3.744   0.169  16.706  0.4298 -0.2449 -0.6393
14704TIP3    H165527   3.742   0.233  16.636  0.9564 -0.6202 -1.0061
14704TIP3    H265528   3.835   0.139  16.709  0.6314  0.3854  0.7701
14705TIP3   OH265529   3.451   5.395  15.762 -0.1767 -0.3982  0.6463
14705TIP3    H165530   3.485   5.483  15.775 -0.6049 -0.3874  1.8197
14705TIP3    H265531   3.528   5.338  15.767  0.2387 -0.0376 -1.0759
14706TIP3   OH265532   2.981   2.602   1.100  0.7020 -0.0841 -0.1158
14706TIP3    H165533   2.933   2.611   1.018  3.0826 -0.4520 -1.6428
14706TIP3    H265534   2.931   2.538   1.150 -0.8048  0.1378 -1.2572
14707TIP3   OH265535   5.993   1.529   4.861  0.2308 -0.0323  0.3615
14707TIP3    H165536   5.995   1.566   4.949  2.1342 -0.9640  0.7479
14707TIP3    H265537   6.075   1.480   4.853  0.3490  0.4451 -2.1187
14708TIP3   OH265538   3.875   5.916  12.387 -0.0796  0.2908  0.3854
14708TIP3    H165539   3.873   5.996  12.440 -1.4051  1.4623 -1.3536
14708TIP3    H265540   3.966   5.887  12.392 -0.3266 -0.3962  4.2664
14709TIP3   OH265541   3.922   5.258  13.556 -0.0499  0.7124 -0.2252
14709TIP3    H165542   3.847   5.313  13.577 -0.3334  0.4086 -0.4318
14709TIP3    H265543   3.906   5.230  13.466  0.6121  1.1324 -0.4858
14710TIP3   OH265544   6.144   4.607   0.238  0.0269  0.2751 -0.1161
14710TIP3    H165545   6.210   4.585   0.172  0.5577  1.1198  0.1220
14710TIP3    H265546   6.100   4.684   0.203 -0.1318  0.3381  0.2220
14711TIP3   OH265547   0.873   0.590   0.790  0.0681 -0.0029 -0.3241
14711TIP3    H165548   0.900   0.609   0.700 -0.4955 -1.0536 -0.7284
14711TIP3    H265549   0.888   0.495   0.800  1.8154  0.3719  1.2738
14712TIP3   OH265550   6.148   6.365  14.187  0.0696  0.2790 -0.4197
14712TIP3    H165551   6.147   6.399  14.276 -0.2905 -1.7597  0.4174
14712TIP3    H265552   6.240   6.363  14.163  0.4513 -1.5863  0.9634
14713TIP3   OH265553   1.885   4.876   0.816 -0.1395  0.3790 -0.3834
14713TIP3    H165554   1.868   4.875   0.910 -1.7067 -1.2686 -0.6163
14713TIP3    H265555   1.798   4.872   0.776  0.5149  0.5548 -1.8917
14714TIP3   OH265556   4.110   1.294  13.134  0.2069  0.6893 -0.1951
14714TIP3    H165557   4.125   1.386  13.155 -3.1848  0.9437  2.0515
14714TIP3    H265558   4.144   1.246  13.210 -0.0509  0.3033 -0.3176
14715TIP3   OH265559   1.039   3.326   0.591 -0.4942  0.2060 -0.3215
14715TIP3    H165560   1.069   3.252   0.644  0.5348  0.9362  0.1434
14715TIP3    H265561   1.061   3.302   0.501 -1.7878 -0.8191 -0.3866
14716TIP3   OH265562   6.440   0.339   4.784  0.2618  0.6734  0.3229
14716TIP3    H165563   6.501   0.406   4.815  1.6809  0.0096 -0.8619
14716TIP3    H265564   6.465   0.260   4.834 -0.2200  0.6023  0.4540
14717TIP3   OH265565   1.629   2.611  12.792  0.3951 -0.1070  0.5511
14717TIP3    H165566   1.554   2.567  12.832  1.0402  0.1951  2.1785
14717TIP3    H265567   1.697   2.544  12.788  0.1080 -0.3485 -0.8140
14718TIP3   OH265568   4.225   0.512   2.855  0.5149  0.1198 -0.2278
14718TIP3    H165569   4.206   0.453   2.782  0.0902  0.4667 -0.4076
14718TIP3    H265570   4.319   0.530   2.849  0.4734  0.1774 -0.7129
14719TIP3   OH265571   2.327   3.630   3.712  0.1065  0.4132 -0.6126
14719TIP3    H165572   2.296   3.541   3.730  0.0441  0.9151  2.1733
14719TIP3    H265573   2.252   3.674   3.672 -0.6818 -0.1255  0.2315
14720TIP3   OH265574   0.216   3.961   3.212 -0.3780 -0.4389 -0.3797
14720TIP3    H165575   0.208   3.972   3.117 -1.6872  2.1136 -0.0686
14720TIP3    H265576   0.291   4.015   3.237 -0.4728 -0.5233  0.1021
14721TIP3   OH265577   6.569   4.497   3.014  0.0884 -0.5193  0.4377
14721TIP3    H165578   6.644   4.450   2.979 -0.8009 -1.2126 -0.5921
14721TIP3    H265579   6.531   4.543   2.939 -0.3592  0.0611  0.9993
14722TIP3   OH265580   0.146   0.942   3.589  0.4328 -0.3403 -0.2215
14722TIP3    H165581   0.051   0.950   3.575  0.4290 -0.2992 -0.1714
14722TIP3    H265582   0.155   0.874   3.656  0.4835 -1.0590 -0.9406
14723TIP3   OH265583   2.303   4.033  15.627  0.1416  0.2862  0.7442
14723TIP3    H165584   2.322   4.074  15.712 -0.1213  0.3593  0.7681
14723TIP3    H265585   2.275   3.944  15.649  0.6884  0.0981  0.6925
14724TIP3   OH265586   5.328   4.848  13.328  0.3961 -0.3487 -0.4296
14724TIP3    H165587   5.351   4.768  13.374 -2.6308 -0.7487  0.6349
14724TIP3    H265588   5.400   4.908  13.345  2.0076 -2.3059  0.0391
14725TIP3   OH265589   3.589   2.655   5.434  0.3851  0.0438 -0.4243
14725TIP3    H165590   3.650   2.584   5.455 -0.9290 -1.6353 -1.9966
14725TIP3    H265591   3.596   2.665   5.339 -1.1979  0.3591 -0.5262
14726TIP3   OH265592   5.604   5.414   5.841  0.1460 -0.4140  0.0282
14726TIP3    H165593   5.553   5.402   5.761  0.8617  0.3296 -0.5614
14726TIP3    H265594   5.658   5.492   5.824  2.6998 -2.0763 -0.0468
14727TIP3   OH265595   2.097   3.306   1.203 -0.7761  0.7478  0.2554
14727TIP3    H165596   2.030   3.372   1.224  0.5460  2.8973 -1.8039
14727TIP3    H265597   2.163   3.317   1.272 -0.2983  2.0357 -0.3763
14728TIP3   OH265598   5.758   3.138  12.572 -0.7641 -0.2469 -0.1702
14728TIP3    H165599   5.746   3.217  12.518 -1.9427 -1.2323 -1.4264
14728TIP3    H265600   5.694   3.076  12.537 -1.0280 -1.2047  1.8879
14729TIP3   OH265601   5.859   6.525  13.195 -0.4871  0.4494 -0.3439
14729TIP3    H165602   5.906   6.527  13.278  0.6352  1.0264 -0.9692
14729TIP3    H265603   5.823   6.436  13.189  0.1575  0.1340  0.3584
14730TIP3   OH265604   3.869   5.962  13.545 -0.2354  0.4488  0.0329
14730TIP3    H165605   3.938   5.975  13.480  0.4876 -0.6519  0.5566
14730TIP3    H265606   3.852   5.868  13.543 -1.6332  0.6750  0.0241
14731TIP3   OH265607   5.031   1.536  14.081  0.3723 -0.2379  0.2526
14731TIP3    H165608   4.958   1.550  14.021  1.7188 -0.3032 -1.5005
14731TIP3    H265609   5.022   1.445  14.109 -0.6700 -0.0004  0.7176
14732TIP3   OH265610   0.100   0.807   1.289 -0.2340  0.2056 -0.3707
14732TIP3    H165611   0.110   0.899   1.313 -2.0877  0.9467 -2.1205
14732TIP3    H265612   0.173   0.789   1.230  0.5678  0.3109  0.5747
14733TIP3   OH265613   4.460   4.431  16.698  0.3188  0.0417  0.2984
14733TIP3    H165614   4.379   4.380  16.696  0.6529 -0.4755 -0.2843
14733TIP3    H265615   4.446   4.500  16.634  0.4530 -0.2292 -0.0242
14734TIP3   OH265616   6.589   4.162  11.797  0.5540 -0.1688  0.2367
14734TIP3    H165617   6.630   4.076  11.792  3.5034  1.1844 -1.6006
14734TIP3    H265618   6.544   4.172  11.713 -1.3292 -0.5386  1.1497
14735TIP3   OH265619   6.277   6.233   6.576  0.0654 -0.4169  0.0770
14735TIP3    H165620   6.341   6.162   6.578  0.8622  0.0903 -2.5516
14735TIP3    H265621   6.327   6.311   6.600  0.0385 -0.2623 -0.3584
14736TIP3   OH265622   3.933   0.882  13.886  0.5785 -0.1462 -0.7610
14736TIP3    H165623   3.893   0.898  13.801  1.5955  0.9021 -1.0742
14736TIP3    H265624   4.014   0.933  13.885  0.5943 -0.0620  0.8588
14737TIP3   OH265625   5.248   5.527  13.608  0.5304  0.1573 -0.5387
14737TIP3    H165626   5.267   5.507  13.516 -0.2913  2.9701 -1.4134
14737TIP3    H265627   5.152   5.524  13.614  0.6064 -2.0971  0.8395
14738TIP3   OH265628   6.277   3.362  15.053  0.6440 -0.1323  0.2761
14738TIP3    H165629   6.287   3.277  15.010  1.0139  0.2808 -0.4751
14738TIP3    H265630   6.248   3.421  14.984  0.3687  0.3524  0.7983
14739TIP3   OH265631   2.988   5.743  14.863  0.5678 -0.5494  0.0721
14739TIP3    H165632   2.981   5.734  14.958  1.4786 -3.0678 -0.0367
14739TIP3    H265633   2.898   5.737  14.831  0.3152 -0.2757  0.7255
14740TIP3   OH265634   2.641   4.288  17.328  0.1834 -0.0397  0.5165
14740TIP3    H165635   2.733   4.309  17.345 -0.2310  1.2802  1.3241
14740TIP3    H265636   2.627   4.314  17.237  0.6068 -0.2280  0.3963
14741TIP3   OH265637   5.812   0.399  14.841  0.2645  0.0854 -0.0805
14741TIP3    H165638   5.865   0.442  14.773 -0.2395  0.7509 -0.0646
14741TIP3    H265639   5.727   0.385  14.800 -0.0742  0.5769  0.4343
14742TIP3   OH265640   3.326   3.937  16.438  0.2657  0.3705 -0.8818
14742TIP3    H165641   3.336   3.907  16.528 -1.0386 -0.4685 -0.9910
14742TIP3    H265642   3.411   3.976  16.416  1.0155 -0.5242  0.2892
14743TIP3   OH265643   1.156   4.991  15.503  0.1500 -0.2039 -0.4489
14743TIP3    H165644   1.090   4.983  15.573  1.0639 -0.5646  0.4043
14743TIP3    H265645   1.130   5.068  15.454 -1.0688 -0.5073 -0.2996
14744TIP3   OH265646   0.698   6.239  16.624 -0.4901 -0.0099  0.0617
14744TIP3    H165647   0.753   6.172  16.585 -1.1993 -0.7413  0.2835
14744TIP3    H265648   0.684   6.210  16.714 -2.7184 -0.8360 -0.4824
14745TIP3   OH265649   3.067   5.208  14.227 -0.3071 -0.1545 -0.3992
14745TIP3    H165650   3.069   5.156  14.147 -1.2767 -0.0321 -0.5222
14745TIP3    H265651   2.989   5.176  14.274 -0.4237  0.5901 -0.0746
14746TIP3   OH265652   0.581   0.551   6.138  0.4226 -0.7426  0.0570
14746TIP3    H165653   0.535   0.580   6.217  0.2856  0.9901 -0.6303
14746TIP3    H265654   0.522   0.487   6.098 -1.1825  0.9832 -0.4915
14747TIP3   OH265655   2.345   1.260  12.664  0.3628  0.0671  0.5704
14747TIP3    H165656   2.304   1.211  12.593 -0.6393  2.3078 -0.4890
14747TIP3    H265657   2.405   1.320  12.621  1.9749 -0.5468  1.8629
14748TIP3   OH265658   2.986   3.857  17.228  0.0265  0.3356  0.4966
14748TIP3    H165659   3.078   3.860  17.254 -0.2114  2.8434  1.3701
14748TIP3    H265660   2.978   3.925  17.161 -1.1830  0.0762  0.3470
14749TIP3   OH265661   4.221   2.209  16.019 -0.2682  0.1955  0.1993
14749TIP3    H165662   4.307   2.186  16.054  0.6320  0.7317 -1.5667
14749TIP3    H265663   4.169   2.129  16.029  1.2128 -0.9789 -1.0425
14750TIP3   OH265664   2.932   4.447  12.795  0.0140 -0.9687 -0.1667
14750TIP3    H165665   2.897   4.522  12.747  1.1107  0.2045  0.8026
14750TIP3    H265666   3.024   4.442  12.767  0.5480 -0.5498  1.4113
14751TIP3   OH265667   3.491   1.985  11.442  0.2908 -0.0603  0.1416
14751TIP3    H165668   3.519   1.920  11.378  1.0053 -0.0700  0.4519
14751TIP3    H265669   3.545   1.968  11.519 -1.9961 -1.3998  1.5381
14752TIP3   OH265670   6.373   0.318   1.417  0.6609  0.0295 -0.3552
14752TIP3    H165671   6.398   0.402   1.379  2.1600  0.2796  1.1046
14752TIP3    H265672   6.371   0.333   1.511 -2.2514 -0.7631 -0.1799
14753TIP3   OH265673   4.099   0.024   4.181  0.2551 -0.2996  0.2919
14753TIP3    H165674   4.186   0.043   4.147  0.7736 -1.7232  0.7323
14753TIP3    H265675   4.080  -0.065   4.148 -1.1783  0.1184 -0.0846
14754TIP3   OH265676   5.830   3.950  16.266 -0.3883  0.7946  0.6037
14754TIP3    H165677   5.750   3.906  16.236 -0.1124 -0.1783  1.2431
14754TIP3    H265678   5.823   3.950  16.361  1.6917 -2.0583  0.9005
14755TIP3   OH265679   1.892   6.131   0.564  0.3871 -1.0278 -0.6171
14755TIP3    H165680   1.856   6.108   0.649  2.0507 -0.8361  0.1877
14755TIP3    H265681   1.987   6.131   0.578  0.7562 -2.1595 -2.7723
14756TIP3   OH265682   1.195   1.464   2.095 -0.1677  0.0523 -0.7210
14756TIP3    H165683   1.115   1.413   2.108 -0.1666  0.1115 -0.4660
14756TIP3    H265684   1.243   1.418   2.026 -0.0940 -0.3810 -0.3852
14757TIP3   OH265685   2.789   1.240  15.405  0.0252 -0.1085 -0.0495
14757TIP3    H165686   2.762   1.149  15.397 -1.5811  0.0067  2.7121
14757TIP3    H265687   2.782   1.275  15.316  1.1295 -2.7225 -1.2693
14758TIP3   OH265688   4.912   1.767  12.313 -0.1116  0.2828 -0.5805
14758TIP3    H165689   4.983   1.832  12.313  0.3037 -0.1600 -0.1829
14758TIP3    H265690   4.843   1.807  12.366 -0.3230  0.8740 -1.2701
14759TIP3   OH265691   6.359   6.209  10.811 -0.7233 -0.9090  0.0682
14759TIP3    H165692   6.268   6.190  10.832 -1.0065  0.8925  0.6670
14759TIP3    H265693   6.371   6.175  10.722 -2.4444  0.1581 -0.6206
14760TIP3   OH265694   0.469   2.393  11.865 -0.4181 -0.2573  0.4182
14760TIP3    H165695   0.383   2.371  11.829  0.2684 -1.8144 -0.3865
14760TIP3    H265696   0.483   2.484  11.839 -1.3022 -0.3663 -0.5337
14761TIP3   OH265697   3.462   3.981  12.915 -0.3785 -0.1480  0.0180
14761TIP3    H165698   3.536   3.969  12.856 -1.7302 -0.0636 -1.7839
14761TIP3    H265699   3.485   3.931  12.993  1.5498 -0.1293 -0.4901
14762TIP3   OH265700   4.745   3.116   2.530 -0.5110 -0.0520  0.2115
14762TIP3    H165701   4.838   3.118   2.552 -0.4851  1.7011  0.0733
14762TIP3    H265702   4.743   3.111   2.435 -0.5114  1.5811  0.1016
14763TIP3   OH265703   6.737   2.388  15.318 -0.2873 -0.0898  0.2158
14763TIP3    H165704   6.723   2.365  15.227  1.5165  0.5076 -0.2368
14763TIP3    H265705   6.670   2.454  15.337 -1.1604 -0.7762 -0.4256
14764TIP3   OH265706   1.197   0.167   2.681 -0.6028  0.1641  0.4913
14764TIP3    H165707   1.103   0.175   2.699 -0.8279  1.1996 -0.8922
14764TIP3    H265708   1.240   0.200   2.760 -1.4766  2.9141 -0.0837
14765TIP3   OH265709   4.294   2.701   3.702 -0.2705 -0.3607  0.9015
14765TIP3    H165710   4.371   2.722   3.754 -0.0357 -0.9253  0.7965
14765TIP3    H265711   4.319   2.622   3.654 -0.5940 -0.0241  0.1712
14766TIP3   OH265712   6.400   1.527   2.953  0.5281  0.0140  0.0561
14766TIP3    H165713   6.395   1.432   2.959 -1.0880  0.1258  1.3571
14766TIP3    H265714   6.474   1.551   3.009  0.1657 -0.4324  0.7494
14767TIP3   OH265715   4.368   3.709  12.458 -0.2221 -0.4682 -0.2811
14767TIP3    H165716   4.338   3.626  12.496  1.4847 -1.7819 -1.6168
14767TIP3    H265717   4.428   3.683  12.388  0.1492  1.9176 -0.9401
14768TIP3   OH265718   4.772   5.073  11.458 -0.2881  0.1430 -0.7379
14768TIP3    H165719   4.831   5.137  11.418  0.6375  0.5140  1.1281
14768TIP3    H265720   4.703   5.125  11.499 -1.0026 -0.2171 -1.4364
14769TIP3   OH265721   6.657   1.184  13.861 -0.1861  0.4484  0.4309
14769TIP3    H165722   6.646   1.202  13.767 -1.5578 -0.6856  0.3247
14769TIP3    H265723   6.726   1.243  13.889  0.8429  0.2512 -1.4724
14770TIP3   OH265724   6.107   5.106  15.319  0.3182 -0.1572 -0.6476
14770TIP3    H165725   6.085   5.194  15.348  1.1231 -0.1126 -0.1346
14770TIP3    H265726   6.029   5.054  15.339 -1.0342  0.8431 -3.0175
14771TIP3   OH265727   5.965   3.657   1.750  0.1357 -0.5553 -0.0889
14771TIP3    H165728   5.872   3.647   1.729 -0.2184  0.9143  0.6861
14771TIP3    H265729   5.999   3.712   1.679 -0.6756  2.9060  1.9807
14772TIP3   OH265730   3.427   5.892   2.380 -0.7917  0.1655 -0.4287
14772TIP3    H165731   3.475   5.810   2.381 -0.5347  0.2823 -1.5712
14772TIP3    H265732   3.363   5.883   2.451  0.4181 -0.2696  0.6508
14773TIP3   OH265733   2.552   4.244   3.112  0.6256 -0.1546 -0.2949
14773TIP3    H165734   2.457   4.255   3.112  0.3334 -2.2794  0.7469
14773TIP3    H265735   2.586   4.333   3.101 -1.4628  0.7027 -0.2861
14774TIP3   OH265736   2.408   1.482  13.540 -0.1596 -0.3359 -0.3751
14774TIP3    H165737   2.466   1.520  13.475  0.4627  0.3702  0.5797
14774TIP3    H265738   2.465   1.428  13.595 -1.0669 -3.1156 -1.9627
14775TIP3   OH265739   2.575   4.088  13.182  0.2003  0.4066  0.1323
14775TIP3    H165740   2.539   4.008  13.222 -0.9339  0.8457  0.0399
14775TIP3    H265741   2.508   4.115  13.119  0.4386  1.5969  0.3745
14776TIP3   OH265742   1.517   0.623  15.850  0.3233  0.1733 -0.1412
14776TIP3    H165743   1.505   0.712  15.817  2.5171  1.3443  1.8961
14776TIP3    H265744   1.534   0.570  15.772 -1.1242  1.4778 -1.4087
14777TIP3   OH265745   5.083   2.297   1.512  0.0564 -0.0550  0.2089
14777TIP3    H165746   5.037   2.349   1.445 -1.8744 -0.7037  0.9673
14777TIP3    H265747   5.014   2.268   1.571  1.6943  0.3518  2.4304
14778TIP3   OH265748   1.500   5.962   5.558 -0.0652  0.9748  0.3555
14778TIP3    H165749   1.459   5.964   5.644  0.4836  1.8306  0.6071
14778TIP3    H265750   1.593   5.978   5.575  0.4085 -0.8743 -0.2103
14779TIP3   OH265751   4.082   1.951   3.550  0.1892  0.2206 -0.4882
14779TIP3    H165752   4.130   1.905   3.481  2.6753  0.5092  0.9246
14779TIP3    H265753   4.068   2.039   3.514  0.7222  0.1205 -0.9667
14780TIP3   OH265754   6.217   6.658   1.558 -0.2513  0.2456  0.2502
14780TIP3    H165755   6.300   6.681   1.599  0.2903  1.6774 -1.4830
14780TIP3    H265756   6.217   6.562   1.554  0.9380  0.1975  1.0146
14781TIP3   OH265757   4.280   6.374  14.858  1.0730  0.2734  0.0635
14781TIP3    H165758   4.246   6.294  14.898  1.3445  0.1428  0.0370
14781TIP3    H265759   4.333   6.343  14.785  0.5745  0.5103 -0.4068
14782TIP3   OH265760   1.491   3.675   5.612  0.1144 -0.4558  0.1565
14782TIP3    H165761   1.457   3.758   5.580  0.2940 -0.4570 -0.0434
14782TIP3    H265762   1.416   3.617   5.614  0.1315 -0.5035 -0.4284
14783TIP3   OH265763   6.136   0.731  12.294 -0.1502  0.1160 -0.1393
14783TIP3    H165764   6.159   0.731  12.387  0.9984  2.2261 -0.3688
14783TIP3    H265765   6.149   0.640  12.266 -0.1906 -0.4893  1.6639
14784TIP3   OH265766   2.819   4.443  11.881 -0.2886  0.3627  0.1709
14784TIP3    H165767   2.841   4.514  11.820 -2.5447 -0.1078 -1.2984
14784TIP3    H265768   2.853   4.364  11.840 -2.1368 -0.0054 -0.7462
14785TIP3   OH265769   6.241   4.224  13.709  0.0896  0.4141 -0.1935
14785TIP3    H165770   6.336   4.230  13.700  0.5318 -2.2458  1.4998
14785TIP3    H265771   6.218   4.140  13.669 -1.3857  0.5147  0.3568
14786TIP3   OH265772   2.505   3.645  13.055  0.2328 -0.3527 -0.1913
14786TIP3    H165773   2.475   3.574  13.112  1.8595 -0.8311  0.1226
14786TIP3    H265774   2.585   3.612  13.015  1.9076  1.7912  1.1148
14787TIP3   OH265775   4.036   5.435  11.533  0.0782  0.0947 -0.2043
14787TIP3    H165776   4.118   5.485  11.537 -0.6083  1.3191 -0.8947
14787TIP3    H265777   4.040   5.388  11.450  0.3649 -0.3774  0.0714
14788TIP3   OH265778   2.396   1.444   1.031  0.3543 -0.3089 -0.1072
14788TIP3    H165779   2.313   1.419   0.991  1.0363 -1.8809 -0.6003
14788TIP3    H265780   2.463   1.397   0.981  1.4340 -0.2363  1.1983
14789TIP3   OH265781   4.618   3.017  13.450 -0.1885  0.0465  0.3182
14789TIP3    H165782   4.554   2.976  13.508  0.3587 -0.2345  0.7217
14789TIP3    H265783   4.574   3.097  13.419 -2.0829 -1.7929 -2.0954
14790TIP3   OH265784   2.778   0.657   3.055 -0.2078  0.2972 -0.1147
14790TIP3    H165785   2.867   0.693   3.047 -0.2883  0.2107 -1.5995
14790TIP3    H265786   2.721   0.733   3.051 -0.2237  0.3221  0.5025
14791TIP3   OH265787   3.409   5.569   2.312 -0.0039  0.5460  0.5083
14791TIP3    H165788   3.346   5.627   2.354 -1.0716  1.7244 -2.4349
14791TIP3    H265789   3.407   5.595   2.220  0.9766 -2.8524 -0.6140
14792TIP3   OH265790   6.703   5.891   3.342  0.3402  0.1084  0.1517
14792TIP3    H165791   6.693   5.840   3.262  0.0759  2.5231 -1.4775
14792TIP3    H265792   6.761   5.963   3.317 -1.0192  1.8184  1.6393
14793TIP3   OH265793   2.603   2.688  13.762  0.0797  0.4626 -0.4893
14793TIP3    H165794   2.616   2.603  13.802 -0.3151 -0.1442 -1.6042
14793TIP3    H265795   2.539   2.732  13.817 -0.3763 -0.3107 -0.4010
14794TIP3   OH265796   0.291   0.893   3.297  0.1321 -0.1153  0.4647
14794TIP3    H165797   0.342   0.838   3.356  0.2914  0.8203  1.2191
14794TIP3    H265798   0.234   0.944   3.355 -3.4042 -2.7208 -0.3748
14795TIP3   OH265799   3.675   6.138  17.070  0.0293 -0.0797  0.4775
14795TIP3    H165800   3.672   6.184  16.986  2.5341 -1.5329 -0.5141
14795TIP3    H265801   3.645   6.050  17.050 -0.7939 -0.0533  1.4932
14796TIP3   OH265802   1.436   3.551   0.133 -0.9018  0.4441 -0.1214
14796TIP3    H165803   1.425   3.615   0.203  1.0805  0.7878 -0.0633
14796TIP3    H265804   1.347   3.526   0.108 -1.7062 -0.7178  3.4049
14797TIP3   OH265805   3.817   0.616  12.130  0.1686  0.4568  0.5883
14797TIP3    H165806   3.900   0.661  12.115  0.7552 -0.7105  0.1595
14797TIP3    H265807   3.826   0.533  12.083 -0.5743 -0.4266  1.9196
14798TIP3   OH265808   2.026   3.019   1.198 -0.2335  0.6615 -0.2841
14798TIP3    H165809   2.006   3.023   1.291 -0.9223  0.9089 -0.4377
14798TIP3    H265810   2.110   3.064   1.190 -0.7467  1.7314  0.0641
14799TIP3   OH265811   0.986   2.581  14.050  0.7295  0.1623  0.6507
14799TIP3    H165812   1.079   2.571  14.069  0.6504 -0.4620  0.7099
14799TIP3    H265813   0.959   2.496  14.017 -0.0110  0.0917  1.4173
14800TIP3   OH265814   0.750   1.932   1.518  0.1475 -0.0996  0.4524
14800TIP3    H165815   0.801   1.988   1.459  1.5918 -1.2444  0.5759
14800TIP3    H265816   0.773   1.843   1.493 -0.4518 -0.6306  1.7038
14801TIP3   OH265817   4.896   2.505  12.187 -0.1860  0.1817  0.1061
14801TIP3    H165818   4.978   2.523  12.233 -0.5239 -0.9996  1.2025
14801TIP3    H265819   4.892   2.573  12.119  0.5527  1.6960  1.5043
14802TIP3   OH265820   2.124   1.473   2.823 -0.3008 -0.2790 -0.1441
14802TIP3    H165821   2.205   1.427   2.847 -2.3467 -2.9872  2.4081
14802TIP3    H265822   2.072   1.471   2.903 -1.6919  4.4234 -0.6728
14803TIP3   OH265823   3.155   2.611  16.352  0.4926 -0.1597  0.1895
14803TIP3    H165824   3.106   2.686  16.385  0.6237 -0.2262  0.5352
14803TIP3    H265825   3.095   2.536  16.361  0.6100 -0.2171  0.4836
14804TIP3   OH265826   3.661   2.117   4.464  0.2540  0.1768  0.3830
14804TIP3    H165827   3.577   2.161   4.468 -0.4211 -0.7999 -1.7568
14804TIP3    H265828   3.639   2.024   4.461  1.5376 -0.2331  2.0170
14805TIP3   OH265829   5.320   0.868  16.021 -0.2809 -0.1243 -0.4091
14805TIP3    H165830   5.355   0.854  16.109 -0.2833  1.6812 -0.0821
14805TIP3    H265831   5.233   0.906  16.036 -1.3321 -2.0769 -1.2128
14806TIP3   OH265832   2.020   4.592   4.672  0.7951  0.1396 -0.2181
14806TIP3    H165833   1.977   4.675   4.649  1.6663  1.6033  2.8459
14806TIP3    H265834   2.104   4.594   4.626  1.6888  2.0388  1.3466
14807TIP3   OH265835   3.033   4.474  13.110  0.4849 -0.1700 -0.2519
14807TIP3    H165836   2.970   4.472  13.038  0.4616 -2.5019 -0.2575
14807TIP3    H265837   2.979   4.473  13.189  0.4734 -1.1911 -0.2546
14808TIP3   OH265838   0.887   5.467   1.588  0.4048 -0.1456  0.0046
14808TIP3    H165839   0.840   5.459   1.671 -0.3143  0.5363 -0.3262
14808TIP3    H265840   0.977   5.487   1.613  0.3753 -0.7848  0.6341
14809TIP3   OH265841   2.444   1.874  13.444 -0.2435  0.2322 -0.6538
14809TIP3    H165842   2.364   1.887  13.494  0.2151  0.5573  0.0121
14809TIP3    H265843   2.430   1.923  13.362 -0.0341  1.8082  0.2141
14810TIP3   OH265844   2.736   3.435   5.916 -0.2914 -0.2957 -0.0807
14810TIP3    H165845   2.734   3.395   6.003  0.2586  1.2740  0.6825
14810TIP3    H265846   2.671   3.506   5.921 -0.5226 -0.4262 -1.0714
14811TIP3   OH265847   1.909   5.530  12.094  0.3016  0.3188 -0.4991
14811TIP3    H165848   1.967   5.474  12.145  0.5590  2.0046  1.1336
14811TIP3    H265849   1.828   5.479  12.084  0.7815 -0.6153  0.3131
14812TIP3   OH265850   1.248   5.348   1.076  0.2206  0.4563 -0.2586
14812TIP3    H165851   1.168   5.377   1.031  0.0572 -0.4880 -0.5923
14812TIP3    H265852   1.224   5.349   1.169  0.2140  1.3473 -0.2607
14813TIP3   OH265853   4.020   4.762   6.472  0.0042  0.1621  1.5272
14813TIP3    H165854   3.988   4.778   6.383 -1.6010 -1.8235  1.6832
14813TIP3    H265855   4.116   4.763   6.463 -0.0789  2.2033  0.2459
14814TIP3   OH265856   2.092   2.838  14.589 -0.2284  0.4116  0.7720
14814TIP3    H165857   2.076   2.788  14.669 -2.0934 -1.2791 -0.5686
14814TIP3    H265858   2.027   2.909  14.592  1.2853  1.8219  1.8435
14815TIP3   OH265859   2.086   3.147   6.348  0.2741  0.4006 -0.0872
14815TIP3    H165860   2.175   3.168   6.378  0.0544  2.1494 -0.5205
14815TIP3    H265861   2.075   3.055   6.369  1.7009  0.4715  1.1987
14816TIP3   OH265862   2.806   2.460   6.096 -0.1124  0.4867  0.5237
14816TIP3    H165863   2.733   2.416   6.053 -0.7224  1.1757  0.8373
14816TIP3    H265864   2.875   2.394   6.099 -0.9544 -0.4061  0.8637
14817TIP3   OH265865   5.186   2.893  16.232 -0.3263 -0.1161  0.2741
14817TIP3    H165866   5.173   2.810  16.186  0.0066 -0.2390  0.3955
14817TIP3    H265867   5.153   2.877  16.320 -2.0396  0.4719 -0.2201
14818TIP3   OH265868   5.472   5.702   2.567  0.2781  0.3410  0.1781
14818TIP3    H165869   5.543   5.649   2.602  0.9834  0.7917 -0.5213
14818TIP3    H265870   5.433   5.648   2.498  0.0640  0.1687  0.4335
14819TIP3   OH265871   2.849   6.596  15.448  0.0082 -1.0895  0.1340
14819TIP3    H165872   2.874   6.621  15.537  2.2789 -1.9762 -0.1915
14819TIP3    H265873   2.808   6.510  15.458  1.0184 -1.5701  0.2687
14820TIP3   OH265874   5.746   0.170   0.411 -0.1258  0.3938 -1.3089
14820TIP3    H165875   5.745   0.123   0.494  3.3046  1.8271 -0.3082
14820TIP3    H265876   5.680   0.238   0.422  1.4216  1.6460  1.0265
14821TIP3   OH265877   0.470   1.093  13.154 -0.7061 -0.1439  0.3500
14821TIP3    H165878   0.467   1.001  13.128 -0.1380 -0.3351  0.9393
14821TIP3    H265879   0.385   1.110  13.195 -1.2086 -0.1199 -0.6712
14822TIP3   OH265880   3.826   3.203  12.718  0.1988  0.3068 -0.6074
14822TIP3    H165881   3.921   3.193  12.712  0.4276  0.0938  2.2427
14822TIP3    H265882   3.811   3.297  12.703  1.3011  1.0374  2.2841
14823TIP3   OH265883   0.454   1.434  16.686  0.2495  0.3255  0.1815
14823TIP3    H165884   0.365   1.409  16.711  0.5822 -1.9720 -0.7413
14823TIP3    H265885   0.443   1.489  16.608 -0.3441 -1.6658 -1.2081
14824TIP3   OH265886   0.587   4.377  11.004  0.1584 -0.1954 -0.5624
14824TIP3    H165887   0.569   4.369  11.097  2.0015  0.2576 -0.1206
14824TIP3    H265888   0.610   4.289  10.976  1.0625 -0.0756 -0.2285
14825TIP3   OH265889   4.674   0.048  15.553  0.2326  0.5061  0.5785
14825TIP3    H165890   4.625  -0.026  15.588  1.1469  0.3064  1.4894
14825TIP3    H265891   4.754   0.051  15.606  1.3764  0.6082 -1.0889
14826TIP3   OH265892   2.378   5.115  15.714 -0.4606  0.0648 -0.6110
14826TIP3    H165893   2.474   5.107  15.711 -0.4604 -0.3266  0.3779
14826TIP3    H265894   2.360   5.148  15.802 -1.2867 -0.5359 -0.5528
14827TIP3   OH265895   1.127   3.237   4.546  0.0092  0.0427  0.2233
14827TIP3    H165896   1.054   3.275   4.498 -1.4219 -0.4135  1.9145
14827TIP3    H265897   1.130   3.146   4.517 -2.2081 -0.8158  2.3577
14828TIP3   OH265898   4.530   0.353  16.756 -0.3174  0.1776  0.0134
14828TIP3    H165899   4.463   0.305  16.803 -1.2830  1.0295 -0.4554
14828TIP3    H265900   4.511   0.445  16.774  0.0447  0.4701 -1.0416
14829TIP3   OH265901   3.513   3.729   4.363  0.2785 -0.2856  0.6269
14829TIP3    H165902   3.554   3.792   4.422 -0.5904 -0.6329  1.6239
14829TIP3    H265903   3.548   3.644   4.391  0.8859 -0.3425 -0.2423
14830TIP3   OH265904   0.292   3.502  13.968  0.3734 -0.1780  0.0598
14830TIP3    H165905   0.278   3.593  13.994  0.1038 -0.1942 -0.0191
14830TIP3    H265906   0.231   3.452  14.023 -2.0509  0.0054 -2.2481
14831TIP3   OH265907   4.396   1.301  12.148  0.0619  0.4194  0.1713
14831TIP3    H165908   4.490   1.309  12.167  0.3971 -3.1577  0.7001
14831TIP3    H265909   4.391   1.294  12.053  0.1123  2.1185  0.0155
14832TIP3   OH265910   0.949   5.964   4.976  0.8298  0.2150 -0.0137
14832TIP3    H165911   1.040   5.984   4.999  1.2240 -2.0820  0.6677
14832TIP3    H265912   0.902   5.966   5.059  0.9541 -1.8104  0.1376
14833TIP3   OH265913   0.108   4.385   1.938  0.1773  0.0503 -0.0819
14833TIP3    H165914   0.170   4.421   2.002 -0.6789  1.1450  0.1583
14833TIP3    H265915   0.083   4.300   1.975  0.7050  0.0759  0.3597
14834TIP3   OH265916   4.093   3.318   3.785 -0.1509  0.3681  0.7047
14834TIP3    H165917   4.100   3.411   3.764  0.1220  0.9582  3.0643
14834TIP3    H265918   4.000   3.305   3.804 -0.3583 -0.1022 -0.5190
14835TIP3   OH265919   1.738   0.843   5.153  0.4393 -0.3081  0.0880
14835TIP3    H165920   1.751   0.790   5.075  1.0260  0.3745 -0.2981
14835TIP3    H265921   1.679   0.913   5.125 -1.8704 -1.7417  1.0730
14836TIP3   OH265922   6.055   2.132   5.788  0.0549 -0.1360  0.0688
14836TIP3    H165923   6.148   2.111   5.779  0.3326  0.3213  1.5485
14836TIP3    H265924   6.044   2.152   5.881 -1.3479  0.6953 -0.2464
14837TIP3   OH265925   3.480   3.652   3.874 -0.0677  0.2947 -0.3599
14837TIP3    H165926   3.575   3.660   3.885 -0.1789 -1.0770  2.9539
14837TIP3    H265927   3.467   3.637   3.781  3.0761 -0.4436 -0.7916
14838TIP3   OH265928   3.542   4.322  13.934  0.2492  0.0266  0.3402
14838TIP3    H165929   3.464   4.317  13.878  0.0879 -2.4318  0.6544
14838TIP3    H265930   3.613   4.346  13.875 -0.3661  0.0379 -0.4048
14839TIP3   OH265931   2.054   2.773  17.201 -0.0917  0.2008 -0.6802
14839TIP3    H165932   2.025   2.842  17.261  0.1692 -0.6887  0.5032
14839TIP3    H265933   1.986   2.705  17.208 -0.5401  0.4512 -2.1105
14840TIP3   OH265934   4.782   0.534   4.227  0.1310  0.1494 -0.3974
14840TIP3    H165935   4.859   0.558   4.278 -0.6953  1.1864  0.4009
14840TIP3    H265936   4.815   0.522   4.138  1.3054 -0.0022  0.0395
14841TIP3   OH265937   2.461   4.866   0.173  0.6180  0.6244  0.0689
14841TIP3    H165938   2.480   4.781   0.133 -1.5620  0.6710 -1.2637
14841TIP3    H265939   2.488   4.857   0.264 -0.2189 -1.7885  0.1390
14842TIP3   OH265940   3.337   6.403  12.044 -0.1027 -0.0368  0.1581
14842TIP3    H165941   3.424   6.432  12.016 -0.2772 -0.4941 -0.9078
14842TIP3    H265942   3.353   6.321  12.091  0.0204 -0.2758 -0.2932
14843TIP3   OH265943   1.955   6.736  11.196 -0.2934 -0.2771 -0.0886
14843TIP3    H165944   1.969   6.649  11.157 -0.8250  0.0549 -1.0514
14843TIP3    H265945   2.040   6.760  11.231  0.2200 -0.6088 -1.0521
14844TIP3   OH265946   6.486   2.745   5.443  0.3977  0.6852  0.2612
14844TIP3    H165947   6.511   2.813   5.380 -1.6350  1.6275  0.3864
14844TIP3    H265948   6.393   2.731   5.427  1.0400 -3.4319 -0.9527
14845TIP3   OH265949   5.431   4.783  17.134 -0.5242  0.1096  0.0361
14845TIP3    H165950   5.441   4.722  17.207  0.2933  0.3669  0.1566
14845TIP3    H265951   5.467   4.736  17.058 -0.3221  0.2658  0.0346
14846TIP3   OH265952   2.993   1.877   1.244 -0.0498 -0.0508  0.2161
14846TIP3    H165953   3.031   1.844   1.325 -0.2630 -2.1041 -0.4678
14846TIP3    H265954   2.902   1.847   1.246 -0.0369 -0.1806 -0.8087
14847TIP3   OH265955   4.276   4.475   2.892 -0.6132  0.2191 -0.0525
14847TIP3    H165956   4.366   4.451   2.872 -0.7931  0.1534 -0.8163
14847TIP3    H265957   4.267   4.565   2.860 -1.2472 -0.2994 -1.4194
14848TIP3   OH265958   3.679   4.057   5.712 -0.3469  0.4324  0.1550
14848TIP3    H165959   3.771   4.035   5.729 -0.2532  0.2905 -0.4922
14848TIP3    H265960   3.670   4.148   5.739 -0.3631  0.0525  1.4966
14849TIP3   OH265961   1.611   2.261  14.053  0.2122  0.0490 -0.3826
14849TIP3    H165962   1.666   2.184  14.035  2.2359  1.1366  0.7167
14849TIP3    H265963   1.522   2.228  14.051  1.0438 -2.5566  0.8951
14850TIP3   OH265964   1.363   5.546   2.243 -0.5275  0.3064  0.3904
14850TIP3    H165965   1.376   5.459   2.282  0.1472 -0.0922 -0.6945
14850TIP3    H265966   1.414   5.605   2.299  0.1208 -0.2038  0.3508
14851TIP3   OH265967   2.020   0.793   2.428  0.1570  0.2048 -0.5585
14851TIP3    H165968   1.947   0.793   2.365 -1.6357  0.6093  1.4049
14851TIP3    H265969   2.014   0.878   2.470  0.9986 -0.2530  0.5077
14852TIP3   OH265970   0.086   0.673  15.849 -0.0980  0.6209 -0.0988
14852TIP3    H165971   0.014   0.650  15.791  0.2714 -1.4707  0.1983
14852TIP3    H265972   0.164   0.670  15.793  0.0778  0.0851  0.1668
14853TIP3   OH265973   1.337   4.273  16.125  0.3782  0.4431 -0.1028
14853TIP3    H165974   1.334   4.177  16.127  0.1337  0.4342 -0.6049
14853TIP3    H265975   1.369   4.298  16.211  1.1765 -0.1162 -0.2260
14854TIP3   OH265976   6.361   1.426  14.182 -0.2736  0.3201 -0.4278
14854TIP3    H165977   6.373   1.365  14.255  0.4530  1.1903  0.2171
14854TIP3    H265978   6.378   1.374  14.104 -0.8333 -0.5756  0.0290
14855TIP3   OH265979   4.198   5.653   3.050 -0.1805 -0.1048  0.1382
14855TIP3    H165980   4.218   5.644   3.143 -2.8044  1.1420  0.9158
14855TIP3    H265981   4.141   5.579   3.031  2.0423 -1.5913 -1.1055
14856TIP3   OH265982   6.117   0.520  13.154  0.3413 -0.8050 -0.3564
14856TIP3    H165983   6.024   0.534  13.136  0.0185  0.5960  1.9353
14856TIP3    H265984   6.131   0.427  13.137 -1.2972 -0.9005 -1.4031
14857TIP3   OH265985   0.653   1.794   3.823  0.9179 -0.1825 -0.2607
14857TIP3    H165986   0.717   1.820   3.889 -1.8802  0.7948  2.3215
14857TIP3    H265987   0.626   1.706   3.849 -0.3936  0.3121  0.1721
14858TIP3   OH265988   5.569   6.346   4.294 -0.5185 -0.3269  0.6576
14858TIP3    H165989   5.522   6.430   4.298 -0.6613 -0.2954 -1.1975
14858TIP3    H265990   5.535   6.303   4.216  0.6101 -1.4890  0.7820
14859TIP3   OH265991   2.659   3.150   1.919  0.1202 -0.1223  0.1154
14859TIP3    H165992   2.591   3.120   1.979 -0.3864  0.7044 -0.0267
14859TIP3    H265993   2.614   3.210   1.859  0.1386 -2.4454 -2.4107
14860TIP3   OH265994   0.508   5.226  15.170 -1.0431  0.0198 -0.0166
14860TIP3    H165995   0.594   5.219  15.129 -1.4356 -2.3226 -0.5959
14860TIP3    H265996   0.516   5.299  15.231  0.3413  1.9545 -2.3691
14861TIP3   OH265997   4.286   0.520   4.253 -0.8886  0.1069 -0.5853
14861TIP3    H165998   4.235   0.548   4.177  0.2120  2.2778 -0.5803
14861TIP3    H265999   4.258   0.579   4.323  0.1683  0.0073 -0.0691
14862TIP3   OH266000   6.688   5.126  16.278  0.1976 -0.1460 -0.2690
14862TIP3    H166001   6.647   5.150  16.361 -0.3702 -2.1198  0.0558
14862TIP3    H266002   6.677   5.032  16.272  0.8713 -0.1378 -2.2633
14863TIP3   OH266003   3.906   2.287   3.866  0.0644  0.4981  0.6426
14863TIP3    H166004   3.874   2.324   3.783 -1.2474 -2.8354 -0.5399
14863TIP3    H266005   3.847   2.323   3.932 -0.4218  1.3726 -0.2356
14864TIP3   OH266006   1.711   5.699   2.215 -0.1218  0.0481 -0.3802
14864TIP3    H166007   1.797   5.723   2.248 -0.2867 -2.2484  2.0811
14864TIP3    H266008   1.727   5.621   2.162 -0.6340 -0.4386  0.1574
14865TIP3   OH266009   1.517   0.389  16.730  0.1582 -0.0660  0.7771
14865TIP3    H166010   1.457   0.317  16.709 -0.4534  0.7539 -0.4456
14865TIP3    H266011   1.470   0.441  16.795 -2.0291  2.3406 -2.4092
14866TIP3   OH266012   1.069   2.353  13.519  0.0570 -0.0972  0.1609
14866TIP3    H166013   1.161   2.328  13.524  0.3351  1.1389  2.6647
14866TIP3    H266014   1.069   2.427  13.458  1.0079  0.8222  1.2177
14867TIP3   OH266015   1.644   5.464   4.368 -0.3295 -0.0936 -0.1565
14867TIP3    H166016   1.627   5.392   4.429 -0.4460 -1.9652 -2.2538
14867TIP3    H266017   1.619   5.543   4.416 -2.1167 -1.6104  1.5705
14868TIP3   OH266018   3.635   0.499  16.912 -0.4414  0.7502  0.1166
14868TIP3    H166019   3.726   0.510  16.940  0.0290  0.6516 -1.2821
14868TIP3    H266020   3.592   0.458  16.988  1.0245 -0.5750  0.3079
14869TIP3   OH266021   1.925   0.861  17.012 -0.1280  0.1223  0.0264
14869TIP3    H166022   2.018   0.837  17.015 -0.0499  0.5068  1.1164
14869TIP3    H266023   1.890   0.813  16.936 -0.0571 -3.7493  2.1956
14870TIP3   OH266024   2.090   4.277  12.829 -0.4472 -0.7521  0.5074
14870TIP3    H166025   2.138   4.234  12.900  1.6011  0.8414  0.2015
14870TIP3    H266026   2.101   4.370  12.845 -0.5241 -0.3469 -1.4829
14871TIP3   OH266027   3.718   2.665  14.209  0.3976  0.0265  0.3319
14871TIP3    H166028   3.779   2.630  14.273  1.3198 -0.5609 -0.8390
14871TIP3    H266029   3.765   2.737  14.166 -0.5583  1.0650  0.9428
14872TIP3   OH266030   0.328   0.005  15.994  0.8686  0.1347  0.6767
14872TIP3    H166031   0.335   0.020  16.088  1.1169  1.0175  0.5210
14872TIP3    H266032   0.291   0.085  15.959  2.6366  0.6120 -0.2293
14873TIP3   OH266033   5.478   5.239   0.182 -0.2808 -0.6383  0.8102
14873TIP3    H166034   5.492   5.172   0.116 -0.3478  0.6143 -0.5322
14873TIP3    H266035   5.518   5.204   0.261  3.1282 -0.6931 -0.7660
14874TIP3   OH266036   6.287   2.831  13.284  0.3387  0.2865 -0.3250
14874TIP3    H166037   6.246   2.757  13.239 -1.3125  1.1229 -0.2759
14874TIP3    H266038   6.260   2.907  13.233  0.9393  0.9772  0.3747
14875TIP3   OH266039   0.163   4.981  14.896  0.9024 -0.2573  0.2599
14875TIP3    H166040   0.071   4.998  14.875  1.1240 -0.7940 -1.2303
14875TIP3    H266041   0.160   4.903  14.952  0.2927  1.3480  2.6495
14876TIP3   OH266042   0.115   0.110   5.761  0.1645  0.2445  0.0848
14876TIP3    H166043   0.075   0.023   5.760 -0.5118  0.5542 -0.7134
14876TIP3    H266044   0.042   0.170   5.746  0.5541  0.9913  1.0674
14877TIP3   OH266045   1.186   2.749  17.385  0.2145 -0.1153  0.3510
14877TIP3    H166046   1.227   2.815  17.442 -1.4232  1.5064 -0.2642
14877TIP3    H266047   1.250   2.736  17.315  0.1930  1.5930 -0.0369
14878TIP3   OH266048   2.836   3.470   1.764 -0.2180 -0.1344  0.2479
14878TIP3    H166049   2.778   3.407   1.722  0.8052 -0.1360 -1.2636
14878TIP3    H266050   2.912   3.475   1.706  1.7171 -0.7520  2.5395
14879TIP3   OH266051   2.188   3.551  15.432 -0.7524 -0.1378  0.0382
14879TIP3    H166052   2.121   3.503  15.481 -0.7936  1.0548  1.2387
14879TIP3    H266053   2.144   3.579  15.352 -1.5236  0.1452  0.5532
14880TIP3   OH266054   0.582   5.221   0.938 -0.1691  0.3264  0.1605
14880TIP3    H166055   0.659   5.217   0.995  1.4316 -0.0664 -1.9225
14880TIP3    H266056   0.510   5.242   0.997  1.5442  0.8907  2.1746
14881TIP3   OH266057   0.323   0.895   3.897 -0.2197 -0.1619  0.6663
14881TIP3    H166058   0.316   0.850   3.982  1.7167  0.0126  0.9724
14881TIP3    H266059   0.266   0.845   3.839 -1.0119 -0.7392  1.8966
14882TIP3   OH266060   0.825   2.393  16.550  0.0762 -0.1412  0.4674
14882TIP3    H166061   0.813   2.455  16.478  0.5459 -0.2950  0.2484
14882TIP3    H266062   0.738   2.357  16.566 -0.1038  0.1869  0.2425
14883TIP3   OH266063   1.674   6.433  13.168  0.2074  0.5848 -0.7548
14883TIP3    H166064   1.657   6.342  13.192  1.6132  1.0722  2.9073
14883TIP3    H266065   1.588   6.474  13.167 -0.2360 -0.2164  0.7083
14884TIP3   OH266066   6.570   5.682  13.945 -0.3530 -0.1219 -0.2876
14884TIP3    H166067   6.516   5.606  13.968 -2.2140  0.9864 -0.8422
14884TIP3    H266068   6.657   5.659  13.978 -1.2397 -1.7464  1.1242
14885TIP3   OH266069   0.929   4.004  15.758  0.2452 -0.2138  0.5959
14885TIP3    H166070   0.864   3.986  15.691  1.0711  0.5127 -0.4325
14885TIP3    H266071   0.880   4.001  15.840 -0.7704 -1.2090 -0.0137
14886TIP3   OH266072   4.966   1.453   6.045  0.3218  0.0880  0.1817
14886TIP3    H166073   4.964   1.474   6.138 -0.3506  0.1436  0.1614
14886TIP3    H266074   5.007   1.529   6.003 -2.3320  1.6024  0.0721
14887TIP3   OH266075   1.391   5.883   6.319 -0.3765  0.4517 -0.6715
14887TIP3    H166076   1.323   5.855   6.379  0.2959 -0.7780 -0.4546
14887TIP3    H266077   1.358   5.964   6.281 -2.0411 -0.2202 -0.7296
14888TIP3   OH266078   6.362   4.067   2.405 -0.2760  0.3951 -0.6522
14888TIP3    H166079   6.292   4.032   2.350 -0.6206  0.6244 -0.3667
14888TIP3    H266080   6.434   4.083   2.345 -0.7086  0.7987 -1.0695
14889TIP3   OH266081   3.296   1.844  11.695  0.5657  0.3513 -0.1265
14889TIP3    H166082   3.371   1.793  11.666  1.4418  0.4483  1.8031
14889TIP3    H266083   3.305   1.848  11.790 -2.1531 -0.0163  0.2264
14890TIP3   OH266084   4.066   5.233   2.494 -0.3982  0.2449 -0.1251
14890TIP3    H166085   4.022   5.149   2.481 -1.6290  0.7562  0.5648
14890TIP3    H266086   4.129   5.217   2.564  0.9658 -0.6299 -1.4716
14891TIP3   OH266087   6.644   4.309   6.536 -0.8008 -0.0526  0.4684
14891TIP3    H166088   6.631   4.361   6.615  1.1042 -0.4607  1.1040
14891TIP3    H266089   6.731   4.335   6.504 -1.5769  0.2200 -1.6056
14892TIP3   OH266090   1.714   5.381   4.945  0.2526  0.5461  0.6006
14892TIP3    H166091   1.686   5.472   4.955  3.2068  1.4082  1.7734
14892TIP3    H266092   1.712   5.345   5.033  1.9730  0.4198  0.6181
14893TIP3   OH266093   6.389   0.877   6.567 -0.5621  0.4821 -0.5960
14893TIP3    H166094   6.482   0.862   6.583 -0.6190  0.4397 -0.2954
14893TIP3    H266095   6.360   0.930   6.641 -0.6792  0.8859 -0.9262
14894TIP3   OH266096   1.035   0.526  13.619  0.4073  0.1316  0.4324
14894TIP3    H166097   1.101   0.528  13.688  0.0414  0.9218  0.7780
14894TIP3    H266098   0.962   0.476  13.657  1.3760 -2.1615 -0.5235
14895TIP3   OH266099   5.678   3.143  15.219 -0.8196  0.6379  0.2212
14895TIP3    H166100   5.770   3.168  15.210 -0.9495  0.9373 -0.3431
14895TIP3    H266101   5.644   3.142  15.129 -0.6843 -2.1567  0.1088
14896TIP3   OH266102   3.350   0.288   0.507  0.1000 -0.5577 -0.3978
14896TIP3    H166103   3.397   0.295   0.424 -1.3993 -0.7393 -1.2980
14896TIP3    H266104   3.416   0.258   0.569  2.0275  2.3655 -0.7939
14897TIP3   OH266105   5.517   4.536  12.116 -0.4955  0.6991 -0.0824
14897TIP3    H166106   5.581   4.603  12.093 -1.5300  1.5342 -0.5784
14897TIP3    H266107   5.478   4.510  12.033 -0.2131 -0.4392  0.1170
14898TIP3   OH266108   0.356   5.972   4.515  0.3088 -0.4792 -0.0237
14898TIP3    H166109   0.342   6.022   4.595  0.1235 -0.2911 -0.1713
14898TIP3    H266110   0.278   5.916   4.508  0.6291 -0.9701  0.2709
14899TIP3   OH266111   0.704   0.331   4.168 -0.0373  0.3307 -0.2478
14899TIP3    H166112   0.696   0.300   4.078 -3.5747  0.7385 -0.2158
14899TIP3    H266113   0.639   0.281   4.217  1.8442  0.0484  2.1872
14900TIP3   OH266114   4.215   2.080   5.551 -0.7649  0.1536 -0.0480
14900TIP3    H166115   4.131   2.035   5.559 -2.3389  3.1090  1.3246
14900TIP3    H266116   4.235   2.112   5.639  1.4809  0.1490 -0.4881
14901TIP3   OH266117   6.207   2.830  12.479  0.4623 -0.1958 -0.8542
14901TIP3    H166118   6.247   2.755  12.522  0.2215 -0.6084 -1.3396
14901TIP3    H266119   6.271   2.900  12.488  0.1371 -0.0745  0.7777
14902TIP3   OH266120   6.433   3.424  13.547 -0.1281  0.1327 -0.3309
14902TIP3    H166121   6.378   3.363  13.597  1.2236 -0.3365  0.6302
14902TIP3    H266122   6.375   3.457  13.478 -1.8228  0.1888  1.0553
14903TIP3   OH266123   1.594   0.770   0.284  0.1894 -0.3531 -0.2129
14903TIP3    H166124   1.524   0.710   0.310 -0.8811  0.6308 -0.7127
14903TIP3    H266125   1.641   0.790   0.366  0.8364 -2.1593 -0.1085
14904TIP3   OH266126   1.171   3.271  15.152  0.2779 -0.3550 -0.9042
14904TIP3    H166127   1.243   3.237  15.204  0.6286  1.2692 -0.2884
14904TIP3    H266128   1.161   3.207  15.081  1.0776 -1.5647  0.0325
14905TIP3   OH266129   1.071   1.521  15.174 -0.3933 -0.0006 -0.0494
14905TIP3    H166130   1.044   1.562  15.256 -1.5959 -0.4091 -0.2221
14905TIP3    H266131   1.051   1.428  15.186  2.3509 -0.6277  0.3688
14906TIP3   OH266132   1.073   3.007   1.763 -0.3847  0.4070  0.1605
14906TIP3    H166133   1.041   3.051   1.842 -1.8743 -2.2889  1.1703
14906TIP3    H266134   1.044   2.917   1.772  2.3182 -0.8112 -1.9092
14907TIP3   OH266135   0.596   0.619  14.285 -0.2058 -0.0717 -0.3644
14907TIP3    H166136   0.651   0.675  14.230 -1.3234  0.7427 -0.6903
14907TIP3    H266137   0.658   0.575  14.344  0.8324  0.4247 -1.0547
14908TIP3   OH266138   0.167   2.789  13.256 -0.6414 -0.1701 -0.3443
14908TIP3    H166139   0.184   2.756  13.167  0.5870  0.2729 -0.2814
14908TIP3    H266140   0.129   2.714  13.302 -1.2429 -0.4230 -1.2125
14909TIP3   OH266141   0.644   0.290   1.889 -0.1483  0.1990 -0.4321
14909TIP3    H166142   0.663   0.232   1.815 -0.0046 -0.4721  0.1133
14909TIP3    H266143   0.661   0.378   1.856  0.8633 -0.1552 -0.9050
14910TIP3   OH266144   0.093   6.099   4.579  0.4987  0.3033  0.1898
14910TIP3    H166145   0.147   6.100   4.658  2.1988  0.3111 -0.9384
14910TIP3    H266146   0.123   6.175   4.528 -1.5084  1.1181  0.1061
14911TIP3   OH266147   2.076   6.275  13.483  0.3845 -0.6187 -0.6325
14911TIP3    H166148   2.081   6.195  13.430  0.1679 -1.7536  1.0026
14911TIP3    H266149   2.161   6.317  13.471  0.5846 -1.1993 -1.3340
14912TIP3   OH266150   4.128   2.644  14.990  0.2438 -0.0266  0.3478
14912TIP3    H166151   4.179   2.576  14.945  1.2221 -0.7636  2.4054
14912TIP3    H266152   4.040   2.606  14.998 -0.1428  0.4007 -1.4400
14913TIP3   OH266153   3.157   3.917   6.034 -0.2231 -0.1694  0.0908
14913TIP3    H166154   3.164   3.922   5.939  0.8542  2.3825  0.2256
14913TIP3    H266155   3.221   3.980   6.067  0.0523 -1.5865  2.5643
14914TIP3   OH266156   4.096   0.395   1.750 -0.1296 -0.1259  0.3169
14914TIP3    H166157   4.104   0.490   1.744  0.5667 -0.0821  1.6900
14914TIP3    H266158   4.012   0.376   1.708 -0.2452  1.0781 -0.0399
14915TIP3   OH266159   5.576   3.808   2.591  0.4574 -0.2319  0.5054
14915TIP3    H166160   5.599   3.734   2.536 -2.2525 -0.6899 -0.1770
14915TIP3    H266161   5.492   3.783   2.631 -0.3356  2.2536  0.5813
14916TIP3   OH266162   4.099   4.326   1.508 -0.0741  0.7175 -0.7661
14916TIP3    H166163   4.016   4.286   1.533  0.3668  0.0745 -0.2755
14916TIP3    H266164   4.076   4.410   1.470 -0.8806  0.9804  0.2876
14917TIP3   OH266165   3.457   4.196  11.680  0.3159 -0.0167 -0.0536
14917TIP3    H166166   3.407   4.275  11.661 -0.5888 -0.4633  0.4047
14917TIP3    H266167   3.400   4.145  11.738  0.6311 -1.2642 -0.8047
14918TIP3   OH266168   6.147   4.611   5.031  0.1362  0.1601  0.1389
14918TIP3    H166169   6.066   4.562   5.041  0.5631 -0.6909 -0.4552
14918TIP3    H266170   6.127   4.678   4.965  0.3892 -1.1807 -1.3662
14919TIP3   OH266171   3.622   4.766   5.121  0.1121 -0.1672 -0.1127
14919TIP3    H166172   3.683   4.799   5.055 -1.9918  1.1401 -1.5268
14919TIP3    H266173   3.577   4.844   5.154 -0.2020 -0.9927  1.5483
14920TIP3   OH266174   6.073   1.297   6.050 -0.2322  0.2433 -0.0456
14920TIP3    H166175   5.982   1.322   6.067 -0.8923 -1.6910 -0.5039
14920TIP3    H266176   6.122   1.336   6.123 -1.2318  2.2374 -0.3747
14921TIP3   OH266177   5.922   6.287  15.606 -0.1605  0.4407 -0.3699
14921TIP3    H166178   5.865   6.217  15.638 -1.1553  1.6347  0.5229
14921TIP3    H266179   5.967   6.319  15.684  0.4864  0.6361 -0.8174
14922TIP3   OH266180   4.098   1.372  10.518 -0.0847  0.5614  0.0453
14922TIP3    H166181   4.093   1.451  10.573 -1.4202  0.5360  0.0043
14922TIP3    H266182   4.006   1.351  10.498  0.1324 -1.8102  1.2004
14923TIP3   OH266183   5.621   3.611  13.116  0.1633 -0.3809  0.4084
14923TIP3    H166184   5.575   3.688  13.150 -0.5339 -0.2946 -0.6776
14923TIP3    H266185   5.552   3.555  13.082  0.8532 -0.1312 -1.5146
14924TIP3   OH266186   4.244   1.149  11.374  0.0296  0.1331 -0.3776
14924TIP3    H166187   4.295   1.225  11.404 -0.8031  0.9368 -0.9587
14924TIP3    H266188   4.296   1.073  11.402  0.6013  0.8991  0.7071
14925TIP3   OH266189   4.286   5.066  15.366 -0.1025  0.1226 -0.1196
14925TIP3    H166190   4.349   5.098  15.430 -0.9916 -2.2077  2.1070
14925TIP3    H266191   4.326   4.986  15.332 -0.6862  0.0688 -0.6907
14926TIP3   OH266192   0.407   0.725   5.206 -0.0774  0.2811 -0.1472
14926TIP3    H166193   0.496   0.748   5.231 -0.3230  0.4688  0.5736
14926TIP3    H266194   0.417   0.653   5.144  0.5904  0.5749 -0.3886
14927TIP3   OH266195   3.812   0.061  14.801 -0.2410  0.0107  0.2008
14927TIP3    H166196   3.899   0.098  14.816 -0.5915  1.1950 -0.5187
14927TIP3    H266197   3.764   0.079  14.882 -0.3508  1.0014 -0.0737
14928TIP3   OH266198   5.513   6.708  12.656 -0.4778  0.1140  0.2492
14928TIP3    H166199   5.470   6.658  12.588  1.1262  0.1604 -0.8678
14928TIP3    H266200   5.506   6.654  12.735 -1.3852 -0.4559 -0.2093
14929TIP3   OH266201   0.499   0.530   1.472  0.4509  0.1992 -0.1931
14929TIP3    H166202   0.424   0.500   1.421  0.3855 -0.9153  0.5276
14929TIP3    H266203   0.568   0.467   1.452 -0.2020 -1.6236  2.6911
14930TIP3   OH266204   6.008   4.534  13.517  0.2956 -0.2208 -0.4392
14930TIP3    H166205   5.932   4.538  13.459  0.0591  0.2064 -0.1115
14930TIP3    H266206   6.076   4.583  13.470  0.7730 -1.6727 -1.3015
14931TIP3   OH266207   5.808   6.633  16.823  0.0523 -0.2934  0.3683
14931TIP3    H166208   5.892   6.610  16.783  0.7049 -0.1940  1.6230
14931TIP3    H266209   5.811   6.729  16.830 -0.0720 -0.3045  0.5826
14932TIP3   OH266210   4.872   4.047   5.475 -0.2407  0.1003  0.4806
14932TIP3    H166211   4.946   4.030   5.534 -0.5682 -1.5646  0.4668
14932TIP3    H266212   4.881   4.139   5.451  2.4659 -0.2935 -0.3727
14933TIP3   OH266213   2.506   6.275  13.788  1.0199  0.3844 -0.4144
14933TIP3    H166214   2.483   6.363  13.757 -0.6904  0.1787  0.1835
14933TIP3    H266215   2.602   6.275  13.791  1.0639  2.7700  1.0445
14934TIP3   OH266216   0.290   1.299  15.647 -0.1106 -0.1634 -0.8396
14934TIP3    H166217   0.320   1.350  15.571  0.4276  0.2186 -0.3734
14934TIP3    H266218   0.246   1.223  15.608  3.6218 -2.1826 -1.6332
14935TIP3   OH266219   4.362   2.964  13.084  0.0167  0.2714 -0.6798
14935TIP3    H166220   4.399   3.017  13.155 -0.4574 -1.1409  0.6774
14935TIP3    H266221   4.284   3.011  13.056 -0.4592  0.2704  0.5814
14936TIP3   OH266222   1.472   2.142   5.217 -0.4684 -0.0154  0.6847
14936TIP3    H166223   1.436   2.217   5.168  0.4882 -0.0346 -0.0732
14936TIP3    H266224   1.397   2.084   5.231 -0.7098 -0.1529 -1.0346
14937TIP3   OH266225   0.060   2.585  14.870 -0.4258 -0.4020  0.2534
14937TIP3    H166226   0.128   2.588  14.803  0.3720  0.1953  1.0611
14937TIP3    H266227  -0.022   2.586  14.822  0.1331 -0.4497 -0.7164
14938TIP3   OH266228   4.539   2.325   1.790  0.0819 -0.2494  0.2823
14938TIP3    H166229   4.447   2.323   1.766  0.1866 -1.3303 -0.0446
14938TIP3    H266230   4.581   2.261   1.733  1.0187  0.1541  0.5025
14939TIP3   OH266231   1.860   6.286  15.112  0.3091 -0.0047 -0.1087
14939TIP3    H166232   1.933   6.237  15.149  0.8468  1.2676  0.5829
14939TIP3    H266233   1.901   6.349  15.052 -0.2534  0.3352 -0.1493
14940TIP3   OH266234   5.688   5.856  11.914 -0.4288 -0.8215 -0.3437
14940TIP3    H166235   5.648   5.846  11.827 -0.3760  0.7327 -0.5722
14940TIP3    H266236   5.697   5.950  11.925  1.0468 -1.0603  0.6867
14941TIP3   OH266237   2.686   3.494  12.882  0.6200 -0.3311 -0.1892
14941TIP3    H166238   2.643   3.460  12.803  0.8717 -4.7627  1.3266
14941TIP3    H266239   2.779   3.475  12.869  0.8458  0.1594  0.6215
14942TIP3   OH266240   2.942   0.446   3.853 -0.4658 -0.4539  0.7247
14942TIP3    H166241   3.002   0.519   3.865 -1.4262 -0.0454  3.9238
14942TIP3    H266242   2.866   0.485   3.809 -0.1052 -0.0501  0.4486
14943TIP3   OH266243   2.783   6.325   5.464 -0.0605  0.0304  0.0831
14943TIP3    H166244   2.721   6.316   5.391 -0.1756 -2.1391  0.3882
14943TIP3    H266245   2.792   6.236   5.499  0.3481  0.9327  2.4476
14944TIP3   OH266246   3.358   1.297   5.725 -0.2864 -0.8549  0.1131
14944TIP3    H166247   3.333   1.205   5.733 -1.3916 -0.5690  0.0829
14944TIP3    H266248   3.275   1.343   5.711  0.4040 -0.0635 -1.7488
14945TIP3   OH266249   3.193   4.347   2.460  0.0321 -0.2738  0.0975
14945TIP3    H166250   3.286   4.353   2.484  0.0293 -1.8297  0.6077
14945TIP3    H266251   3.147   4.338   2.544 -0.5473  0.0414 -0.1775
14946TIP3   OH266252   3.706   4.550   0.779 -0.3018 -0.3224  0.4157
14946TIP3    H166253   3.723   4.642   0.799 -0.5065 -0.0139 -0.7266
14946TIP3    H266254   3.669   4.514   0.859  2.2869 -0.1161  1.8069
14947TIP3   OH266255   0.408   3.058   5.081  0.0567  0.1224  0.2116
14947TIP3    H166256   0.469   3.083   5.151  1.2130  1.0617 -1.0768
14947TIP3    H266257   0.379   3.142   5.044 -0.6469 -0.3617 -0.3658
14948TIP3   OH266258   5.155   2.193  16.465 -0.3266  0.2413  0.7038
14948TIP3    H166259   5.179   2.282  16.440  0.3409  0.1708  1.1000
14948TIP3    H266260   5.212   2.171  16.538  0.4970 -1.0135 -0.2634
14949TIP3   OH266261   0.839   0.885   2.924  0.2861  0.2379  0.0437
14949TIP3    H166262   0.782   0.883   2.847 -0.6458  0.7416  0.6914
14949TIP3    H266263   0.819   0.805   2.972  0.2610  0.3253  0.1800
14950TIP3   OH266264   1.391   6.312   6.660 -0.3323 -0.2090 -0.5588
14950TIP3    H166265   1.439   6.356   6.590  3.5322 -0.7617  1.4677
14950TIP3    H266266   1.425   6.223   6.659 -2.1260 -0.9334  0.3919
14951TIP3   OH266267   0.168   3.316   4.356 -0.0106  0.0211 -0.2451
14951TIP3    H166268   0.199   3.315   4.447 -1.8942  1.1771  0.4555
14951TIP3    H266269   0.217   3.387   4.315  0.0404  0.2248  0.1630
14952TIP3   OH266270   0.193   2.927  15.405 -0.2939  0.4245 -0.1832
14952TIP3    H166271   0.256   2.856  15.396 -0.8141 -0.1084  0.2277
14952TIP3    H266272   0.131   2.914  15.333  0.2102  1.1066 -0.7467
14953TIP3   OH266273   1.905   5.761   3.848  0.2545  0.5976 -0.4986
14953TIP3    H166274   1.977   5.770   3.910 -1.1544  0.0039  1.2718
14953TIP3    H266275   1.885   5.851   3.821  1.8422  0.7508 -1.3106
14954TIP3   OH266276   5.500   5.401   0.663  0.3412  0.6284  0.5487
14954TIP3    H166277   5.410   5.388   0.695 -0.4174  0.0200 -1.6481
14954TIP3    H266278   5.554   5.346   0.719 -0.3218  2.4381  3.1581
14955TIP3   OH266279   0.836   1.911   0.759  0.5983  0.4154  0.0941
14955TIP3    H166280   0.820   1.961   0.679  3.9159  2.3245  0.4173
14955TIP3    H266281   0.853   1.822   0.729 -1.2368  0.3769 -0.9534
14956TIP3   OH266282   0.013   1.844   1.178  1.1145  0.6998  0.1215
14956TIP3    H166283  -0.061   1.884   1.133  0.2326 -0.5281  0.4435
14956TIP3    H266284   0.007   1.877   1.268  0.5614  0.0805  0.3145
14957TIP3   OH266285   1.448   0.222  14.866 -0.2076  1.0969 -0.2681
14957TIP3    H166286   1.465   0.149  14.924 -0.5287  2.7846  2.0778
14957TIP3    H266287   1.481   0.193  14.781 -0.9027 -1.9659  0.3804
14958TIP3   OH266288   2.978   1.666   4.305 -0.0553  0.1049 -0.4255
14958TIP3    H166289   2.936   1.704   4.382 -0.5530  0.1582 -0.7204
14958TIP3    H266290   2.906   1.641   4.248  0.3025 -0.1949 -0.7544
14959TIP3   OH266291   5.981   0.620  14.029  0.1119 -0.0960 -0.2999
14959TIP3    H166292   5.960   0.678  14.102  1.6445  0.8306 -0.5600
14959TIP3    H266293   5.943   0.535  14.053 -0.6499  0.5710  0.8891
14960TIP3   OH266294   1.667   4.518   5.842  0.6699 -0.3376 -0.4525
14960TIP3    H166295   1.758   4.526   5.870  0.3337 -0.7236  0.8252
14960TIP3    H266296   1.652   4.593   5.785  1.5127  0.2636  0.0981
14961TIP3   OH266297   3.516   0.612  14.132 -0.1599 -0.3523  0.5195
14961TIP3    H166298   3.582   0.574  14.190 -0.1376  0.1078  0.8020
14961TIP3    H266299   3.438   0.558  14.146  0.0410 -0.6538  0.4818
14962TIP3   OH266300   6.639   3.078   4.115  0.0633  0.4003 -0.2692
14962TIP3    H166301   6.699   3.010   4.086 -0.9827  0.2435 -2.1784
14962TIP3    H266302   6.653   3.084   4.210  0.0858 -2.5257 -0.0238
14963TIP3   OH266303   0.258   4.979  11.296 -0.2889 -0.6926  0.1702
14963TIP3    H166304   0.320   5.032  11.245 -0.0930 -1.2611 -0.1828
14963TIP3    H266305   0.303   4.964  11.380 -0.1451 -0.7067  0.0906
14964TIP3   OH266306   3.381   3.465  11.284  0.4541 -0.3740 -0.1911
14964TIP3    H166307   3.301   3.416  11.267  0.9663 -1.4093  0.3350
14964TIP3    H266308   3.420   3.478  11.197  0.3823 -1.0141 -0.3199
14965TIP3   OH266309   5.613   0.112   3.403  0.4303  0.1433  0.3149
14965TIP3    H166310   5.528   0.074   3.385  0.3616 -0.2993  1.4792
14965TIP3    H266311   5.599   0.206   3.397  0.2290  0.0539 -0.9876
14966TIP3   OH266312   6.189   1.944  12.984  0.1635  0.0581 -0.1768
14966TIP3    H166313   6.260   1.955  13.046 -0.9123  0.3662  1.0529
14966TIP3    H266314   6.197   1.853  12.953 -0.5047 -0.8331  2.0514
14967TIP3   OH266315   1.932   0.808   5.753  0.2695 -0.4401 -0.3434
14967TIP3    H166316   1.901   0.829   5.841  0.7788 -1.7032  0.1608
14967TIP3    H266317   2.016   0.854   5.745 -0.9708  1.8606 -1.2046
14968TIP3   OH266318   5.993   3.331  12.757  0.0626  0.4015  0.3614
14968TIP3    H166319   5.906   3.337  12.797 -0.2943  0.6795 -0.4302
14968TIP3    H266320   6.032   3.417  12.773  0.3393  0.1619  1.0220
14969TIP3   OH266321   6.101   5.632   1.662  0.1413  0.7216 -0.4293
14969TIP3    H166322   6.145   5.692   1.723  0.4825  1.0650 -1.0027
14969TIP3    H266323   6.171   5.603   1.603  0.4100 -1.7958  1.0222
14970TIP3   OH266324   5.298   3.888   3.322 -0.1028  0.6950 -0.0260
14970TIP3    H166325   5.331   3.855   3.406  0.0190  0.0184 -0.3315
14970TIP3    H266326   5.362   3.859   3.257 -0.8006  0.1677 -0.5040
14971TIP3   OH266327   0.992   5.887   3.165 -0.5258 -0.5893  0.0279
14971TIP3    H166328   0.936   5.833   3.221 -1.5137 -0.4945 -0.8374
14971TIP3    H266329   0.990   5.842   3.080 -1.2059  0.6691 -0.6599
14972TIP3   OH266330   3.837   0.578   0.607 -0.2965  0.7340  0.4051
14972TIP3    H166331   3.798   0.560   0.693 -0.4032  0.7725  0.3641
14972TIP3    H266332   3.801   0.663   0.582 -1.4875  0.0306 -0.3823
14973TIP3   OH266333   5.339   1.280   4.492 -0.4215  0.1549 -0.7809
14973TIP3    H166334   5.392   1.346   4.448  0.5492 -0.6304 -0.8462
14973TIP3    H266335   5.255   1.322   4.509  0.3149  1.5296 -0.4448
14974TIP3   OH266336   4.801   4.011  15.264  0.7831 -0.2003 -0.6926
14974TIP3    H166337   4.780   3.933  15.315 -1.9412  0.3603 -0.8026
14974TIP3    H266338   4.848   3.978  15.187 -0.1792 -1.7350 -0.6634
14975TIP3   OH266339   1.305   3.006   0.431  0.1024  0.2271 -0.1747
14975TIP3    H166340   1.347   2.922   0.447 -0.5743  0.1506  1.4652
14975TIP3    H266341   1.262   2.996   0.346 -0.9283 -1.5262  0.4909
14976TIP3   OH266342   1.129   5.681  17.059  0.2483  1.0649  0.2865
14976TIP3    H166343   1.216   5.647  17.083  0.2741 -0.3194 -1.5210
14976TIP3    H266344   1.145   5.772  17.033  0.9908  1.1209  0.9005
14977TIP3   OH266345   2.804   5.126  14.305 -0.4637  0.1047 -0.1965
14977TIP3    H166346   2.793   5.038  14.340 -0.3006 -0.1310 -0.7241
14977TIP3    H266347   2.718   5.148  14.268  0.1191 -0.7976 -2.2068
14978TIP3   OH266348   1.133   5.775  13.625 -0.0677  0.0143  0.1956
14978TIP3    H166349   1.144   5.680  13.619  0.5158 -0.0582  1.9016
14978TIP3    H266350   1.149   5.795  13.717 -1.0887  1.6623  0.0497
14979TIP3   OH266351   4.857   3.104  13.406 -0.7318 -0.0646  0.2289
14979TIP3    H166352   4.800   3.034  13.438 -1.5075  0.3549 -0.2252
14979TIP3    H266353   4.833   3.115  13.314 -0.1005  0.2973  0.0997
14980TIP3   OH266354   0.580   3.732   5.338  0.0383 -0.2993 -0.2860
14980TIP3    H166355   0.587   3.818   5.295  0.1513 -0.2818 -0.2332
14980TIP3    H266356   0.487   3.710   5.333  0.2809 -1.1048 -2.1305
14981TIP3   OH266357   5.978   6.338  15.879 -0.9078  0.6362  0.6571
14981TIP3    H166358   6.029   6.392  15.941 -2.0789  3.4595 -0.6350
14981TIP3    H266359   5.917   6.289  15.934  1.6069 -1.1443  2.0562
14982TIP3   OH266360   1.025   2.645  15.188 -0.2569 -0.8796 -0.0156
14982TIP3    H166361   1.000   2.595  15.266  1.1757 -0.8620  0.5036
14982TIP3    H266362   0.963   2.717  15.184 -0.3758 -0.9076  1.0926
14983TIP3   OH266363   0.730   0.964  14.759 -0.1995 -0.3805 -0.3834
14983TIP3    H166364   0.783   1.033  14.718 -0.5758 -0.0987 -0.4012
14983TIP3    H266365   0.787   0.887  14.759 -0.0817 -0.3014 -1.1524
14984TIP3   OH266366   4.230   5.952  12.717 -0.1905 -0.2347  0.1385
14984TIP3    H166367   4.156   6.005  12.748 -0.0206  0.8089 -1.1381
14984TIP3    H266368   4.303   5.979  12.773 -0.0050  1.2423 -0.7541
14985TIP3   OH266369   6.633   3.416   5.383 -0.4206  0.0589 -0.0133
14985TIP3    H166370   6.606   3.336   5.338  0.7048 -0.0738 -0.4698
14985TIP3    H266371   6.728   3.408   5.392 -0.3914  0.9937  0.6269
14986TIP3   OH266372   2.483   4.824   5.250  0.1754 -0.4314  0.4970
14986TIP3    H166373   2.555   4.867   5.204  0.1767  0.7410  1.5516
14986TIP3    H266374   2.433   4.781   5.181  0.1519  1.3139 -0.6068
14987TIP3   OH266375   5.066   4.489  12.436 -0.2049  0.5769  0.3320
14987TIP3    H166376   5.042   4.443  12.355  0.3934  1.9790 -0.6858
14987TIP3    H266377   5.095   4.420  12.495 -0.0004 -0.4270 -0.8916
14988TIP3   OH266378   5.746   3.946   2.382  0.0559 -0.5448 -0.4574
14988TIP3    H166379   5.666   3.998   2.376  0.1060 -0.4956 -0.6819
14988TIP3    H266380   5.715   3.855   2.377  0.0393 -0.5208 -0.8243
14989TIP3   OH266381   3.930   2.625  14.021 -0.2236 -0.0866 -0.0151
14989TIP3    H166382   3.846   2.588  14.045  0.2399 -0.5485  0.9489
14989TIP3    H266383   3.946   2.593  13.932 -1.4313  0.6996 -0.5393
14990TIP3   OH266384   2.418   3.915  11.681 -0.1714 -0.1865  0.4203
14990TIP3    H166385   2.452   3.840  11.631 -1.5346 -0.7161  0.2496
14990TIP3    H266386   2.452   3.992  11.636 -1.4381 -0.6493 -1.4296
14991TIP3   OH266387   0.027   2.316   0.418 -0.0639 -0.5347  0.3538
14991TIP3    H166388   0.108   2.295   0.372  0.7571  1.8291  0.6084
14991TIP3    H266389   0.055   2.371   0.491 -1.9133  0.4837  0.3379
14992TIP3   OH266390   5.016   5.170   5.889 -0.2874 -0.2669 -0.1264
14992TIP3    H166391   5.110   5.158   5.898 -0.3609 -0.9941 -0.2529
14992TIP3    H266392   4.987   5.198   5.976 -0.0955 -1.0396  0.1928
14993TIP3   OH266393   0.886   5.559  13.809 -0.1109  0.1687  0.1601
14993TIP3    H166394   0.956   5.534  13.748  0.7861  2.0125  0.3431
14993TIP3    H266395   0.907   5.513  13.890  1.4991  1.3710  0.4997
14994TIP3   OH266396   5.023   5.782  12.752 -0.5923 -0.9897 -0.6201
14994TIP3    H166397   4.945   5.830  12.723 -0.8613 -1.8080 -1.2751
14994TIP3    H266398   5.023   5.702  12.700 -0.1340 -1.7072  0.4440
14995TIP3   OH266399   0.494   1.931  15.441  0.2405 -0.1646  0.4295
14995TIP3    H166400   0.426   1.874  15.476 -1.0449  0.8526 -0.3248
14995TIP3    H266401   0.452   2.017  15.432  1.9857  0.8112  1.0903
14996TIP3   OH266402   5.887   1.243  11.690 -0.0277  0.1417  0.3187
14996TIP3    H166403   5.824   1.271  11.756 -1.3675 -0.6773 -0.5821
14996TIP3    H266404   5.846   1.168  11.648 -0.1600  1.8238 -2.8299
14997TIP3   OH266405   2.606   6.082  10.412 -0.7755 -0.5500 -0.1226
14997TIP3    H166406   2.592   6.175  10.432 -1.4248 -0.7587  0.4530
14997TIP3    H266407   2.521   6.041  10.429  0.1920 -1.7300  2.4944
14998TIP3   OH266408   4.338   1.045   2.517  0.2222 -0.4812 -0.2695
14998TIP3    H166409   4.380   1.074   2.599  2.0332 -2.0967 -0.5364
14998TIP3    H266410   4.268   0.987   2.546  1.2443 -1.5411  0.1950
14999TIP3   OH266411   0.319   3.957   5.866 -0.2469  0.5131 -0.0120
14999TIP3    H166412   0.279   3.968   5.952 -1.9754 -0.3977 -0.6528
14999TIP3    H266413   0.328   3.863   5.855 -1.8427  0.4679 -1.5507
15000TIP3   OH266414   6.538   2.398   0.474  0.1431 -0.3972  0.1821
15000TIP3    H166415   6.618   2.361   0.438  0.4229  0.1077  0.2724
15000TIP3    H266416   6.468   2.343   0.439  0.4159 -0.0007 -1.0376
15001TIP3   OH266417   0.304   5.096  15.636  0.0504  0.5825 -0.2615
15001TIP3    H166418   0.239   5.140  15.582  0.5975 -0.8183 -2.1718
15001TIP3    H266419   0.354   5.167  15.677 -1.4647  1.6687 -0.2183
15002TIP3   OH266420   5.874   0.969  14.031  0.4313 -0.4552  0.2109
15002TIP3    H166421   5.939   1.036  14.052  0.9979 -0.4635 -1.3424
15002TIP3    H266422   5.902   0.935  13.945 -0.9325 -1.3256  0.0822
15003TIP3   OH266423   2.855   0.934  16.054 -0.2934 -0.2501  0.0295
15003TIP3    H166424   2.848   0.857  16.110  0.3217 -0.5632 -0.3134
15003TIP3    H266425   2.911   0.995  16.104  0.0114 -0.4120 -0.1101
15004TIP3   OH266426   5.457   4.165   5.518  0.1056 -0.0154  0.0831
15004TIP3    H166427   5.391   4.233   5.531 -0.0927 -0.0426 -0.7442
15004TIP3    H266428   5.522   4.181   5.587  0.1513  1.1162 -0.2088
15005TIP3   OH266429   4.257   4.737  13.607  0.0827  0.1265 -1.2015
15005TIP3    H166430   4.301   4.652  13.617  2.6119  1.4161 -0.5052
15005TIP3    H266431   4.184   4.733  13.669  1.9234 -0.5193  1.0691
15006TIP3   OH266432   6.053   5.685  15.778 -0.3684  0.4791  0.2391
15006TIP3    H166433   6.000   5.605  15.781 -1.1153  0.9507 -0.1758
15006TIP3    H266434   6.010   5.740  15.712  1.3427  0.3924 -1.0069
15007TIP3   OH266435   2.896   4.828  13.778 -0.2450 -0.6039  0.0258
15007TIP3    H166436   2.843   4.870  13.845 -1.4661 -0.3369 -1.0563
15007TIP3    H266437   2.928   4.900  13.724 -0.1550 -0.8833 -0.2970
15008TIP3   OH266438   6.346   6.263   1.836 -0.1098  0.8708 -0.1180
15008TIP3    H166439   6.264   6.278   1.884 -0.0764 -0.2178  0.2973
15008TIP3    H266440   6.321   6.207   1.762  0.0288  1.6710 -0.7857
15009TIP3   OH266441   3.369   2.768   1.266  0.4512 -0.2326 -0.1427
15009TIP3    H166442   3.358   2.828   1.340 -0.5383  1.5788 -1.6540
15009TIP3    H266443   3.358   2.824   1.189  2.1303 -1.9169 -1.6882
15010TIP3   OH266444   4.865   2.450  16.174  0.1091 -0.7344 -0.2601
15010TIP3    H166445   4.936   2.388  16.155 -1.1171 -2.0809 -0.6319
15010TIP3    H266446   4.788   2.412  16.132 -0.8936  0.5942  0.2930
15011TIP3   OH266447   0.820   4.516   2.731 -0.1093  0.1308  0.3284
15011TIP3    H166448   0.798   4.607   2.711  1.4895  0.3906 -0.3443
15011TIP3    H266449   0.797   4.505   2.823  0.3439  1.4215  0.6013
15012TIP3   OH266450   3.317   4.666  11.784 -0.0336 -0.0542  0.0872
15012TIP3    H166451   3.258   4.624  11.846 -1.4515  2.9380  0.8856
15012TIP3    H266452   3.404   4.652  11.821 -0.7429  0.5274  2.0639
15013TIP3   OH266453   0.824   4.703  15.050 -0.5276  0.3896 -0.5995
15013TIP3    H166454   0.911   4.676  15.079 -0.6695  0.2536 -0.3081
15013TIP3    H266455   0.814   4.663  14.963 -1.7271 -2.6344  0.7895
15014TIP3   OH266456   5.081   6.295   4.508 -0.0687  0.1310  0.1642
15014TIP3    H166457   5.078   6.213   4.556 -0.7197  1.2281  2.1310
15014TIP3    H266458   5.175   6.316   4.501  0.0818 -0.6112 -0.0725
15015TIP3   OH266459   4.240   5.392  16.755  0.6262  0.4439 -0.1999
15015TIP3    H166460   4.306   5.362  16.818  0.9382  3.2557  0.9753
15015TIP3    H266461   4.173   5.434  16.809  0.5015  2.2487 -1.6751
15016TIP3   OH266462   5.248   5.165   0.789 -0.5216 -0.2999  0.0070
15016TIP3    H166463   5.153   5.164   0.794 -0.4933  1.2507  1.4965
15016TIP3    H266464   5.267   5.166   0.695 -1.9378 -0.9166 -0.3097
15017TIP3   OH266465   6.663   2.555  16.760 -0.7588  0.3084  0.1375
15017TIP3    H166466   6.679   2.551  16.855  1.2693 -0.1729 -0.1941
15017TIP3    H266467   6.578   2.598  16.753 -0.0847  2.1529  2.1225
15018TIP3   OH266468   4.818   4.333  14.498 -0.0085 -0.4500 -0.3632
15018TIP3    H166469   4.837   4.241  14.515  2.6570 -0.0332 -0.5733
15018TIP3    H266470   4.828   4.376  14.583  0.9799 -0.0983 -0.6335
15019TIP3   OH266471   1.276   4.657   4.959  0.2171 -0.5557  0.3081
15019TIP3    H166472   1.252   4.647   4.867 -0.9017 -0.4552  0.5799
15019TIP3    H266473   1.300   4.750   4.967  0.5585 -0.6219  0.0669
15020TIP3   OH266474   0.216   3.028   0.496 -0.3769  0.1325  0.4304
15020TIP3    H166475   0.232   3.052   0.587  0.5460  1.5644 -0.0579
15020TIP3    H266476   0.162   3.099   0.461  1.8144  1.2801 -0.8879
15021TIP3   OH266477   0.684   5.513   4.721 -0.0251 -0.1373  0.6073
15021TIP3    H166478   0.617   5.460   4.678 -0.8408  0.9309  0.5160
15021TIP3    H266479   0.679   5.598   4.677  1.1279  0.0816  0.8710
15022TIP3   OH266480   1.603   2.252  14.364  0.0903 -0.3116 -0.4297
15022TIP3    H166481   1.552   2.333  14.363  2.4977  1.3006 -1.2425
15022TIP3    H266482   1.618   2.231  14.272  3.7793  1.3265 -0.3796
15023TIP3   OH266483   2.288   5.993   2.253  0.0848  0.6288 -0.1409
15023TIP3    H166484   2.256   6.011   2.342  0.4185  0.8692 -0.0710
15023TIP3    H266485   2.221   5.935   2.216  0.3104 -0.0924  0.5267
15024TIP3   OH266486   5.482   6.324  12.664  0.6387 -0.3447 -0.1041
15024TIP3    H166487   5.523   6.309  12.579 -1.1098  1.4062 -1.3518
15024TIP3    H266488   5.409   6.262  12.667  0.6812 -0.3853  0.1298
15025TIP3   OH266489   0.776   6.156   2.673  0.3279 -0.7777  0.1097
15025TIP3    H166490   0.758   6.166   2.580  1.5709  0.3373 -0.0425
15025TIP3    H266491   0.739   6.234   2.714  1.2887 -0.4155  0.3093
15026TIP3   OH266492   2.743   2.137   5.812  0.8348  0.2602  0.6236
15026TIP3    H166493   2.822   2.182   5.781  1.6150 -0.8553  0.9288
15026TIP3    H266494   2.776   2.062   5.862 -0.4194 -0.3038  0.6457
15027TIP3   OH266495   2.833   6.125  14.321 -0.3308  0.2521  0.1961
15027TIP3    H166496   2.919   6.165  14.309 -1.1805  2.1521  0.0063
15027TIP3    H266497   2.787   6.141  14.238 -0.4858 -1.8559 -0.1785
15028TIP3   OH266498   4.719   4.856   1.798  0.6076  0.2381  0.0417
15028TIP3    H166499   4.711   4.931   1.739  0.1506 -0.1808 -0.4408
15028TIP3    H266500   4.630   4.821   1.805  0.7885 -0.1575  0.3877
15029TIP3   OH266501   6.235   6.760  12.581 -0.2557  0.3014  0.3642
15029TIP3    H166502   6.162   6.697  12.578  1.0814 -1.3385  1.0154
15029TIP3    H266503   6.257   6.766  12.674  0.4786  0.7388  0.1665
15030TIP3   OH266504   6.621   2.156   3.556  0.2863 -0.1293  0.0401
15030TIP3    H166505   6.590   2.072   3.589  1.5895 -0.7205 -0.1844
15030TIP3    H266506   6.706   2.137   3.516  1.7021  1.6487  1.9575
15031TIP3   OH266507   4.982   0.319   1.120 -0.2315 -0.1329 -0.0551
15031TIP3    H166508   4.889   0.323   1.141 -0.5134  0.5436 -1.2785
15031TIP3    H266509   4.994   0.387   1.053  1.4461  0.8284  1.1544
15032TIP3   OH266510   2.739   4.404   4.727 -0.5940 -0.2544 -0.5447
15032TIP3    H166511   2.691   4.377   4.806 -0.2504  2.5712  0.7358
15032TIP3    H266512   2.816   4.347   4.725  0.1765  0.5690  2.0716
15033TIP3   OH266513   2.943   1.209   4.620  0.0140 -0.5593 -0.1493
15033TIP3    H166514   2.897   1.202   4.704 -0.9677  1.8243 -0.3962
15033TIP3    H266515   3.008   1.278   4.634  0.8277 -1.1423 -0.9539
15034TIP3   OH266516   4.787   6.512  10.766 -0.3361 -0.4132 -0.1311
15034TIP3    H166517   4.830   6.557  10.693 -1.1142  0.5216 -0.0278
15034TIP3    H266518   4.844   6.437  10.784  0.0023 -0.5184 -1.5282
15035TIP3   OH266519   5.510   4.913  15.755 -0.5707  0.3284 -0.2792
15035TIP3    H166520   5.446   4.856  15.797 -1.0128  1.1601  0.2138
15035TIP3    H266521   5.561   4.855  15.699 -0.8271 -0.5827  0.4109
15036TIP3   OH266522   1.462   1.425  17.228 -0.1404  0.1139 -0.2293
15036TIP3    H166523   1.406   1.350  17.209 -0.7248  0.6607 -0.7502
15036TIP3    H266524   1.423   1.497  17.177  1.4647  0.3441 -1.1928
15037TIP3   OH266525   4.373   5.028  17.125  0.9962 -0.0467 -0.1532
15037TIP3    H166526   4.425   4.950  17.145 -1.2932 -1.1289  2.1802
15037TIP3    H266527   4.336   5.055  17.209 -1.4298  1.1741 -1.4797
15038TIP3   OH266528   4.387   5.286  14.448 -0.4470  0.5805 -0.0950
15038TIP3    H166529   4.462   5.286  14.390  0.6252 -0.2888  1.2220
15038TIP3    H266530   4.413   5.344  14.521 -0.7850 -0.2099  0.6712
15039TIP3   OH266531   1.188   4.558   4.675 -0.3829 -0.0216  0.3515
15039TIP3    H166532   1.248   4.521   4.611  0.3645  0.2291  0.8978
15039TIP3    H266533   1.102   4.527   4.648  0.0046 -0.4898 -0.3638
15040TIP3   OH266534   2.128   3.393   4.516 -0.1412  0.2542 -0.1445
15040TIP3    H166535   2.090   3.428   4.436 -3.2338 -0.9379  0.6590
15040TIP3    H266536   2.065   3.328   4.547  1.3075  0.0632  2.8292
15041TIP3   OH266537   0.429   5.178  16.346 -0.1045 -0.7745  0.3249
15041TIP3    H166538   0.344   5.219  16.331 -0.3002 -0.7231  1.5359
15041TIP3    H266539   0.414   5.118  16.419  1.2612  0.3534  1.5600
15042TIP3   OH266540   2.990   5.879  11.589  0.0305 -0.4016 -0.2873
15042TIP3    H166541   3.080   5.857  11.566 -0.0354  0.0348 -1.0192
15042TIP3    H266542   2.994   5.903  11.681  0.9354  0.9474 -0.6392
15043TIP3   OH266543   4.104   3.640   0.597 -0.3559 -0.2534 -0.0607
15043TIP3    H166544   4.159   3.646   0.674 -0.1481  1.2956 -0.3058
15043TIP3    H266545   4.165   3.648   0.523 -0.8398  1.1380 -0.3373
15044TIP3   OH266546   0.202   4.037   5.637  0.3520 -0.3430  0.2930
15044TIP3    H166547   0.135   4.085   5.686 -0.8544 -3.3857  1.8986
15044TIP3    H266548   0.251   3.989   5.704  0.7183 -2.2191 -1.2447
15045TIP3   OH266549   6.539   2.910   0.827  0.5398  0.5459 -0.0543
15045TIP3    H166550   6.458   2.951   0.857  0.6711  0.7745 -0.0117
15045TIP3    H266551   6.599   2.918   0.901  0.3121 -0.4524  0.2514
15046TIP3   OH266552   2.076   4.937   0.352  0.0065  0.2690 -0.1722
15046TIP3    H166553   2.066   5.026   0.388  2.2015  0.4776  0.0431
15046TIP3    H266554   2.091   4.951   0.259 -2.1420 -0.0787 -0.6289
15047TIP3   OH266555   1.945   1.761  12.309  0.2738  0.2882  0.4155
15047TIP3    H166556   1.867   1.800  12.348 -0.9725 -0.8550 -0.8514
15047TIP3    H266557   1.973   1.823  12.242  0.1031  0.4239  0.4714
15048TIP3   OH266558   3.433   0.355  13.901  0.7179  0.0568 -0.1285
15048TIP3    H166559   3.417   0.403  13.982  1.2594 -1.0864  0.6850
15048TIP3    H266560   3.492   0.412  13.851 -2.6700  2.6475 -1.5819
15049TIP3   OH266561   1.267   2.345   2.098  0.5999  0.8544  0.2181
15049TIP3    H166562   1.180   2.325   2.132  0.4516  2.3282  0.8129
15049TIP3    H266563   1.286   2.275   2.036 -1.3272  0.9079 -0.4920
15050TIP3   OH266564   5.707   0.825   5.130 -0.0748  0.0277 -0.1858
15050TIP3    H166565   5.742   0.736   5.141 -1.3782 -0.8176 -2.3212
15050TIP3    H266566   5.622   0.823   5.173 -0.7370 -0.2285 -1.4686
15051TIP3   OH266567   3.121   4.731   4.495  0.1691 -0.0962 -0.1367
15051TIP3    H166568   3.077   4.817   4.490 -1.7793 -1.0581 -0.6014
15051TIP3    H266569   3.054   4.669   4.466  1.1482 -1.9233  1.3277
15052TIP3   OH266570   3.295   3.634   3.620 -0.2727  0.3745 -0.5157
15052TIP3    H166571   3.215   3.655   3.669  0.5449 -0.5505  1.2940
15052TIP3    H266572   3.297   3.539   3.617  2.3227  0.1840  2.3534
15053TIP3   OH266573   6.469   1.614   2.694  0.2622  0.1305  0.1489
15053TIP3    H166574   6.419   1.571   2.762  1.8765 -1.8115  0.2206
15053TIP3    H266575   6.536   1.664   2.741  0.6138 -0.2085  0.0122
15054TIP3   OH266576   2.279   2.996   4.488  0.3530 -0.0992  0.2013
15054TIP3    H166577   2.222   2.922   4.467 -0.3410 -0.1077  1.9640
15054TIP3    H266578   2.221   3.072   4.492  0.5334 -0.0079  1.4746
15055TIP3   OH266579   2.158   3.919  11.735  0.2928  0.2363 -0.3391
15055TIP3    H166580   2.253   3.924  11.723  0.2208  1.1187 -0.6017
15055TIP3    H266581   2.123   3.916  11.645  0.0859 -0.5722 -0.2430
15056TIP3   OH266582   5.137   1.499   3.394 -0.1051 -0.0909 -0.3208
15056TIP3    H166583   5.149   1.426   3.333  0.0565 -0.5323  0.2334
15056TIP3    H266584   5.202   1.564   3.367 -0.6080  0.0823 -1.1544
15057TIP3   OH266585   1.053   3.021  15.862  0.6947 -0.0845  0.7635
15057TIP3    H166586   1.052   2.985  15.951 -0.6686  0.2298  0.8980
15057TIP3    H266587   1.002   3.101  15.868 -0.1062 -0.4696 -0.4574
15058TIP3   OH266588   3.210   1.241  13.178 -0.0375 -0.3467  0.0700
15058TIP3    H166589   3.158   1.276  13.105  0.1509 -0.7708 -0.2677
15058TIP3    H266590   3.301   1.257  13.152  0.0166  1.4120  1.1563
15059TIP3   OH266591   5.190   0.716   3.215  0.0575  0.2589  0.1414
15059TIP3    H166592   5.192   0.696   3.308 -0.2046  0.8592  0.2820
15059TIP3    H266593   5.276   0.754   3.197  0.0915  0.1857  0.1470
15060TIP3   OH266594   6.125   2.372  13.326  0.3176 -0.3694  0.2238
15060TIP3    H166595   6.129   2.439  13.257  1.1392 -0.2423  0.3909
15060TIP3    H266596   6.216   2.356  13.350  0.0889 -1.0695  0.6566
15061TIP3   OH266597   3.995   6.345  14.012 -0.3238 -0.1621  0.0326
15061TIP3    H166598   4.013   6.430  14.050  0.9419 -0.6734  0.6438
15061TIP3    H266599   4.082   6.308  13.994 -0.6816 -2.4766  2.3964
15062TIP3   OH266600   6.694   3.278   2.793  0.2946 -0.2227  0.3608
15062TIP3    H166601   6.710   3.370   2.814 -1.4447  0.0402  0.6595
15062TIP3    H266602   6.649   3.279   2.709  0.8938 -0.8641  0.0154
15063TIP3   OH266603   5.874   0.067   3.414 -0.5221 -0.0417  0.1692
15063TIP3    H166604   5.779   0.066   3.405 -0.5489  1.4104 -0.0197
15063TIP3    H266605   5.905   0.119   3.340  0.2065  1.4679  1.4613
15064TIP3   OH266606   1.563   0.252  15.214  0.4158  0.4480  0.1757
15064TIP3    H166607   1.509   0.180  15.247  0.7943  1.2587  2.7980
15064TIP3    H266608   1.502   0.326  15.206  0.3597  0.3024 -0.9154
15065TIP3   OH266609   3.795   0.304  16.470  0.0091 -0.0988  1.0207
15065TIP3    H166610   3.749   0.297  16.386 -1.1593 -3.0792  1.7671
15065TIP3    H266611   3.885   0.329  16.446 -0.3244 -0.7258 -1.1192
15066TIP3   OH266612   0.848   5.235  11.986  0.2305  0.3968 -0.3535
15066TIP3    H166613   0.870   5.183  11.909 -1.2733 -1.6222  0.4686
15066TIP3    H266614   0.871   5.179  12.060  0.6897  1.8724  0.6547
15067TIP3   OH266615   5.144   3.338   5.701 -0.4553  0.0604 -0.4892
15067TIP3    H166616   5.214   3.319   5.639 -0.8282  2.4450 -1.7780
15067TIP3    H266617   5.156   3.431   5.723 -1.4772 -0.2347  1.5717
15068TIP3   OH266618   0.401   3.672   5.879 -0.0410  0.2185  0.1435
15068TIP3    H166619   0.490   3.651   5.850 -1.0028 -3.3415 -0.7242
15068TIP3    H266620   0.400   3.651   5.972  0.4552  2.1677  0.6374
15069TIP3   OH266621   3.730   0.015   2.365  0.1355 -0.0209 -0.0354
15069TIP3    H166622   3.779   0.066   2.430  0.0835  0.6534 -0.5065
15069TIP3    H266623   3.783  -0.062   2.349 -0.3708 -0.7528  1.6058
15070TIP3   OH266624   6.189   3.330   1.423  0.0206  0.2512  0.0909
15070TIP3    H166625   6.168   3.391   1.351 -0.6439  0.5140  0.4955
15070TIP3    H266626   6.195   3.386   1.500 -0.2180 -0.1478  0.4020
15071TIP3   OH266627   1.413   6.603  13.178 -0.0039 -0.7786  0.0769
15071TIP3    H166628   1.344   6.666  13.193 -0.0539 -0.8816  0.2851
15071TIP3    H266629   1.373   6.536  13.123  0.6886  0.5237 -2.1293
15072TIP3   OH266630   1.053   3.737  12.412 -0.1687  0.3115 -0.2994
15072TIP3    H166631   1.101   3.709  12.490 -1.6633 -1.2606  0.1178
15072TIP3    H266632   1.030   3.655  12.367 -3.2766  0.8607  0.0728
15073TIP3   OH266633   5.303   3.303   0.701 -0.1661 -0.1278 -0.2491
15073TIP3    H166634   5.326   3.358   0.626 -2.1706  1.1533  0.0268
15073TIP3    H266635   5.269   3.363   0.766 -0.1767 -1.4463  1.0179
15074TIP3   OH266636   1.984   1.451   2.217  0.0686 -0.3889  0.4191
15074TIP3    H166637   2.076   1.427   2.229  0.6962  0.9464 -1.2541
15074TIP3    H266638   1.956   1.480   2.304  2.3783  2.6291  0.3439
15075TIP3   OH266639   2.004   4.907   3.205  0.1589 -0.1822  0.3571
15075TIP3    H166640   1.977   4.816   3.220  1.0512 -0.3464  1.0552
15075TIP3    H266641   1.987   4.922   3.112  0.5031 -1.2336  0.1128
15076TIP3   OH266642   5.751   5.342   3.567  0.1342 -0.2320 -0.4826
15076TIP3    H166643   5.824   5.319   3.511  0.9649  1.6939 -0.2840
15076TIP3    H266644   5.759   5.437   3.578  0.1142 -0.5188  2.9912
15077TIP3   OH266645   2.109   1.193   3.291  0.4534  0.0914 -0.4682
15077TIP3    H166646   2.152   1.201   3.376  0.0685 -1.8008 -0.0631
15077TIP3    H266647   2.178   1.212   3.227  1.1866 -0.1749  0.2331
15078TIP3   OH266648   4.690   4.555   2.166 -0.3947 -0.7268 -0.0795
15078TIP3    H166649   4.693   4.637   2.117 -2.0904 -0.1390  0.7173
15078TIP3    H266650   4.725   4.577   2.253  0.4505 -1.2044 -0.2860
15079TIP3   OH266651   2.185   4.242  15.162  0.3447  0.3246  0.0608
15079TIP3    H166652   2.202   4.182  15.235  0.7000 -1.6297 -1.5293
15079TIP3    H266653   2.234   4.204  15.089 -0.4121  1.9289 -1.3240
15080TIP3   OH266654   3.062   3.792   1.071  0.6419  0.3454 -0.1493
15080TIP3    H166655   3.048   3.854   1.000  1.1114 -0.4895 -0.9791
15080TIP3    H266656   3.015   3.713   1.044  1.7439 -0.3547 -0.0621
15081TIP3   OH266657   3.035   3.250   2.848 -0.3094  0.6711  0.3820
15081TIP3    H166658   3.011   3.213   2.764  1.2354 -0.3913  0.3561
15081TIP3    H266659   2.952   3.269   2.891 -1.1276 -0.1117 -0.7991
15082TIP3   OH266660   0.088   3.327   1.782  0.1430 -0.2222  0.1628
15082TIP3    H166661   0.033   3.397   1.748  0.0606 -0.0111  0.7294
15082TIP3    H266662   0.078   3.256   1.717 -1.5753 -0.5597  0.7279
15083TIP3   OH266663   3.041   2.494  16.763  0.3648  0.0919 -0.1128
15083TIP3    H166664   3.006   2.436  16.831 -0.7376 -0.9940 -1.5515
15083TIP3    H266665   3.115   2.445  16.726  1.7013  1.1753  1.0251
15084TIP3   OH266666   0.807   3.544   2.188 -0.1304 -0.3529  0.1179
15084TIP3    H166667   0.759   3.478   2.138  0.0227 -2.0006  2.0098
15084TIP3    H266668   0.884   3.564   2.135 -0.8560 -0.6557 -1.1031
15085TIP3   OH266669   5.435   0.243   5.710  0.0233 -0.2743 -0.4725
15085TIP3    H166670   5.352   0.280   5.680  0.4156 -0.3884 -1.7630
15085TIP3    H266671   5.483   0.317   5.746 -0.4426 -0.1226 -0.1578
15086TIP3   OH266672   3.870   5.493   5.853  0.5093 -0.2434  0.2484
15086TIP3    H166673   3.799   5.555   5.837  0.4359 -0.8271 -1.9527
15086TIP3    H266674   3.897   5.464   5.766  4.9591  1.5798  0.7508
15087TIP3   OH266675   1.900   1.278  16.050  0.2681 -0.1959 -0.4010
15087TIP3    H166676   1.827   1.294  16.110  0.8001  1.9140 -0.2678
15087TIP3    H266677   1.975   1.262  16.107  0.5769  0.8738 -0.4960
15088TIP3   OH266678   2.229   0.436  14.197 -0.4281  0.6217 -0.1408
15088TIP3    H166679   2.281   0.503  14.152 -0.0761  1.2158  1.0991
15088TIP3    H266680   2.291   0.392  14.255 -0.8617 -0.1663 -0.2568
15089TIP3   OH266681   3.158   2.307  11.802 -0.1460 -0.4259 -0.9036
15089TIP3    H166682   3.143   2.393  11.841 -3.0010 -0.5701 -1.4496
15089TIP3    H266683   3.203   2.326  11.720  0.7253  0.3816 -0.2608
15090TIP3   OH266684   0.306   4.218  14.139  0.1448  0.0894  0.0892
15090TIP3    H166685   0.217   4.251  14.144  0.3595  0.4448  2.7422
15090TIP3    H266686   0.308   4.142  14.197  0.8699 -1.8768 -2.2923
15091TIP3   OH266687   4.931   4.710   1.836  0.1715  0.2440  0.2644
15091TIP3    H166688   4.950   4.646   1.768 -0.0644  0.2853  0.1614
15091TIP3    H266689   4.849   4.751   1.809 -0.8218 -0.9056  1.4328
15092TIP3   OH266690   5.971   0.595  14.423 -0.0487 -0.0205  0.5312
15092TIP3    H166691   5.932   0.665  14.372  0.2515  0.4379  0.9204
15092TIP3    H266692   6.041   0.560  14.367 -0.0083  0.1851  0.4529
15093TIP3   OH266693   6.525   1.412  12.634 -0.3555  0.0668 -0.3537
15093TIP3    H166694   6.495   1.423  12.544 -0.8464 -1.9322 -0.4655
15093TIP3    H266695   6.544   1.319  12.643  0.9784  0.4424  1.2370
15094TIP3   OH266696   3.212   0.386  16.492  0.2376 -0.0155 -0.2842
15094TIP3    H166697   3.230   0.439  16.570 -2.4548 -0.6410  0.8674
15094TIP3    H266698   3.148   0.437  16.442 -0.7616 -1.2095 -0.2491
15095TIP3   OH266699   4.876   4.857  10.430 -0.1454  0.2091  0.1328
15095TIP3    H166700   4.920   4.917  10.489  0.0859 -0.6990  0.9113
15095TIP3    H266701   4.927   4.862  10.349 -0.0398  0.9318  0.2365
15096TIP3   OH266702   6.426   0.082  14.819  0.2754 -0.8630 -0.4122
15096TIP3    H166703   6.332   0.075  14.805  0.3053 -2.1867 -0.0808
15096TIP3    H266704   6.437   0.163  14.867 -0.7901 -1.1105  0.2782
15097TIP3   OH266705   6.354   3.983   4.033  0.5053  0.0758  0.1207
15097TIP3    H166706   6.278   4.035   4.060 -0.5848 -0.2616 -1.9947
15097TIP3    H266707   6.317   3.899   4.008  1.1326  0.6372 -3.1571
15098TIP3   OH266708   4.371   1.590   3.900  0.0468 -0.7377 -1.1560
15098TIP3    H166709   4.396   1.681   3.916  1.3137 -0.7569 -2.7374
15098TIP3    H266710   4.283   1.582   3.938  0.8826  0.4304  1.1680
15099TIP3   OH266711   4.974   0.560   6.039  0.5027  0.0548 -0.4162
15099TIP3    H166712   4.916   0.636   6.035  1.9877  1.5616  2.5943
15099TIP3    H266713   4.929   0.498   6.095  0.1242 -0.4943 -1.3121
15100TIP3   OH266714   5.450   5.810   1.902 -0.3692  0.1581 -0.0864
15100TIP3    H166715   5.473   5.731   1.854 -0.9633  0.7513 -1.3986
15100TIP3    H266716   5.356   5.821   1.887 -0.3171  1.0484  0.1815
15101TIP3   OH266717   3.860   5.782   5.997 -0.3947 -0.6401 -0.3314
15101TIP3    H166718   3.878   5.715   5.932 -1.0084 -1.5874  0.4418
15101TIP3    H266719   3.824   5.734   6.072 -1.5775  0.6264 -0.0387
15102TIP3   OH266720   4.948   2.451   6.442 -0.7544  0.1941 -0.3492
15102TIP3    H166721   4.863   2.494   6.433 -0.4614  0.9838  0.4934
15102TIP3    H266722   5.005   2.518   6.480 -0.7431 -1.3906  2.7669
15103TIP3   OH266723   4.098   0.929   2.602  0.4193  0.2747 -0.6620
15103TIP3    H166724   4.004   0.909   2.605  0.2935  0.7683 -1.0919
15103TIP3    H266725   4.113   0.986   2.677  0.5341 -0.4335 -0.1429
15104TIP3   OH266726   4.045   3.028  12.083 -0.0173 -0.6317  0.2860
15104TIP3    H166727   3.977   3.061  12.025  0.5988 -2.8002 -1.7998
15104TIP3    H266728   4.002   2.960  12.135 -0.0229 -0.2085  0.8573
15105TIP3   OH266729   1.390   2.030  16.536 -0.4500 -0.1796  0.2762
15105TIP3    H166730   1.448   2.084  16.484  2.4566 -2.1769  1.1863
15105TIP3    H266731   1.371   1.954  16.481  1.3554 -1.5421  1.4138
15106TIP3   OH266732   5.277   1.867   4.930 -0.2013 -0.1682 -0.1417
15106TIP3    H166733   5.340   1.889   4.999  1.9081 -1.7447 -1.4394
15106TIP3    H266734   5.262   1.773   4.941 -1.2328 -0.0824 -0.7307
15107TIP3   OH266735   1.189   2.366   2.391 -0.9977  0.1003 -0.6256
15107TIP3    H166736   1.274   2.401   2.365 -0.8853 -0.4887 -1.0863
15107TIP3    H266737   1.192   2.274   2.364 -0.1337 -1.1523  3.0878
15108TIP3   OH266738   6.594   0.027  17.338 -0.0646 -0.3663  0.5417
15108TIP3    H166739   6.642   0.060  17.414  0.6427 -0.1100 -0.0064
15108TIP3    H266740   6.508   0.068  17.344  0.2033  0.1571  0.8574
15109TIP3   OH266741   5.629   3.347   4.103 -0.5750 -0.3732 -0.4561
15109TIP3    H166742   5.559   3.282   4.110  0.6125 -1.6179  0.3061
15109TIP3    H266743   5.639   3.381   4.193 -0.6666  0.3288 -0.7017
15110TIP3   OH266744   5.180   4.585   6.563  0.0962  0.6046  0.5124
15110TIP3    H166745   5.129   4.542   6.495 -0.0575  1.6147 -0.0394
15110TIP3    H266746   5.208   4.515   6.621  0.3076 -0.2975 -0.6424
15111TIP3   OH266747   4.631   1.342  13.823 -0.1797 -0.0926 -0.2150
15111TIP3    H166748   4.558   1.287  13.851 -0.4295 -1.6045 -3.3655
15111TIP3    H266749   4.597   1.432  13.830 -1.8468 -0.6860 -0.2194
15112TIP3   OH266750   5.966   5.633  10.721  0.0779  0.0684  0.7319
15112TIP3    H166751   6.023   5.705  10.694  0.6317 -0.3122  0.8653
15112TIP3    H266752   5.910   5.617  10.645  0.3003  0.2981  0.5177
15113TIP3   OH266753   4.879   5.330  17.018  0.3223 -0.1995 -0.1787
15113TIP3    H166754   4.921   5.362  17.098  1.9366 -0.2239 -0.9662
15113TIP3    H266755   4.819   5.400  16.992 -0.7690 -0.4906  1.3982
15114TIP3   OH266756   1.010   6.674  15.438  0.1511 -0.2591  0.1662
15114TIP3    H166757   0.972   6.598  15.481  0.0269 -0.5275 -0.4192
15114TIP3    H266758   0.937   6.712  15.388  0.5111 -0.4600 -0.5188
15115TIP3   OH266759   2.757   1.949   2.491  0.5367  0.4723 -0.9122
15115TIP3    H166760   2.699   1.878   2.465 -1.3488  1.2490  0.9580
15115TIP3    H266761   2.820   1.908   2.550 -1.1778  0.4627  1.0033
15116TIP3   OH266762   1.117   6.752  17.144  0.1831  0.2595  0.1024
15116TIP3    H166763   1.196   6.707  17.172 -0.1340  0.4449  1.3656
15116TIP3    H266764   1.124   6.756  17.048  0.5502 -1.8183  0.0051
15117TIP3   OH266765   2.282   1.475  16.716 -0.1515  0.2371 -0.4837
15117TIP3    H166766   2.209   1.414  16.705 -0.8517  0.6678  1.4259
15117TIP3    H266767   2.358   1.418  16.729  0.0657 -0.2236 -3.2522
15118TIP3   OH266768   5.373   0.264   0.574 -0.1228 -0.0810 -0.3416
15118TIP3    H166769   5.443   0.313   0.531  0.7002 -0.5567  0.4138
15118TIP3    H266770   5.413   0.229   0.654 -1.2751 -0.2101  0.2115
15119TIP3   OH266771   2.819   1.579   1.964  0.2728 -0.1639 -0.1128
15119TIP3    H166772   2.760   1.623   1.902  1.0909  2.3047  0.7406
15119TIP3    H266773   2.906   1.592   1.927  0.7004  0.6833  1.1551
15120TIP3   OH266774   4.227   6.041   4.590  0.5790 -0.3870 -0.4757
15120TIP3    H166775   4.294   6.088   4.640 -1.4655 -0.1518  2.2533
15120TIP3    H266776   4.151   6.100   4.590 -1.7437 -3.0475  2.1767
15121TIP3   OH266777   6.543   2.122   0.959  0.1052 -0.4320 -0.2666
15121TIP3    H166778   6.517   2.104   1.050 -0.4910 -0.6194 -0.4697
15121TIP3    H266779   6.496   2.056   0.908 -0.1921  0.1823 -0.7912
15122TIP3   OH266780   6.026   6.329   1.090  0.5435  0.2075 -0.1288
15122TIP3    H166781   6.028   6.235   1.104 -1.5517  0.2989  1.2598
15122TIP3    H266782   6.036   6.368   1.177 -2.7710  1.0777  0.0021
15123TIP3   OH266783   0.132   3.412  11.342  0.1558  0.2719  0.0251
15123TIP3    H166784   0.196   3.356  11.385  0.6834  0.2056 -0.8223
15123TIP3    H266785   0.093   3.356  11.274 -0.0458  0.6235 -0.1513
15124TIP3   OH266786   2.927   6.353   3.284 -0.0600  0.1134 -0.7158
15124TIP3    H166787   2.948   6.278   3.340 -0.8426  1.4445  1.4847
15124TIP3    H266788   3.003   6.361   3.226  0.1887 -2.1539 -0.8073
15125TIP3   OH266789   0.748   5.965  16.040 -0.3638  0.7909 -0.0227
15125TIP3    H166790   0.781   5.961  16.130  1.4416  3.1219 -0.4806
15125TIP3    H266791   0.653   5.960  16.048 -0.1906 -1.9947  1.7204
15126TIP3   OH266792   4.868   4.636   3.068  0.4857  0.1751  0.0799
15126TIP3    H166793   4.888   4.677   2.984 -0.5421  1.0013  0.2184
15126TIP3    H266794   4.869   4.707   3.131 -1.0787 -0.0242  0.3641
15127TIP3   OH266795   3.760   5.358  14.710 -0.5805 -0.2433  1.0659
15127TIP3    H166796   3.823   5.286  14.706  0.2352  0.4374  1.1467
15127TIP3    H266797   3.678   5.322  14.677 -0.2461 -1.2646  1.3301
15128TIP3   OH266798   2.120   6.552   0.831  0.1300 -0.5570  0.4124
15128TIP3    H166799   2.149   6.629   0.879 -1.1057  1.1411 -1.4029
15128TIP3    H266800   2.091   6.586   0.746 -1.3281 -2.8981 -0.1245
15129TIP3   OH266801   5.010   4.469   2.309  0.2920  0.1000  0.4906
15129TIP3    H166802   5.027   4.474   2.215  1.1323 -0.5128  0.5977
15129TIP3    H266803   4.988   4.378   2.326  0.3303  0.1634  0.9108
15130TIP3   OH266804   3.665   5.731   3.936 -0.2210  0.6972 -0.4010
15130TIP3    H166805   3.721   5.655   3.925  0.0514  0.8247  0.0755
15130TIP3    H266806   3.674   5.780   3.854 -0.1668  0.3739 -0.5898
15131TIP3   OH266807   2.502   0.659   5.288 -0.1493  0.8152 -0.6148
15131TIP3    H166808   2.489   0.753   5.279  0.1779  0.8670 -0.5708
15131TIP3    H266809   2.511   0.627   5.199 -1.9199  0.5690 -0.7368
15132TIP3   OH266810   5.141   2.606  15.678  0.1183  0.5896  0.6970
15132TIP3    H166811   5.121   2.563  15.594 -0.5753  0.4629  0.9259
15132TIP3    H266812   5.078   2.570  15.739 -0.3438  1.7886  0.9505
15133TIP3   OH266813   2.741   6.472  12.192  0.0694 -0.4876 -0.0309
15133TIP3    H166814   2.793   6.508  12.119  0.1009 -1.1450 -0.3406
15133TIP3    H266815   2.806   6.449  12.258 -0.0755  1.9292  1.0724
15134TIP3   OH266816   2.882   6.241   1.346 -0.4700  0.0518 -0.2056
15134TIP3    H166817   2.831   6.253   1.425 -1.3156  0.2176 -0.7682
15134TIP3    H266818   2.907   6.330   1.320  3.0379 -0.1313  1.9021
15135TIP3   OH266819   3.524   4.845  16.205 -0.3247 -0.4927  0.0486
15135TIP3    H166820   3.471   4.766  16.216 -0.3420 -0.4839  0.0281
15135TIP3    H266821   3.612   4.812  16.187  0.0130 -0.5144  1.6134
15136TIP3   OH266822   4.417   6.640  14.513 -0.4271  1.0368  0.1322
15136TIP3    H166823   4.366   6.712  14.474 -1.2819  1.4049  1.8452
15136TIP3    H266824   4.384   6.633  14.602 -0.3818 -1.5139  0.0235
15137TIP3   OH266825   3.184   5.523  16.541  0.6451  0.6799  0.2358
15137TIP3    H166826   3.166   5.528  16.447 -1.1434 -0.6045  0.4576
15137TIP3    H266827   3.099   5.537  16.583  1.0763 -0.5336  1.5984
15138TIP3   OH266828   4.659   4.255  15.441 -0.2571  0.2058 -0.1904
15138TIP3    H166829   4.677   4.256  15.347 -1.1392 -0.5384 -0.3829
15138TIP3    H266830   4.665   4.162  15.465 -0.6851  0.3156  0.3513
15139TIP3   OH266831   5.363   1.226   3.416  0.0585  0.3186 -0.1651
15139TIP3    H166832   5.446   1.215   3.369  0.4622  0.9827  0.3828
15139TIP3    H266833   5.334   1.137   3.434  1.2509  0.0830  0.6673
15140TIP3   OH266834   4.169   5.890   4.852 -0.6832 -0.2345  0.6702
15140TIP3    H166835   4.154   5.949   4.925  1.6947  1.6860 -0.2516
15140TIP3    H266836   4.146   5.941   4.774 -0.1741 -1.1078 -0.0810
15141TIP3   OH266837   4.855   2.300  14.218  0.1488 -0.3729  0.0932
15141TIP3    H166838   4.804   2.288  14.138  0.2284 -0.8991  0.1162
15141TIP3    H266839   4.850   2.215  14.262 -1.2406  0.3464  1.4491
15142TIP3   OH266840   5.547   2.311  13.082  0.1597 -0.4264 -0.1150
15142TIP3    H166841   5.597   2.233  13.057  0.6099  0.2713 -1.4479
15142TIP3    H266842   5.457   2.279  13.090  0.2020 -0.9284 -1.4540
15143TIP3   OH266843   3.364   6.312  13.974 -0.1963 -1.0999 -0.5286
15143TIP3    H166844   3.296   6.334  14.038  1.6720  1.7480  0.6729
15143TIP3    H266845   3.364   6.386  13.913  1.1811 -1.5270 -1.0801
15144TIP3   OH266846   6.166   2.312   4.172 -0.1387 -0.2309  0.0665
15144TIP3    H166847   6.125   2.280   4.252 -0.7552 -0.7684 -0.4555
15144TIP3    H266848   6.234   2.372   4.203 -0.5979 -0.1571  0.9811
15145TIP3   OH266849   2.845   1.433  15.599 -0.4700  0.2174  0.3771
15145TIP3    H166850   2.799   1.505  15.554  0.0337  0.7354  0.6704
15145TIP3    H266851   2.859   1.367  15.531  0.5929  1.1354 -0.3254
15146TIP3   OH266852   2.550   6.491   1.149  0.0186  0.2889  0.3080
15146TIP3    H166853   2.507   6.575   1.137  1.6505  1.1278  0.0573
15146TIP3    H266854   2.590   6.496   1.236  0.5620 -0.0023  0.0846
15147TIP3   OH266855   1.792   6.595   0.895  0.5275  0.5659  0.5588
15147TIP3    H166856   1.731   6.541   0.845  0.1977  1.7595 -0.3868
15147TIP3    H266857   1.752   6.604   0.981  1.7162 -2.5945  1.6064
15148TIP3   OH266858   5.650   2.444   1.674  0.6595  0.3902  0.5002
15148TIP3    H166859   5.555   2.438   1.669  0.3841  2.3044  2.0203
15148TIP3    H266860   5.674   2.389   1.749  1.0764 -1.9541 -1.2516
15149TIP3   OH266861   1.111   5.709  15.960 -0.0468 -0.7330  0.4490
15149TIP3    H166862   1.066   5.710  15.875  0.8575 -0.5000 -0.0381
15149TIP3    H266863   1.157   5.626  15.962 -0.9408 -1.2315  1.2010
15150TIP3   OH266864   0.417   0.253   6.922 -0.1385 -0.0017  0.2751
15150TIP3    H166865   0.371   0.337   6.917  1.0861  0.6480 -3.6656
15150TIP3    H266866   0.494   0.271   6.976  0.1104  1.4391 -0.5213
15151TIP3   OH266867   2.082   5.768   0.117 -0.5281  0.3871 -0.5014
15151TIP3    H166868   2.018   5.765   0.188 -0.8791  0.0357 -0.8277
15151TIP3    H266869   2.100   5.676   0.097 -0.4575  0.4838 -0.8888
15152TIP3   OH266870   0.826   6.505   2.335 -0.2489  0.5903  0.1351
15152TIP3    H166871   0.749   6.561   2.347 -1.0119 -0.4269  0.1531
15152TIP3    H266872   0.804   6.450   2.259  0.3996  0.1999  0.2255
15153TIP3   OH266873   4.984   0.650  15.625  0.3500  0.0372 -0.2619
15153TIP3    H166874   5.055   0.712  15.644  0.1417 -0.4744  2.7359
15153TIP3    H266875   4.939   0.639  15.709 -0.5386 -3.0636 -1.0156
15154TIP3   OH266876   6.580   0.111  13.086  0.6124 -0.1207 -0.0506
15154TIP3    H166877   6.604   0.119  12.994  1.2311  0.1269  0.1281
15154TIP3    H266878   6.664   0.104  13.132  0.2958 -0.7872  0.4432
15155TIP3   OH266879   5.109   6.074   5.137  0.3112 -0.1458  0.4722
15155TIP3    H166880   5.069   6.022   5.067  0.4653  0.1763  0.1423
15155TIP3    H266881   5.179   6.017   5.171 -0.8847 -1.0142  1.5615
15156TIP3   OH266882   6.117   1.450  17.175  0.2045 -0.1035  0.4254
15156TIP3    H166883   6.043   1.392  17.192  0.0138  0.5001  1.8903
15156TIP3    H266884   6.192   1.407  17.216  0.3726 -0.0716  0.1484
15157TIP3   OH266885   2.307   2.117  12.479  0.0847  0.6450 -0.4397
15157TIP3    H166886   2.320   2.025  12.455 -0.4433  1.2455 -3.3952
15157TIP3    H266887   2.364   2.165  12.418  0.0870  2.3001  0.8190
15158TIP3   OH266888   0.620   2.561   0.614  1.4980 -0.1045  0.0277
15158TIP3    H166889   0.627   2.466   0.602 -2.9978 -0.4517 -1.9091
15158TIP3    H266890   0.655   2.598   0.533  0.0851 -0.3920 -0.7350
15159TIP3   OH266891   1.419   3.986  12.291 -0.4338 -0.8964 -0.0491
15159TIP3    H166892   1.415   3.969  12.197 -1.1308  2.5360 -0.7787
15159TIP3    H266893   1.331   4.014  12.314 -0.3848 -2.1136  1.7865
15160TIP3   OH266894   0.403   2.497   4.639 -0.0193 -0.6321 -0.2011
15160TIP3    H166895   0.475   2.522   4.695  0.3905 -1.9375 -0.0994
15160TIP3    H266896   0.426   2.532   4.553  0.8005 -1.1134 -0.1922
15161TIP3   OH266897   5.058   2.004   3.298  0.2350 -0.5455 -0.0898
15161TIP3    H166898   5.124   2.072   3.295 -0.4891  0.1314 -2.6639
15161TIP3    H266899   5.071   1.962   3.384  1.8239  1.6444  0.8338
15162TIP3   OH266900   3.076   0.480   5.303  0.3871 -0.0141 -0.2992
15162TIP3    H166901   3.139   0.430   5.250  1.1595  0.2943  0.3136
15162TIP3    H266902   3.129   0.523   5.370 -0.5508 -0.2395  0.6159
15163TIP3   OH266903   5.456   4.838   5.777 -0.4096  0.3085 -0.2005
15163TIP3    H166904   5.424   4.758   5.736  0.1093  1.1528 -2.4152
15163TIP3    H266905   5.397   4.907   5.744 -1.0242  0.8486  1.8807
15164TIP3   OH266906   6.634   3.153  15.385 -0.6613  0.3213  0.2648
15164TIP3    H166907   6.712   3.183  15.431  0.3709 -3.0448  0.9993
15164TIP3    H266908   6.633   3.204  15.304  1.6112  1.2960  0.7772
15165TIP3   OH266909   5.272   0.831   3.926 -0.0096  0.5646 -0.0486
15165TIP3    H166910   5.184   0.861   3.906 -0.6628 -0.9958  0.3577
15165TIP3    H266911   5.261   0.768   3.997  1.5249  0.9428  0.5633
15166TIP3   OH266912   0.183   6.144  11.156  0.1471 -0.0444 -0.3737
15166TIP3    H166913   0.268   6.171  11.120  1.3671 -1.8535  0.9666
15166TIP3    H266914   0.170   6.056  11.121  0.0322 -0.7340  1.3430
15167TIP3   OH266915   0.844   1.007   0.369 -0.1584 -0.0555  0.7679
15167TIP3    H166916   0.929   1.009   0.325  0.1977  0.8543  1.4625
15167TIP3    H266917   0.811   0.918   0.354 -0.9036  0.7111 -2.8504
15168TIP3   OH266918   5.079   6.360   2.587 -0.0711 -0.1909 -0.0750
15168TIP3    H166919   5.003   6.352   2.645 -0.6427 -1.5656 -0.9666
15168TIP3    H266920   5.074   6.450   2.554 -0.0105  0.4569  1.5861
15169TIP3   OH266921   1.429   3.015  13.383 -0.3580  0.3460 -0.2550
15169TIP3    H166922   1.377   3.007  13.463  0.4841 -0.4940  0.2318
15169TIP3    H266923   1.445   3.109  13.373 -2.6905  0.7348 -0.9199
15170TIP3   OH266924   1.515   1.646  14.135 -0.1321 -0.1225 -0.3083
15170TIP3    H166925   1.575   1.708  14.093 -1.3022  1.8056  0.6803
15170TIP3    H266926   1.437   1.647  14.080 -0.8546  0.7616  0.6745
15171TIP3   OH266927   1.469   1.751  16.637 -0.3750 -0.0502 -0.0812
15171TIP3    H166928   1.383   1.715  16.618 -0.8550  1.6024 -1.1849
15171TIP3    H266929   1.454   1.815  16.707  0.1515 -0.5008  0.4660
15172TIP3   OH266930   2.615   1.904  14.986  0.3004 -0.4270  0.0589
15172TIP3    H166931   2.664   1.823  14.969  4.5696  2.0660 -0.9795
15172TIP3    H266932   2.676   1.960  15.033 -2.8515  1.9045  1.7452
15173TIP3   OH266933   3.433   4.892  14.812  0.6897 -0.0271 -0.0507
15173TIP3    H166934   3.399   4.862  14.897  0.5168  0.9011  0.2175
15173TIP3    H266935   3.482   4.817  14.778  0.2506 -0.6153  0.5927
15174TIP3   OH266936   6.193   3.371  14.153  0.3569  0.5404  0.1573
15174TIP3    H166937   6.130   3.315  14.199  0.4082 -1.2825 -1.7899
15174TIP3    H266938   6.266   3.381  14.214 -0.3638 -0.2304  1.1726
15175TIP3   OH266939   4.864   0.153   1.916 -0.3292 -0.0150  0.2576
15175TIP3    H166940   4.912   0.149   1.999 -0.4329  0.1914  0.3281
15175TIP3    H266941   4.930   0.134   1.850 -0.1700  0.1601  0.3631
15176TIP3   OH266942   4.774   4.244  14.908  0.0751  0.3261  0.5397
15176TIP3    H166943   4.809   4.158  14.888 -0.6160  0.3435 -0.9017
15176TIP3    H266944   4.734   4.234  14.994  0.5749 -0.6025  0.6803
15177TIP3   OH266945   1.533   5.203   5.680  0.1816 -0.1287  0.0213
15177TIP3    H166946   1.621   5.221   5.647 -0.1930  0.6486 -0.5741
15177TIP3    H266947   1.548   5.166   5.768  1.1019 -0.2108 -0.1572
15178TIP3   OH266948   1.434   2.792   5.509 -0.1809 -0.2359 -0.3416
15178TIP3    H166949   1.390   2.733   5.570  1.0140  1.1112  1.9946
15178TIP3    H266950   1.526   2.765   5.511  0.6553  2.2347  1.7525
15179TIP3   OH266951   0.478   3.040   1.126 -0.2358  0.2348 -0.2956
15179TIP3    H166952   0.437   3.080   1.203 -0.8835 -2.1910  0.7196
15179TIP3    H266953   0.556   3.094   1.110 -1.4916  2.3657  0.3937
15180TIP3   OH266954   2.479   1.427  17.368 -0.5468 -0.5604  0.0350
15180TIP3    H166955   2.477   1.337  17.338 -2.3353 -0.8856  1.0011
15180TIP3    H266956   2.438   1.477  17.297 -1.6571 -0.8456  0.4637
15181TIP3   OH266957   1.154   2.177  16.976  0.4547  0.2403 -0.4561
15181TIP3    H166958   1.219   2.185  16.906  1.7342  0.3040  0.6999
15181TIP3    H266959   1.154   2.263  17.019 -1.7796  0.8578 -1.5783
15182TIP3   OH266960   0.648   3.964   5.996 -0.5812  0.3977 -0.6028
15182TIP3    H166961   0.714   3.964   6.066 -1.1873 -2.1884  0.0330
15182TIP3    H266962   0.564   3.956   6.041 -1.0341 -0.6227 -1.5972
15183TIP3   OH266963   4.616   3.408  13.692 -0.3852  0.2474  0.1902
15183TIP3    H166964   4.649   3.495  13.672 -0.1216  0.5129  1.6393
15183TIP3    H266965   4.552   3.422  13.762  0.8355 -0.8484  1.5907
15184TIP3   OH266966   3.814   1.394   4.576 -0.5494  0.1029  0.4586
15184TIP3    H166967   3.870   1.317   4.586 -1.6830 -0.8519 -0.2918
15184TIP3    H266968   3.853   1.444   4.504  1.1699  1.1651  2.0406
15185TIP3   OH266969   4.246   2.192   3.406  0.0635 -0.6373  0.1657
15185TIP3    H166970   4.269   2.101   3.388  0.8637 -0.7673  1.6263
15185TIP3    H266971   4.322   2.242   3.375  0.0251 -0.5645  0.1897
15186TIP3   OH266972   5.404   6.572  16.093  0.0945  0.1198  0.3312
15186TIP3    H166973   5.347   6.495  16.089 -0.1041  0.2271  0.9701
15186TIP3    H266974   5.448   6.565  16.177 -0.4758  1.0852  0.7209
15187TIP3   OH266975   3.892   5.666  16.502 -0.0051 -0.3925 -0.2146
15187TIP3    H166976   3.878   5.735  16.437 -1.7130  0.4904  1.0103
15187TIP3    H266977   3.805   5.633  16.522  0.5278 -1.0148  1.2269
15188TIP3   OH266978   3.473   2.840   2.436 -0.3487  0.8710 -0.3603
15188TIP3    H166979   3.508   2.928   2.417 -1.6646  1.4462 -0.2444
15188TIP3    H266980   3.384   2.856   2.466  0.5946 -0.2058  3.4684
15189TIP3   OH266981   3.598   1.608  15.869  0.4728  0.5776  0.6372
15189TIP3    H166982   3.667   1.673  15.854  0.3252  0.2817 -1.6911
15189TIP3    H266983   3.632   1.527  15.832 -1.2133  0.5086 -0.8916
15190TIP3   OH266984   0.660   5.206  13.920 -0.0642 -0.4459 -0.2880
15190TIP3    H166985   0.737   5.166  13.881  1.4912 -0.5869  2.6145
15190TIP3    H266986   0.666   5.183  14.013 -2.3969  1.4747  0.4373
15191TIP3   OH266987   1.710   2.127   0.662 -0.0274  0.6835 -0.1688
15191TIP3    H166988   1.725   2.033   0.677  1.9102  0.8411 -0.7870
15191TIP3    H266989   1.639   2.130   0.598  0.2964 -0.4066 -0.6120
15192TIP3   OH266990   2.610   5.486   2.838  0.1889  0.0015  0.3531
15192TIP3    H166991   2.623   5.420   2.770  0.9647 -0.1568  0.6512
15192TIP3    H266992   2.541   5.449   2.894 -1.9114  0.9922 -1.4115
15193TIP3   OH266993   5.454   4.109   3.667  0.1073  0.0466  0.2151
15193TIP3    H166994   5.447   4.014   3.670  0.6176 -0.0156 -0.3889
15193TIP3    H266995   5.396   4.135   3.595 -0.3437  0.2235  0.6447
15194TIP3   OH266996   3.563   0.829   6.364 -0.6258  0.0824 -0.3857
15194TIP3    H166997   3.474   0.808   6.336 -0.6818 -0.3419  0.0909
15194TIP3    H266998   3.619   0.780   6.304 -0.7147  0.2869 -0.6372
15195TIP3   OH266999   2.192   0.005  13.390 -0.1833  0.0489  0.0593
15195TIP3    H167000   2.124   0.023  13.326 -1.3953  0.9362  1.5310
15195TIP3    H267001   2.274   0.012  13.341 -1.0324 -4.4690 -2.6371
15196TIP3   OH267002   2.603   1.800  17.002  0.1484 -1.1088  0.1746
15196TIP3    H167003   2.674   1.839  17.052 -0.3143 -0.1904  0.1261
15196TIP3    H267004   2.628   1.813  16.910 -1.2258  1.4883  0.0849
15197TIP3   OH267005   4.108   1.917  14.585 -0.3022  0.2862 -0.1961
15197TIP3    H167006   4.043   1.950  14.647 -2.5932  0.5964 -2.6255
15197TIP3    H267007   4.077   1.830  14.562  1.3163 -0.4031  0.1382
15198TIP3   OH267008   3.551   5.260   6.060 -0.8192  0.0512 -0.2760
15198TIP3    H167009   3.589   5.303   6.136  0.2737 -2.2529  0.5643
15198TIP3    H267010   3.626   5.237   6.005 -1.4839  0.3516 -1.3482
15199TIP3   OH267011   5.498   6.622   5.430 -0.2150 -0.5194 -0.2822
15199TIP3    H167012   5.589   6.625   5.400 -0.0331 -0.2696  0.2700
15199TIP3    H267013   5.487   6.702   5.481 -1.4305  0.5822 -2.1796
15200TIP3   OH267014   2.520   2.065  14.783 -0.0598 -0.3642 -0.1668
15200TIP3    H167015   2.545   2.006  14.854  1.3698  1.8842  1.3273
15200TIP3    H267016   2.500   2.007  14.709  1.7365 -2.6650  1.0270
15201TIP3   OH267017   6.493   6.275   5.815 -0.5079 -0.1973  0.1974
15201TIP3    H167018   6.506   6.214   5.742 -0.2094 -1.3967  1.2096
15201TIP3    H267019   6.541   6.354   5.790 -1.3610 -0.1516 -1.3935
15202TIP3   OH267020   5.324   0.931   2.676  0.2983 -0.2968 -0.3030
15202TIP3    H167021   5.376   0.852   2.658  2.3471  1.0005 -0.4388
15202TIP3    H267022   5.260   0.903   2.741  0.7736 -2.1408 -0.5670
15203TIP3   OH267023   5.088   3.922  14.100 -0.2965  0.0624 -0.4012
15203TIP3    H167024   5.071   3.998  14.157  1.5881 -1.0686  1.8061
15203TIP3    H267025   5.038   3.851  14.140 -0.8062 -0.2563 -1.5630
15204TIP3   OH267026   4.596   1.955   2.300 -0.3192  0.6711 -0.6776
15204TIP3    H167027   4.502   1.973   2.311 -0.4355  1.2480 -2.2968
15204TIP3    H267028   4.599   1.882   2.238  0.3084 -0.3320  0.4763
15205TIP3   OH267029   6.589   4.046   0.483  0.1768 -0.0031  0.1342
15205TIP3    H167030   6.599   3.951   0.491 -1.3763 -0.1173  1.2433
15205TIP3    H267031   6.602   4.064   0.390  0.6084 -1.2756 -0.0725
15206TIP3   OH267032   6.271   2.824   5.712  0.1511 -0.4920 -0.1719
15206TIP3    H167033   6.251   2.902   5.763  0.2957 -0.2420 -0.4923
15206TIP3    H267034   6.219   2.754   5.753  2.2813 -0.9193  2.0192
15207TIP3   OH267035   5.803   1.321   6.183  0.6327  0.9658  0.0051
15207TIP3    H167036   5.768   1.334   6.271  0.5935 -0.0056  0.1479
15207TIP3    H267037   5.735   1.274   6.136  1.3689 -0.1462  0.0168
15208TIP3   OH267038   3.609   6.352   3.179  0.3553  0.5154  0.6966
15208TIP3    H167039   3.681   6.310   3.134 -0.3704  1.6765 -1.7374
15208TIP3    H267040   3.587   6.293   3.251  0.5369 -2.3235 -1.4268
15209TIP3   OH267041   1.463   0.811  16.261 -0.4270 -0.1661  0.6880
15209TIP3    H167042   1.394   0.827  16.196  0.1767  3.5643  0.7500
15209TIP3    H267043   1.544   0.824  16.213  0.0411  2.0437  1.9773
15210TIP3   OH267044   4.552   6.014   1.367  0.2621 -0.4859 -0.1532
15210TIP3    H167045   4.467   6.011   1.322 -0.3604 -0.3007  0.9938
15210TIP3    H267046   4.533   5.993   1.458  1.4601 -0.4630  0.1256
15211TIP3   OH267047   6.592   4.828   2.968 -0.0575  0.3131 -0.7179
15211TIP3    H167048   6.628   4.844   2.880  0.7511 -0.3955 -0.5194
15211TIP3    H267049   6.497   4.836   2.956 -0.1666 -2.1569 -2.2054
15212TIP3   OH267050   4.540   3.237  12.519 -0.1686 -0.0355  0.0397
15212TIP3    H167051   4.574   3.256  12.432 -0.3389 -0.2942 -0.0865
15212TIP3    H267052   4.494   3.317  12.546  1.0594  0.5471  0.4741
15213TIP3   OH267053   2.794   5.272   1.328  0.3887 -0.9659  0.0547
15213TIP3    H167054   2.704   5.258   1.299 -0.2564 -0.2972  1.6457
15213TIP3    H267055   2.827   5.340   1.269 -1.5536  1.8495  1.9586
15214TIP3   OH267056   6.272   2.732  13.705 -0.5039 -0.1050  0.1053
15214TIP3    H167057   6.219   2.793  13.654 -1.2663 -1.8738 -1.3252
15214TIP3    H267058   6.347   2.712  13.648 -0.6939 -1.1166  0.1866
15215TIP3   OH267059   3.176   5.450  14.269  0.0005  0.1018 -0.6384
15215TIP3    H167060   3.153   5.359  14.253  0.3949  0.1674 -1.6447
15215TIP3    H267061   3.120   5.477  14.342  1.6853 -1.6972  1.4718
15216TIP3   OH267062   0.062   3.802   5.253  0.4255 -0.0177 -0.2915
15216TIP3    H167063   0.057   3.775   5.161  0.2632 -1.9976  0.2567
15216TIP3    H267064  -0.030   3.809   5.281  0.4317  2.2212 -0.6860
15217TIP3   OH267065   3.364   5.439   2.705 -0.0537  0.8421  0.2977
15217TIP3    H167066   3.292   5.497   2.681  1.7081  2.7234 -0.7146
15217TIP3    H267067   3.391   5.469   2.792 -2.2068 -1.7242  2.0153
15218TIP3   OH267068   6.154   6.496  15.261  0.5143  0.5053  0.4795
15218TIP3    H167069   6.153   6.582  15.219 -0.7223 -0.2851 -1.2226
15218TIP3    H267070   6.069   6.489  15.303  0.4337 -0.0435  0.2366
15219TIP3   OH267071   4.373   1.515   0.472 -0.0514 -0.1972  0.5950
15219TIP3    H167072   4.465   1.536   0.492 -0.4660  0.2386  2.1796
15219TIP3    H267073   4.341   1.591   0.423  0.5133 -0.5040 -0.2732
15220TIP3   OH267074   1.498   5.557  16.114 -0.5578  0.9206  0.4139
15220TIP3    H167075   1.504   5.475  16.163  0.8173 -0.8585 -2.4176
15220TIP3    H267076   1.589   5.585  16.103 -0.8238  1.3922 -0.7845
15221TIP3   OH267077   0.197   3.316   6.625 -0.2310 -0.5358  0.5060
15221TIP3    H167078   0.248   3.237   6.605  0.0600 -0.5103  1.1121
15221TIP3    H267079   0.247   3.387   6.584  0.8047 -0.3808  1.9429
15222TIP3   OH267080   3.985   4.236  13.453  0.2665 -0.2618 -0.2404
15222TIP3    H167081   4.068   4.258  13.497 -0.4441 -0.3921  1.2435
15222TIP3    H267082   3.966   4.312  13.398  0.5941  0.4614  0.6219
15223TIP3   OH267083   3.610   3.416   1.728 -0.1798  0.2207 -0.0817
15223TIP3    H167084   3.526   3.389   1.690  0.6422  0.0255 -1.8404
15223TIP3    H267085   3.588   3.492   1.781 -1.5970 -0.3230  0.1667
15224TIP3   OH267086   2.275   1.150   2.640  0.3091  0.0835 -0.1231
15224TIP3    H167087   2.299   1.196   2.560  0.5852 -0.6306 -0.4563
15224TIP3    H267088   2.209   1.206   2.681  1.5830  1.4619  0.1655
15225TIP3   OH267089   6.529   1.169   3.401  0.4243 -0.3381 -0.1929
15225TIP3    H167090   6.460   1.164   3.335  0.4646 -1.5764 -0.1676
15225TIP3    H267091   6.606   1.131   3.358  1.9395  3.3711 -1.1605
15226TIP3   OH267092   6.373   1.220  15.219  0.0280  0.2465  0.4646
15226TIP3    H167093   6.371   1.195  15.312 -0.1850  1.4959  0.8201
15226TIP3    H267094   6.437   1.291  15.215  1.6554 -1.2060 -0.7555
15227TIP3   OH267095   3.515   2.029   1.134 -0.0874  0.4570  0.2568
15227TIP3    H167096   3.423   2.052   1.146  0.0905  1.3428  0.0520
15227TIP3    H267097   3.518   1.934   1.143 -0.7991  0.5426  1.7804
15228TIP3   OH267098   2.359   0.751   5.506 -0.1643  0.4941  0.1648
15228TIP3    H167099   2.348   0.752   5.411  0.6590  0.5045  0.0636
15228TIP3    H267100   2.441   0.798   5.521  0.1558 -0.2665  0.8235
15229TIP3   OH267101   3.418   2.347   1.103  0.1107 -0.4163  0.0212
15229TIP3    H167102   3.416   2.438   1.131 -1.5830 -0.8254  1.4323
15229TIP3    H267103   3.423   2.297   1.185  1.2533 -1.5957 -0.7409
15230TIP3   OH267104   5.262   4.141  13.201 -0.9276  0.2346 -0.5670
15230TIP3    H167105   5.235   4.057  13.165 -0.1903 -1.2663  2.0613
15230TIP3    H267106   5.187   4.170  13.253 -0.0001 -0.6297  1.3598
15231TIP3   OH267107   0.830   2.387   3.694  0.2158 -0.1458 -0.3600
15231TIP3    H167108   0.792   2.369   3.608  2.6401  2.8252 -2.2538
15231TIP3    H267109   0.880   2.468   3.682  3.9740 -1.6690  2.8042
15232TIP3   OH267110   3.425   4.881   6.389 -0.3319 -0.1647  0.2740
15232TIP3    H167111   3.483   4.811   6.421  0.4165  0.6064  0.6446
15232TIP3    H267112   3.368   4.901   6.464 -0.6902 -0.5170  0.0991
15233TIP3   OH267113   5.995   0.741   1.729  0.0301  0.2305 -0.2994
15233TIP3    H167114   6.040   0.753   1.812  1.3744  0.3684 -1.0296
15233TIP3    H267115   5.984   0.646   1.721 -0.1393  0.2199  0.0418
15234TIP3   OH267116   3.130   4.098   2.320  0.1886 -0.2409  0.3453
15234TIP3    H167117   3.039   4.125   2.306  0.2998  1.3505  2.1617
15234TIP3    H267118   3.177   4.181   2.332  1.6032 -1.0996  0.8836
15235TIP3   OH267119   4.297   5.853  11.407 -0.1313 -0.0214 -1.0098
15235TIP3    H167120   4.216   5.904  11.414 -0.7738 -1.1751  1.2496
15235TIP3    H267121   4.286   5.802  11.327 -1.4404  0.1806 -0.9941
15236TIP3   OH267122   5.573   6.238  14.098  0.1707 -0.2113 -0.3910
15236TIP3    H167123   5.560   6.196  14.013  0.4058 -1.3919  0.1233
15236TIP3    H267124   5.484   6.260  14.127  0.0632 -0.1128 -0.7872
15237TIP3   OH267125   0.679   1.362   2.950  0.3093  0.4230  0.3915
15237TIP3    H167126   0.655   1.282   2.995  0.5996  0.4574  0.6055
15237TIP3    H267127   0.774   1.363   2.951  0.3255  0.3350 -0.3757
15238TIP3   OH267128   3.447   2.312   3.875  0.1062 -0.1012  0.3039
15238TIP3    H167129   3.404   2.240   3.829  0.1119  0.1890 -0.1661
15238TIP3    H267130   3.397   2.322   3.956 -0.7091  0.2169 -0.2223
15239TIP3   OH267131   2.554   4.200   4.594 -0.1146 -0.6930 -0.1250
15239TIP3    H167132   2.523   4.142   4.524  0.3498 -2.2012  0.8510
15239TIP3    H267133   2.498   4.277   4.589 -0.6001 -1.1098 -1.6380
15240TIP3   OH267134   0.202   6.421   0.114  0.0611  0.1683  0.0955
15240TIP3    H167135   0.294   6.427   0.139 -0.0497 -1.0610  0.8304
15240TIP3    H267136   0.203   6.373   0.031  0.1027  0.4935 -0.0948
15241TIP3   OH267137   6.706   2.314  14.605 -0.3033  0.4376  0.4227
15241TIP3    H167138   6.678   2.242  14.548 -0.4143  1.3490 -0.7239
15241TIP3    H267139   6.737   2.381  14.544  0.5426  1.0481  1.5036
15242TIP3   OH267140   6.630   1.197  12.988  0.4050  0.3975  0.1681
15242TIP3    H167141   6.599   1.217  13.076  1.5233 -0.5791  0.8247
15242TIP3    H267142   6.703   1.257  12.973 -0.1931  1.0061 -0.3695
15243TIP3   OH267143   1.134   3.116   0.747 -0.2649 -0.5708  0.0556
15243TIP3    H167144   1.103   3.124   0.837  0.5026 -1.9117  0.4626
15243TIP3    H267145   1.210   3.058   0.752 -0.4691 -1.0413 -1.5051
15244TIP3   OH267146   0.409   2.630   5.394  0.0815  0.2347 -0.0947
15244TIP3    H167147   0.386   2.599   5.482  0.5854  3.3432  1.2872
15244TIP3    H267148   0.501   2.657   5.402  0.8848 -1.5797 -2.3055
15245TIP3   OH267149   0.040   4.753  10.513 -0.4137  0.2687  0.6532
15245TIP3    H167150   0.008   4.716  10.595  0.1896  1.3359  1.4055
15245TIP3    H267151   0.000   4.700  10.445 -2.7705  0.7358  1.5673
15246TIP3   OH267152   2.995   3.740   5.436  0.1467  0.1754 -0.6557
15246TIP3    H167153   2.986   3.827   5.476 -0.3717  0.4408 -1.3173
15246TIP3    H267154   2.943   3.746   5.355 -1.2998 -1.2643  0.1078
15247TIP3   OH267155   5.871   0.507   4.326 -0.3030  0.2117 -0.2910
15247TIP3    H167156   5.961   0.525   4.299 -0.6454  0.7572 -1.1421
15247TIP3    H267157   5.840   0.589   4.364 -0.0134 -0.3857  1.2767
15248TIP3   OH267158   4.687   3.799   2.346  0.9522 -0.5015 -0.0885
15248TIP3    H167159   4.596   3.770   2.356  1.2516 -1.6409 -0.5082
15248TIP3    H267160   4.687   3.889   2.379 -0.2149 -0.6575  0.4007
15249TIP3   OH267161   4.174   0.118   3.762 -0.1694  0.3286 -0.5571
15249TIP3    H167162   4.133   0.203   3.750 -1.5042 -0.3731 -1.1798
15249TIP3    H267163   4.217   0.124   3.847 -0.3265  1.5875 -0.5523
15250TIP3   OH267164   5.089   4.206  15.163  0.0405 -0.9832 -0.1177
15250TIP3    H167165   5.063   4.296  15.181  1.1786 -0.6535 -0.0410
15250TIP3    H267166   5.022   4.173  15.104  0.4448  0.4461 -1.4590
15251TIP3   OH267167   3.085   1.033  14.995  0.4898 -0.1627  0.0987
15251TIP3    H167168   3.054   1.049  15.085 -0.6281 -0.0608 -0.2808
15251TIP3    H267169   3.057   1.111  14.947 -1.0731 -1.2519 -0.8399
15252TIP3   OH267170   4.844   2.813   4.862 -0.2782  0.0461 -0.0213
15252TIP3    H167171   4.786   2.872   4.814 -0.3088  0.4816  0.5410
15252TIP3    H267172   4.906   2.871   4.906  0.5190 -0.4087 -0.5210
15253TIP3   OH267173   4.075   0.768   4.108  0.0886 -0.1569 -0.2098
15253TIP3    H167174   4.008   0.792   4.172 -0.2276  1.3514 -1.0675
15253TIP3    H267175   4.157   0.798   4.146 -0.0363  0.2782 -0.2797
15254TIP3   OH267176   2.226   0.311  15.176  0.1001 -0.1620  0.1398
15254TIP3    H167177   2.240   0.397  15.217  0.6246 -0.5017  0.6985
15254TIP3    H267178   2.180   0.331  15.094  0.8312  0.7240 -0.0817
15255TIP3   OH267179   1.850   4.984  13.369 -0.4557  0.5254 -0.0884
15255TIP3    H167180   1.825   5.076  13.361  0.8463  0.9418  0.3775
15255TIP3    H267181   1.797   4.950  13.441 -0.9601  0.9014 -0.2819
15256TIP3   OH267182   0.613   5.598   1.648 -0.3464 -0.1735 -0.1282
15256TIP3    H167183   0.576   5.510   1.652 -3.1003  0.8849  0.2663
15256TIP3    H267184   0.599   5.625   1.557 -1.7407  0.6597  0.3000
15257TIP3   OH267185   6.402   6.744  10.683  0.0751 -0.0823 -0.3889
15257TIP3    H167186   6.389   6.651  10.701  1.0972  0.4224  4.2404
15257TIP3    H267187   6.491   6.750  10.648 -0.1581 -0.8194 -1.1435
15258TIP3   OH267188   3.270   0.781  16.979  0.1686  0.2768 -0.1077
15258TIP3    H167189   3.317   0.841  17.037  2.3793  0.0976 -1.6007
15258TIP3    H267190   3.314   0.697  16.991  0.3488  0.1285 -1.6263
15259TIP3   OH267191   5.886   6.491  16.543 -0.0285  0.1643  0.0793
15259TIP3    H167192   5.800   6.467  16.510  0.4685  0.6876 -1.6978
15259TIP3    H267193   5.904   6.577  16.504  1.1912  0.1722  0.6098
15260TIP3   OH267194   3.231   6.070  14.196 -0.4138 -0.6556 -0.6646
15260TIP3    H167195   3.315   6.117  14.194  0.5409 -2.2126  0.3402
15260TIP3    H267196   3.204   6.072  14.287 -1.2521 -0.5743 -0.9070
15261TIP3   OH267197   5.921   0.124  11.659 -0.4230  0.0430  0.3738
15261TIP3    H167198   5.959   0.199  11.703  1.4925  0.0962 -1.2354
15261TIP3    H267199   5.974   0.113  11.580 -0.8565 -2.7837  0.3732
15262TIP3   OH267200   1.614   1.087   5.202 -0.3785 -0.5528 -0.5041
15262TIP3    H167201   1.607   1.089   5.297 -0.5435  0.5665 -0.5308
15262TIP3    H267202   1.567   1.165   5.173  0.4471 -0.3860 -1.4510
15263TIP3   OH267203   6.323   4.591  12.036  0.0760 -0.5158 -0.0209
15263TIP3    H167204   6.242   4.547  12.064  0.2175 -1.3309 -0.8393
15263TIP3    H267205   6.393   4.537  12.072  0.2781  0.4033  1.0128
15264TIP3   OH267206   1.474   1.431   3.695 -0.1299 -0.4088 -0.2512
15264TIP3    H167207   1.386   1.468   3.685  0.0660  0.1295 -0.0315
15264TIP3    H267208   1.524   1.468   3.622  0.7823  1.9561  1.4435
15265TIP3   OH267209   1.334   0.932  13.676 -0.0896  0.2320  0.1536
15265TIP3    H167210   1.402   0.945  13.610  0.0301 -1.3920 -0.0772
15265TIP3    H267211   1.272   1.004  13.661  0.8778  0.9571 -0.5038
15266TIP3   OH267212   1.076   5.090   2.406 -0.0681 -0.3852  0.1974
15266TIP3    H167213   1.069   5.024   2.475 -0.3347 -0.5915 -0.0294
15266TIP3    H267214   1.053   5.172   2.450 -0.6455 -0.5773  0.2562
15267TIP3   OH267215   4.288   4.363   4.067 -0.3845  0.2016  0.2324
15267TIP3    H167216   4.195   4.343   4.064 -0.2876 -0.3793  0.8765
15267TIP3    H267217   4.321   4.335   3.982 -0.5792 -0.7531  0.4601
15268TIP3   OH267218   1.207   5.595  15.665 -0.4552 -0.2570 -0.4118
15268TIP3    H167219   1.213   5.531  15.594  1.5361  0.0572 -0.6021
15268TIP3    H267220   1.287   5.581  15.716  0.6644  2.7670 -1.1099
15269TIP3   OH267221   0.718   4.994   5.897 -0.4680 -0.1364 -0.6397
15269TIP3    H167222   0.809   4.972   5.919 -0.6495 -0.7621 -0.4968
15269TIP3    H267223   0.671   4.986   5.979 -0.7236 -0.1830 -0.7902
15270TIP3   OH267224   4.696   4.035   2.467  0.0016 -0.3938 -0.0829
15270TIP3    H167225   4.607   4.053   2.499  1.1690  3.2241  1.6447
15270TIP3    H267226   4.715   4.108   2.408  1.7929 -1.2018 -0.5735
15271TIP3   OH267227   0.482   4.491  16.341 -0.5225 -0.0150  0.0324
15271TIP3    H167228   0.500   4.457  16.253 -1.7750 -1.2197  0.1938
15271TIP3    H267229   0.566   4.488  16.385  0.1509  0.7248 -1.1525
15272TIP3   OH267230   2.165   2.705   0.836  0.0626 -0.1438  0.4846
15272TIP3    H167231   2.238   2.652   0.867  0.2552 -0.6335 -0.7296
15272TIP3    H267232   2.088   2.651   0.850  0.0617 -0.0583  0.8007
15273TIP3   OH267233   0.671   6.556   1.514  0.4603 -0.0225 -0.5714
15273TIP3    H167234   0.624   6.494   1.569 -1.0347  0.4236 -1.2901
15273TIP3    H267235   0.653   6.642   1.552 -0.0844  0.2323 -1.3723
15274TIP3   OH267236   5.622   6.049   1.177 -0.0359 -1.1945  0.1868
15274TIP3    H167237   5.652   6.138   1.157 -1.1073 -0.5057  1.4461
15274TIP3    H267238   5.527   6.057   1.184 -0.2408 -2.6480 -0.5947
15275TIP3   OH267239   1.086   2.683   0.461 -0.3355  0.0684 -0.3104
15275TIP3    H167240   1.055   2.763   0.505 -2.4341 -0.4264 -0.7810
15275TIP3    H267241   1.047   2.687   0.374 -0.3722 -1.4067 -0.3768
15276TIP3   OH267242   3.573   3.957   1.290 -0.5428 -0.8425 -0.9114
15276TIP3    H167243   3.530   3.878   1.321  0.1784 -2.1064 -2.9179
15276TIP3    H267244   3.649   3.968   1.348 -2.1361  0.0763  1.1547
15277TIP3   OH267245   4.923   3.225   3.532 -0.5085 -0.3786 -0.2152
15277TIP3    H167246   4.982   3.300   3.520 -2.4651  0.9270 -2.5049
15277TIP3    H267247   4.981   3.148   3.527  1.1758  0.8675 -0.9109
15278TIP3   OH267248   0.049   2.730  11.437  0.7090 -0.3306 -0.6915
15278TIP3    H167249   0.082   2.785  11.366 -0.3131  0.3855 -0.6268
15278TIP3    H267250   0.074   2.641  11.412  1.1887  0.0136 -1.4721
15279TIP3   OH267251   2.979   5.590  11.789 -0.0994  0.3219  0.0473
15279TIP3    H167252   2.968   5.614  11.881  0.8956 -0.8438  0.5000
15279TIP3    H267253   3.058   5.536  11.787 -0.7329 -0.6228 -1.3257
15280TIP3   OH267254   4.326   0.844   4.197 -0.1205 -0.2190 -0.1478
15280TIP3    H167255   4.414   0.812   4.177 -0.5642 -0.2526 -2.2962
15280TIP3    H267256   4.341   0.925   4.247  1.0935 -0.6897  0.2972
15281TIP3   OH267257   3.713   3.381   1.308 -0.0983  0.1671 -0.7626
15281TIP3    H167258   3.772   3.385   1.232  2.1712 -0.0160  0.9006
15281TIP3    H267259   3.752   3.441   1.371 -1.2014 -0.6793  0.7666
15282TIP3   OH267260   3.492   0.659  14.876 -0.2038 -0.1185 -0.3227
15282TIP3    H167261   3.480   0.733  14.817  1.3794  1.5784  1.3453
15282TIP3    H267262   3.557   0.604  14.834 -0.8021 -0.1679 -1.2020
15283TIP3   OH267263   3.531   4.417   2.801 -0.5648 -0.1024 -0.0508
15283TIP3    H167264   3.468   4.352   2.770  0.8307 -0.4926 -2.2861
15283TIP3    H267265   3.524   4.490   2.739  0.9474 -0.0351 -0.1877
15284TIP3   OH267266   2.475   6.475   0.405  0.0249  0.1401 -0.4958
15284TIP3    H167267   2.466   6.540   0.474 -0.8693  1.3894 -1.7403
15284TIP3    H267268   2.399   6.418   0.416 -0.7117  0.9902 -1.0962
15285TIP3   OH267269   1.360   0.220  12.994  0.9638  0.1829 -0.0480
15285TIP3    H167270   1.367   0.283  12.922  0.7175  0.5764  0.2679
15285TIP3    H267271   1.370   0.135  12.952  2.3135  0.4692 -0.3529
15286TIP3   OH267272   5.223   2.802  14.031  0.0291 -0.1143 -0.6322
15286TIP3    H167273   5.273   2.862  14.086 -0.5212  0.5803 -0.8673
15286TIP3    H267274   5.288   2.741  13.997  0.8114  1.0392 -1.2894
15287TIP3   OH267275   1.117   4.529  17.350 -0.1140  0.4684  0.1420
15287TIP3    H167276   1.138   4.571  17.267  2.8765 -1.9357 -0.4792
15287TIP3    H267277   1.164   4.581  17.415  2.0662 -0.6575 -0.4167
15288TIP3   OH267278   5.772   4.907  16.194  0.4724 -0.3543 -0.2419
15288TIP3    H167279   5.863   4.901  16.167  1.6000 -1.2539  3.2868
15288TIP3    H267280   5.752   5.001  16.189  0.9328 -0.3161 -2.6723
15289TIP3   OH267281   6.107   6.266  16.487 -0.4489 -0.7016  0.7507
15289TIP3    H167282   6.018   6.301  16.490  0.0774  0.5944  2.3614
15289TIP3    H267283   6.115   6.230  16.398 -1.4703  2.1098 -0.6017
15290TIP3   OH267284   4.195   0.883  16.797 -0.4347 -0.0570 -0.2522
15290TIP3    H167285   4.159   0.947  16.735 -0.0319  0.1881 -0.2370
15290TIP3    H267286   4.254   0.829  16.745 -2.0440 -1.5281 -0.6416
15291TIP3   OH267287   5.166   4.813   6.699  0.2808  0.7349  0.0852
15291TIP3    H167288   5.255   4.846   6.689  0.2917  0.3352 -1.2069
15291TIP3    H267289   5.163   4.733   6.648 -1.4731  1.9447 -1.8738
15292TIP3   OH267290   0.133   5.219  10.751  0.1293 -0.1012  0.0811
15292TIP3    H167291   0.206   5.273  10.723  1.0606 -0.6507  1.3199
15292TIP3    H267292   0.172   5.156  10.812 -0.9516 -1.9855 -1.0633
15293TIP3   OH267293   0.741   1.641   5.611 -0.2015 -0.0546  0.1139
15293TIP3    H167294   0.713   1.552   5.594 -0.6453  0.0801  0.1238
15293TIP3    H267295   0.818   1.632   5.667  0.6389 -0.4673 -1.0886
15294TIP3   OH267296   4.709   2.650   1.428  0.8300  0.1756  0.1961
15294TIP3    H167297   4.741   2.738   1.451 -0.7311  0.8918 -0.2681
15294TIP3    H267298   4.633   2.665   1.372 -0.5296 -1.4461  1.4947
15295TIP3   OH267299   4.541   0.301  16.143  0.1779  0.2060 -0.5431
15295TIP3    H167300   4.479   0.250  16.092  0.0128 -0.1877  0.0417
15295TIP3    H267301   4.495   0.321  16.224  1.2276 -1.1212  0.4065
15296TIP3   OH267302   6.296   0.172  14.493  0.3854 -0.4484 -0.0470
15296TIP3    H167303   6.230   0.124  14.443  0.1871 -0.1678 -0.0540
15296TIP3    H267304   6.355   0.104  14.526 -0.0108 -0.7154  0.1172
15297TIP3   OH267305   5.017   2.084  17.179 -0.6696 -0.4428 -0.2315
15297TIP3    H167306   5.101   2.104  17.139 -0.5891  0.9321  0.5662
15297TIP3    H267307   4.957   2.072  17.105 -0.5125  1.9891 -0.8264
15298TIP3   OH267308   2.311   4.111   2.091 -0.1925  0.2872 -0.6869
15298TIP3    H167309   2.343   4.078   2.007 -1.9475  3.5585 -2.8237
15298TIP3    H267310   2.216   4.099   2.087 -0.2541 -0.2895  1.2852
15299TIP3   OH267311   2.340   3.393  10.486 -0.0278  0.5552  0.2358
15299TIP3    H167312   2.259   3.367  10.442 -0.7925 -0.6420  2.2273
15299TIP3    H267313   2.410   3.366  10.426 -1.0476  0.4751 -0.9589
15300TIP3   OH267314   3.232   0.910   2.852  0.4486 -0.6761 -0.0782
15300TIP3    H167315   3.252   0.950   2.937 -1.1643 -1.0291  0.5211
15300TIP3    H267316   3.229   0.983   2.791  0.3383 -0.2364  0.4415
15301TIP3   OH267317   2.816   3.556  15.101 -0.3326 -0.3871  0.2377
15301TIP3    H167318   2.765   3.632  15.070  1.8682  0.5014 -1.4744
15301TIP3    H267319   2.834   3.575  15.193 -2.5707 -0.4781  0.7431
15302TIP3   OH267320   2.271   4.197   4.830 -0.4162 -0.3692 -0.6251
15302TIP3    H167321   2.193   4.161   4.872 -0.1504 -0.0240  0.1679
15302TIP3    H267322   2.240   4.227   4.744 -1.5887  1.5569  0.4124
15303TIP3   OH267323   0.561   0.644   6.728 -0.6192 -0.0995  0.2928
15303TIP3    H167324   0.476   0.647   6.683 -1.5914  1.8989  2.1103
15303TIP3    H267325   0.554   0.569   6.787 -1.6491  0.7892  1.3428
15304TIP3   OH267326   1.432   2.022   1.339  0.1265  0.0271  0.5654
15304TIP3    H167327   1.466   2.008   1.250 -0.7478 -0.3821  0.2732
15304TIP3    H267328   1.502   2.067   1.385  1.3074 -1.3138  0.1764
15305TIP3   OH267329   4.237   6.373  13.195 -0.2596  0.0474  0.0210
15305TIP3    H167330   4.289   6.454  13.193 -0.7442  0.3535 -0.6080
15305TIP3    H267331   4.290   6.310  13.146 -0.9817  0.6816 -1.6409
15306TIP3   OH267332   2.449   6.501  16.805 -0.1304  0.0785  0.2475
15306TIP3    H167333   2.499   6.547  16.873 -1.5934  2.4056 -0.1541
15306TIP3    H267334   2.469   6.409  16.820  2.1473  0.7239  1.7667
15307TIP3   OH267335   5.711   4.556   3.433 -0.2878  0.0812  0.0881
15307TIP3    H167336   5.619   4.532   3.423  0.6353 -3.7679 -0.6670
15307TIP3    H267337   5.751   4.482   3.478  3.1439 -0.3257 -3.1411
15308TIP3   OH267338   4.841   5.916   0.982  0.6450  0.5504 -0.0471
15308TIP3    H167339   4.927   5.929   0.942  0.3666  0.2953 -0.7327
15308TIP3    H267340   4.840   5.824   1.008  0.0628  0.1813 -1.3032
15309TIP3   OH267341   1.591   6.455   6.522  0.4955  0.4076 -0.5189
15309TIP3    H167342   1.640   6.494   6.450 -1.2305  1.7179 -1.0549
15309TIP3    H267343   1.622   6.501   6.600  1.5868 -0.2522 -0.5412
15310TIP3   OH267344   5.773   4.716   0.060 -0.1456 -0.0645 -0.6867
15310TIP3    H167345   5.805   4.648   0.119  1.8595  0.8628 -0.6485
15310TIP3    H267346   5.759   4.792   0.117  0.6357  0.4734 -1.2036
15311TIP3   OH267347   0.749   3.478   6.087 -0.2146 -0.2309  0.2053
15311TIP3    H167348   0.798   3.541   6.140 -0.0013  0.9559 -1.3235
15311TIP3    H267349   0.733   3.404   6.146  0.2771  0.8796  1.8052
15312TIP3   OH267350   2.888   0.685  13.524  0.5017 -0.0603 -0.0041
15312TIP3    H167351   2.972   0.690  13.568 -0.0557  3.3515  0.9504
15312TIP3    H267352   2.867   0.776  13.501 -2.1301 -0.9851 -1.7365
15313TIP3   OH267353   6.686   0.609   0.350 -0.0344 -0.2305  0.1103
15313TIP3    H167354   6.677   0.694   0.393  1.1120  0.0596 -0.1861
15313TIP3    H267355   6.606   0.561   0.374 -0.9638  1.1143 -0.1698
15314TIP3   OH267356   0.248   5.113   4.021 -0.6193 -0.0742 -0.6188
15314TIP3    H167357   0.157   5.136   4.039 -0.6110 -0.2080 -0.4052
15314TIP3    H267358   0.271   5.164   3.943  0.1122  2.4322  1.1260
15315TIP3   OH267359   2.604   3.931  16.376 -0.4275  0.0714 -0.5231
15315TIP3    H167360   2.589   3.970  16.462  1.3073  0.3019 -0.2862
15315TIP3    H267361   2.695   3.900  16.380 -0.5636 -0.5615 -2.0201
15316TIP3   OH267362   3.025   4.077  10.867 -0.6091 -0.0387  0.0588
15316TIP3    H167363   3.033   4.047  10.957 -1.8644  1.9910  0.9375
15316TIP3    H267364   3.068   4.010  10.814  1.6826 -0.4715  2.2944
15317TIP3   OH267365   3.383   1.119   0.706  0.2740 -0.2044 -0.3542
15317TIP3    H167366   3.337   1.119   0.790  0.2233 -1.4073 -0.3619
15317TIP3    H267367   3.319   1.084   0.644  0.8188 -0.7915 -0.5922
15318TIP3   OH267368   1.315   1.845   5.948  0.2054  0.0434  0.2702
15318TIP3    H167369   1.260   1.788   6.001  0.9940  0.1112  1.1976
15318TIP3    H267370   1.253   1.897   5.897 -0.5637 -0.5139  0.6095
15319TIP3   OH267371   1.918   2.726  12.093 -0.0710  0.5124  0.0961
15319TIP3    H167372   1.957   2.721  12.180 -0.3384 -0.5494  0.1786
15319TIP3    H267373   1.974   2.669  12.039 -2.8577 -3.2700  0.7924
15320TIP3   OH267374   3.214   3.213   4.135 -0.1155 -0.5519 -0.2024
15320TIP3    H167375   3.184   3.252   4.217 -2.3451 -3.0969  0.3187
15320TIP3    H267376   3.249   3.287   4.085 -0.4516  1.3907  2.2274
15321TIP3   OH267377   4.606   4.661   2.831  0.3273 -0.0608  0.6694
15321TIP3    H167378   4.685   4.614   2.802  0.5198  1.5068 -1.5720
15321TIP3    H267379   4.546   4.655   2.757 -0.5007  1.3235  1.1896
15322TIP3   OH267380   6.117   5.040   6.016 -0.3012 -0.4586 -0.4990
15322TIP3    H167381   6.110   4.949   6.044 -0.3118 -0.7568 -1.4328
15322TIP3    H267382   6.207   5.047   5.983  0.1103  0.2107  0.6906
15323TIP3   OH267383   3.975   3.977   2.523 -0.5056  0.4405 -0.1288
15323TIP3    H167384   4.053   4.016   2.562 -1.0770  1.1526  0.3130
15323TIP3    H267385   3.902   4.022   2.565 -1.2692 -2.2430  1.7117
15324TIP3   OH267386   5.199   0.327   5.549 -1.1124  0.8026  0.2512
15324TIP3    H167387   5.192   0.363   5.461 -0.1315  0.8006  0.1597
15324TIP3    H267388   5.163   0.238   5.542  0.2205  0.2836 -0.4938
15325TIP3   OH267389   1.067   5.416   6.103  0.0585  0.5161 -0.2212
15325TIP3    H167390   0.974   5.414   6.080  0.0705  3.8842 -1.0132
15325TIP3    H267391   1.069   5.438   6.196  0.0828  0.2860 -0.1659
15326TIP3   OH267392   3.371   2.824  14.211 -0.2706 -0.1381 -0.2518
15326TIP3    H167393   3.377   2.908  14.256 -0.9077  0.0770 -0.5585
15326TIP3    H267394   3.280   2.818  14.183 -0.5672 -1.5059  0.8755
15327TIP3   OH267395   0.762   2.821   2.026  0.0090  0.3111 -0.3733
15327TIP3    H167396   0.756   2.754   2.094 -2.2193  1.1164  0.3317
15327TIP3    H267397   0.807   2.894   2.069  0.1854  0.1728 -0.3228
15328TIP3   OH267398   1.369   2.856   3.622 -0.5547 -0.1996 -0.3933
15328TIP3    H167399   1.322   2.877   3.703  1.2316 -0.1003  0.6782
15328TIP3    H267400   1.361   2.761   3.614 -1.3528 -0.1271 -0.5069
15329TIP3   OH267401   2.056   0.692   5.446 -0.3269  0.2525  0.2415
15329TIP3    H167402   2.111   0.762   5.481 -0.6090  1.2614 -1.2560
15329TIP3    H267403   1.971   0.733   5.431 -1.2294 -1.0209  1.5276
15330TIP3   OH267404   6.641   5.323   5.498 -0.1673 -0.1968 -0.5755
15330TIP3    H167405   6.595   5.243   5.472 -1.5111 -0.0369  1.1373
15330TIP3    H267406   6.708   5.293   5.559 -2.5553  0.1281  2.4258
15331TIP3   OH267407   6.223   5.358   0.782  0.0410  0.5757  0.3070
15331TIP3    H167408   6.288   5.416   0.743 -1.0437  1.7830  0.2199
15331TIP3    H267409   6.215   5.388   0.873  1.4274 -1.2198  1.0836
15332TIP3   OH267410   3.250   2.820   2.927 -0.0222  0.0253  0.3599
15332TIP3    H167411   3.341   2.842   2.944  0.0809 -0.9859  1.1819
15332TIP3    H267412   3.206   2.905   2.922  1.2044  0.6115 -1.6549
15333TIP3   OH267413   6.135   3.872  14.526  0.3439  0.2256 -0.4458
15333TIP3    H167414   6.053   3.885  14.574  0.9454 -0.7992  0.9210
15333TIP3    H267415   6.111   3.883  14.434 -1.0253  1.3511  0.0072
15334TIP3   OH267416   1.371   0.133   2.947  0.2003  0.0982  0.3789
15334TIP3    H167417   1.408   0.090   3.023  2.2578  0.3277 -0.4248
15334TIP3    H267418   1.447   0.162   2.896 -1.1047  1.5851 -0.8388
15335TIP3   OH267419   5.536   1.213   5.348 -0.5349 -0.2260 -0.0677
15335TIP3    H167420   5.538   1.259   5.264 -0.4999  0.9247  0.5351
15335TIP3    H267421   5.628   1.204   5.373 -0.5511 -0.3904 -0.0723
15336TIP3   OH267422   2.645   1.345   3.457 -0.4012  0.1686 -0.1732
15336TIP3    H167423   2.701   1.408   3.412  1.2552 -0.6688  0.6135
15336TIP3    H267424   2.704   1.274   3.482 -1.7280 -0.5363  1.1340
15337TIP3   OH267425   1.968   5.275  16.596 -0.1604  0.2278  0.5927
15337TIP3    H167426   1.893   5.238  16.549  1.3216 -0.1171 -1.6547
15337TIP3    H267427   1.974   5.365  16.565  1.0583 -0.1113 -0.2678
15338TIP3   OH267428   3.549   5.984  12.686 -0.3476 -0.3260  0.4048
15338TIP3    H167429   3.567   6.021  12.772  0.2861 -1.9685  1.0087
15338TIP3    H267430   3.472   5.929  12.698 -0.9497  0.3200 -0.3573
15339TIP3   OH267431   4.463   4.140   0.561 -0.3483 -0.0606 -0.1573
15339TIP3    H167432   4.536   4.140   0.623  0.4798  0.0832 -1.1028
15339TIP3    H267433   4.485   4.208   0.497 -0.3354 -1.3163 -1.5478
15340TIP3   OH267434   5.129   4.857  16.419 -0.2482  0.8546 -0.0814
15340TIP3    H167435   5.061   4.795  16.393  1.4053 -0.6781 -0.9367
15340TIP3    H267436   5.144   4.841  16.512 -0.8365  1.0068  0.0431
15341TIP3   OH267437   0.320   3.249   2.359 -0.0369 -0.1140 -0.1210
15341TIP3    H167438   0.359   3.336   2.360  0.3583 -0.2897  0.8055
15341TIP3    H267439   0.391   3.191   2.389 -0.2427 -0.7777 -0.8882
15342TIP3   OH267440   0.712   0.319  16.499  0.3500 -0.3814 -0.2286
15342TIP3    H167441   0.775   0.319  16.427 -1.0051  0.1683 -1.4397
15342TIP3    H267442   0.714   0.230  16.533  2.6545 -0.1056  0.5790
15343TIP3   OH267443   2.709   5.631   3.495 -0.4095  0.2601 -0.4390
15343TIP3    H167444   2.741   5.701   3.552 -0.3442  0.8644 -1.2030
15343TIP3    H267445   2.617   5.620   3.519 -1.2636  2.6743 -2.3198
15344TIP3   OH267446   0.612   5.426   5.277  0.2146  0.0605  0.3254
15344TIP3    H167447   0.687   5.429   5.336  1.1992 -1.5952 -0.7685
15344TIP3    H267448   0.650   5.430   5.189 -1.0285 -0.1371 -0.2412
15345TIP3   OH267449   3.395   5.548   3.468  0.5904  0.6307 -0.1374
15345TIP3    H167450   3.341   5.500   3.406 -0.7011  0.5138  1.0389
15345TIP3    H267451   3.467   5.582   3.415 -0.4164  0.4668 -1.6765
15346TIP3   OH267452   2.406   4.823   0.441 -0.8234  0.2449  0.3231
15346TIP3    H167453   2.421   4.912   0.472  0.9214  0.9667 -2.2150
15346TIP3    H267454   2.324   4.796   0.482 -0.6728  2.4741  2.2607
15347TIP3   OH267455   2.100   4.586  11.971 -0.1734 -0.3710 -0.0802
15347TIP3    H167456   2.148   4.668  11.961 -0.3656 -0.2455  0.0401
15347TIP3    H267457   2.163   4.527  12.013  0.1306 -0.4377 -0.6073
15348TIP3   OH267458   3.492   5.988   3.136  0.2779  0.3519 -0.4076
15348TIP3    H167459   3.503   6.046   3.212 -1.5086 -1.3736  1.2985
15348TIP3    H267460   3.566   5.927   3.142 -0.1942 -0.1651  0.3591
15349TIP3   OH267461   0.108   5.590  17.090 -0.1333 -0.0045  0.1785
15349TIP3    H167462   0.028   5.540  17.077  0.7724 -1.2101 -0.9421
15349TIP3    H267463   0.120   5.637  17.008 -0.7812  1.8518  1.0868
15350TIP3   OH267464   1.265   5.502   0.013  0.2853 -0.2107  0.0366
15350TIP3    H167465   1.271   5.436  -0.057  0.7825 -0.1542  0.0244
15350TIP3    H267466   1.177   5.537   0.004  0.2332 -0.4289 -0.3638
15351TIP3   OH267467   1.529   0.978   0.613  0.0647  0.3457 -0.4533
15351TIP3    H167468   1.540   1.065   0.651 -0.0099  0.5685 -0.9403
15351TIP3    H267469   1.533   0.992   0.519 -1.1030 -0.0134 -0.5671
15352TIP3   OH267470   2.421   0.597  16.694  0.2312 -0.0418 -0.3925
15352TIP3    H167471   2.443   0.623  16.783 -0.9307 -0.4744  0.0432
15352TIP3    H267472   2.336   0.553  16.702  1.1075 -2.0219 -1.3895
15353TIP3   OH267473   2.337   5.033  14.255 -0.4068  0.5965 -0.3999
15353TIP3    H167474   2.386   5.114  14.272 -1.3410  1.2422 -0.7422
15353TIP3    H267475   2.398   4.980  14.204  0.1933  1.1127 -0.2398
15354TIP3   OH267476   0.866   0.820  15.174 -0.1748 -0.1873 -0.6488
15354TIP3    H167477   0.915   0.747  15.138 -0.2057 -0.4883 -0.0865
15354TIP3    H267478   0.928   0.865  15.232 -0.6931 -0.8782  0.4805
15355TIP3   OH267479   4.147   2.938   5.791  0.3557  0.4252  0.5060
15355TIP3    H167480   4.105   2.965   5.710  0.2886 -0.2327  0.3136
15355TIP3    H267481   4.074   2.910   5.847  0.3607  1.2976  0.9648
15356TIP3   OH267482   4.246   6.049   3.612  1.0210 -0.4247  0.4744
15356TIP3    H167483   4.152   6.063   3.620  1.3820  1.4040  2.5281
15356TIP3    H267484   4.268   6.077   3.523 -0.6791 -3.4370 -1.0410
15357TIP3   OH267485   4.023   6.003  13.272 -0.4346  0.3095 -0.1634
15357TIP3    H167486   4.053   6.087  13.306 -2.0986  1.1368 -0.5876
15357TIP3    H267487   4.083   5.939  13.308 -0.4453  1.4387  2.0410
15358TIP3   OH267488   5.359   0.416  16.293  0.0105 -0.2413 -0.0728
15358TIP3    H167489   5.427   0.431  16.358 -0.0252  3.6631 -0.6940
15358TIP3    H267490   5.278   0.408  16.344  0.1670  1.4056  0.5122
15359TIP3   OH267491   5.684   3.115  11.968  0.1613  0.3985  0.3340
15359TIP3    H167492   5.725   3.041  12.014 -0.4480 -0.5527 -0.6086
15359TIP3    H267493   5.618   3.147  12.029  1.5549  1.2701  1.4358
15360TIP3   OH267494   1.597   5.720  13.420 -0.1366 -0.4077  0.1109
15360TIP3    H167495   1.677   5.726  13.368  0.2098 -0.0314  0.6784
15360TIP3    H267496   1.596   5.630  13.452 -0.8936 -0.9686 -1.3785
15361TIP3   OH267497   6.651   0.463   4.583  0.6844  0.3586 -0.8884
15361TIP3    H167498   6.627   0.555   4.574  1.6205  0.7355  0.2542
15361TIP3    H267499   6.580   0.416   4.539 -0.6766  1.5468 -0.0762
15362TIP3   OH267500   3.144   5.396  11.478  0.5301  0.5774  0.2024
15362TIP3    H167501   3.139   5.383  11.573  1.0948 -1.9181 -0.0323
15362TIP3    H267502   3.068   5.349  11.444  0.4273  1.3076 -0.5913
15363TIP3   OH267503   1.385   0.830   1.731 -0.4341  0.6148 -0.1390
15363TIP3    H167504   1.419   0.791   1.812  1.8209 -0.4845 -1.5239
15363TIP3    H267505   1.405   0.923   1.740 -0.3859  0.5353  0.6619
15364TIP3   OH267506   6.379   3.259  11.869 -0.2856 -0.0821  0.7294
15364TIP3    H167507   6.387   3.331  11.807 -0.3537 -0.9872 -0.3572
15364TIP3    H267508   6.392   3.299  11.955  3.7079  0.6067 -0.0193
15365TIP3   OH267509   0.488   3.246  12.791 -0.1383  0.1338 -0.0505
15365TIP3    H167510   0.582   3.256  12.801 -0.1725  0.6621 -0.1970
15365TIP3    H267511   0.458   3.212  12.875  0.0882  0.6844  0.2585
15366TIP3   OH267512   2.430   3.586   1.413  0.4166 -0.0244  0.0644
15366TIP3    H167513   2.393   3.526   1.478  2.3357 -1.4979 -0.1008
15366TIP3    H267514   2.494   3.638   1.461 -0.3415  1.0472 -0.0544
15367TIP3   OH267515   3.674   1.367  11.768  0.1000 -0.3603  0.3930
15367TIP3    H167516   3.675   1.323  11.853  0.3331  0.2085  0.6850
15367TIP3    H267517   3.700   1.298  11.706  0.1561 -0.7187  0.8068
15368TIP3   OH267518   6.384   0.604  14.977  0.3675 -0.0094  0.3087
15368TIP3    H167519   6.303   0.624  14.930 -0.1258 -1.0051  0.7100
15368TIP3    H267520   6.444   0.573  14.909  0.4640  0.8553 -0.0097
15369TIP3   OH267521   4.363   4.465  11.443 -0.1568 -0.2464  0.2593
15369TIP3    H167522   4.378   4.524  11.516 -1.7834  0.0048  0.4329
15369TIP3    H267523   4.302   4.511  11.386 -0.0204 -1.0172 -0.5463
15370TIP3   OH267524   6.143   2.769  16.981  0.7075  0.1312  0.0760
15370TIP3    H167525   6.217   2.828  16.990  1.4670 -0.9662  1.3985
15370TIP3    H267526   6.118   2.748  17.071 -0.1182 -0.8649 -0.3655
15371TIP3   OH267527   3.300   4.137  14.690  0.5975 -0.1329  0.4596
15371TIP3    H167528   3.250   4.067  14.732  1.0158  0.5473  2.1888
15371TIP3    H267529   3.322   4.102  14.604 -2.0790 -0.7801 -0.0536
15372TIP3   OH267530   1.070   3.819  15.289  0.2091  0.1192  0.5781
15372TIP3    H167531   1.078   3.869  15.208  1.1964  0.2157  0.7215
15372TIP3    H267532   1.024   3.739  15.263 -0.6229  0.7058  0.1815
15373TIP3   OH267533   0.898   5.192   3.306  0.4765 -0.0806  0.5249
15373TIP3    H167534   0.913   5.139   3.384  0.2683  0.3584  0.8660
15373TIP3    H267535   0.986   5.218   3.278  0.6992 -1.7973 -0.4985
15374TIP3   OH267536   5.310   3.403   2.208  0.4344 -0.2977 -0.3106
15374TIP3    H167537   5.239   3.386   2.146  0.6227  0.0938 -0.6430
15374TIP3    H267538   5.332   3.496   2.194  1.4383 -0.5780 -0.6564
15375TIP3   OH267539   0.277   1.267   2.282 -0.2761  0.2540  0.2645
15375TIP3    H167540   0.356   1.292   2.235 -0.5100  1.7490  0.6263
15375TIP3    H267541   0.205   1.297   2.226 -0.5594  1.3331  1.1548
15376TIP3   OH267542   3.643   6.344  17.235  0.4829 -0.1471 -0.0968
15376TIP3    H167543   3.730   6.380  17.253  0.6206 -0.1091 -0.8088
15376TIP3    H267544   3.656   6.286  17.159 -0.0757 -0.2896 -0.0881
15377TIP3   OH267545   5.423   6.370   5.632 -0.5298 -0.6494 -0.4957
15377TIP3    H167546   5.476   6.448   5.615  0.0829 -1.2793 -1.6201
15377TIP3    H267547   5.462   6.330   5.709 -0.5493 -0.0994 -0.1973
15378TIP3   OH267548   4.584   3.070   5.939 -0.5142 -0.4095  0.2194
15378TIP3    H167549   4.517   3.038   5.878  1.8044 -2.5442 -1.3867
15378TIP3    H267550   4.667   3.038   5.903  1.4604  2.2920  1.9825
15379TIP3   OH267551   6.538   6.405   0.294 -0.3601  0.5821  0.1592
15379TIP3    H167552   6.488   6.486   0.292 -1.3047 -0.0045 -0.6360
15379TIP3    H267553   6.490   6.345   0.237 -0.0282 -0.7442  1.2207
15380TIP3   OH267554   6.578   5.692   2.551 -0.4755  0.1074  0.1139
15380TIP3    H167555   6.576   5.695   2.455 -3.6499 -0.7383  0.0323
15380TIP3    H267556   6.565   5.600   2.573  0.0363  0.3159  1.3938
15381TIP3   OH267557   4.541   1.304   3.542 -0.4753 -0.0217  0.0688
15381TIP3    H167558   4.617   1.317   3.486  1.2777 -2.9816  1.5193
15381TIP3    H267559   4.466   1.309   3.482  0.9644  0.9063 -1.7704
15382TIP3   OH267560   2.288   6.694   5.944 -0.2242  0.2372 -0.0142
15382TIP3    H167561   2.209   6.677   5.892 -1.2178 -1.1563  1.8504
15382TIP3    H267562   2.257   6.697   6.035  1.5163  2.1291  0.6124
15383TIP3   OH267563   6.724   2.537   4.893  0.3898 -0.2769 -0.2858
15383TIP3    H167564   6.790   2.560   4.827  0.1188  0.3592 -0.3442
15383TIP3    H267565   6.641   2.563   4.853  0.0872 -1.1225 -0.2357
15384TIP3   OH267566   2.077   4.916   0.649 -0.2134  0.1695  0.9829
15384TIP3    H167567   2.091   4.824   0.628  1.9687 -0.1544  3.3561
15384TIP3    H267568   1.988   4.920   0.683 -0.1960 -1.1321  1.2374
15385TIP3   OH267569   1.429   1.088   3.037 -0.2417  0.7387 -0.3955
15385TIP3    H167570   1.492   1.017   3.023  0.5430  1.2431  0.3700
15385TIP3    H267571   1.484   1.165   3.054 -0.9844  0.8115  2.2667
15386TIP3   OH267572   5.701   6.028   0.580  0.1955 -0.1794 -0.2449
15386TIP3    H167573   5.779   5.975   0.595 -0.5820 -1.2103  0.3486
15386TIP3    H267574   5.726   6.117   0.606  1.6804 -0.1145 -1.7166
15387TIP3   OH267575   3.346   4.536  11.239  0.4083  0.1483  0.2973
15387TIP3    H167576   3.343   4.453  11.190 -2.1853 -0.2775  1.0098
15387TIP3    H267577   3.424   4.529  11.294  1.3400 -0.9370 -1.0899
15388TIP3   OH267578   1.521   0.260   4.004 -0.2948 -0.4534  0.3070
15388TIP3    H167579   1.494   0.184   4.057 -0.5626 -1.4286 -1.1587
15388TIP3    H267580   1.443   0.315   4.000 -1.1573 -1.6794 -1.2023
15389TIP3   OH267581   1.132   0.635  16.809  0.4313 -0.1434 -0.0114
15389TIP3    H167582   1.181   0.698  16.756  0.0116 -0.5769 -0.9504
15389TIP3    H267583   1.154   0.550  16.771  0.0598 -0.4565  0.4633
15390TIP3   OH267584   5.998   4.780  17.088  0.1695  0.7157  0.3201
15390TIP3    H167585   5.906   4.757  17.075  0.6434 -0.6743 -0.8620
15390TIP3    H267586   6.016   4.845  17.020  0.1332  0.7725  0.3644
15391TIP3   OH267587   0.849   0.292   5.540 -0.1717 -0.7105 -0.4401
15391TIP3    H167588   0.937   0.270   5.571  0.1454  1.1597  0.1181
15391TIP3    H267589   0.805   0.326   5.618  0.0720  2.4869 -1.5623
15392TIP3   OH267590   0.878   1.569   2.165 -0.4046  0.3278  1.1245
15392TIP3    H167591   0.927   1.487   2.158 -1.0769  0.0424 -2.0098
15392TIP3    H267592   0.797   1.545   2.210 -0.0986 -0.4813  1.2506
15393TIP3   OH267593   6.678   2.185  14.063  0.2074  0.0858  0.3667
15393TIP3    H167594   6.658   2.100  14.103 -0.8298  0.0631 -0.1816
15393TIP3    H267595   6.600   2.207  14.013 -0.0158  1.9183  1.4218
15394TIP3   OH267596   4.595   4.601   4.583 -0.2822 -0.1394  0.0033
15394TIP3    H167597   4.629   4.529   4.531 -0.5889 -0.3784  0.1275
15394TIP3    H267598   4.522   4.563   4.632 -1.0164  0.4547 -0.5856
15395TIP3   OH267599   3.031   0.470  15.045 -0.0505 -0.7043 -0.3703
15395TIP3    H167600   3.094   0.404  15.017  0.1751 -0.6495 -0.0055
15395TIP3    H267601   2.968   0.423  15.099  0.0345 -0.6507 -0.2210
15396TIP3   OH267602   5.756   0.279  12.884  0.5489 -0.2833 -0.7401
15396TIP3    H167603   5.820   0.323  12.829  1.6676 -1.2150 -0.2265
15396TIP3    H267604   5.783   0.300  12.974 -0.5854  0.2974 -0.5118
15397TIP3   OH267605   5.485   1.553  14.238  0.0471 -0.2706  0.0419
15397TIP3    H167606   5.491   1.564  14.333 -1.8035 -1.3289  0.3369
15397TIP3    H267607   5.395   1.577  14.217  0.0339 -1.3618 -1.2532
15398TIP3   OH267608   2.187   3.148  10.926  0.5630  0.0802  0.4655
15398TIP3    H167609   2.212   3.118  11.013  0.3869  0.2155  0.5630
15398TIP3    H267610   2.094   3.126  10.919  0.5447  0.1890  0.3601
15399TIP3   OH267611   6.087   4.272   4.977  0.1676  0.3733  0.4442
15399TIP3    H167612   6.181   4.294   4.978  0.0193  1.0939 -0.1140
15399TIP3    H267613   6.082   4.190   4.928  0.3812  1.0764 -0.7939
15400TIP3   OH267614   6.014   6.685   2.742 -1.5031  0.3684 -0.5953
15400TIP3    H167615   6.009   6.723   2.655 -0.7203  0.7768 -0.4707
15400TIP3    H267616   6.068   6.607   2.731 -3.0362 -0.6935 -0.8343
15401TIP3   OH267617   4.706   3.928   3.131 -0.3828  0.0045  0.2210
15401TIP3    H167618   4.702   3.894   3.220 -2.0753 -2.1633 -0.6013
15401TIP3    H267619   4.721   3.851   3.076 -0.1033  1.1800 -1.4286
15402TIP3   OH267620   3.757   0.593  16.680 -0.1571  0.1889 -0.0607
15402TIP3    H167621   3.710   0.618  16.600 -0.7576  1.4955  0.6535
15402TIP3    H267622   3.688   0.564  16.740  0.5027 -3.4114 -0.8308
15403TIP3   OH267623   0.850   6.356   5.092  0.1232  0.0172  0.5564
15403TIP3    H167624   0.776   6.360   5.152  0.2598 -2.0186  0.9437
15403TIP3    H267625   0.817   6.393   5.010 -1.9290 -2.3028  0.2115
15404TIP3   OH267626   1.414   1.182  11.875 -0.3142  0.2588  0.3942
15404TIP3    H167627   1.376   1.098  11.851  2.0802 -0.9037  0.3851
15404TIP3    H267628   1.428   1.176  11.970 -1.3663  1.2287  0.6389
15405TIP3   OH267629   2.507   3.916   0.256 -0.1018 -0.9664  0.2443
15405TIP3    H167630   2.569   3.952   0.192 -1.2826 -1.7787 -1.4097
15405TIP3    H267631   2.551   3.929   0.340  0.9829  1.2683 -0.5604
15406TIP3   OH267632   2.399   0.578  14.003  0.4278  0.2256 -0.0166
15406TIP3    H167633   2.369   0.619  13.922  0.5596  0.3231 -0.0157
15406TIP3    H267634   2.431   0.492  13.976  0.9943  0.4736 -0.1537
15407TIP3   OH267635   0.292   2.245  16.261 -0.1439 -0.7108 -0.1294
15407TIP3    H167636   0.332   2.173  16.310 -0.2870 -1.1896 -0.7007
15407TIP3    H267637   0.343   2.322  16.286  0.9899 -1.2664 -0.6532
15408TIP3   OH267638   2.157   4.420   3.622  0.0596 -0.0590  0.3188
15408TIP3    H167639   2.182   4.432   3.713 -0.3469  1.3217  0.2730
15408TIP3    H267640   2.110   4.500   3.599 -0.4862 -0.6930 -0.8921
15409TIP3   OH267641   3.366   2.623   1.902 -0.1341 -0.5010  0.1458
15409TIP3    H167642   3.383   2.610   1.996 -2.1053 -0.2471  0.5812
15409TIP3    H267643   3.287   2.572   1.885 -0.5985  0.5787 -1.0647
15410TIP3   OH267644   3.868   3.668   4.896 -0.3398 -0.2049  0.3381
15410TIP3    H167645   3.897   3.623   4.975  0.0667 -0.3121  0.1317
15410TIP3    H267646   3.943   3.663   4.836 -0.3428  0.6041  0.2508
15411TIP3   OH267647   3.091   4.683  16.429  0.8071  0.4804 -0.2281
15411TIP3    H167648   3.045   4.765  16.411  0.6348  0.3481 -0.3941
15411TIP3    H267649   3.044   4.618  16.377  0.5610  0.1658  0.3748
15412TIP3   OH267650   1.487   1.598   0.633  0.9978 -0.1276  0.4164
15412TIP3    H167651   1.496   1.503   0.618 -3.4548 -0.3990 -2.1677
15412TIP3    H267652   1.444   1.604   0.718  3.2277 -0.1386  1.6341
15413TIP3   OH267653   3.776   2.248  16.689  0.0024 -0.4311  0.3088
15413TIP3    H167654   3.859   2.258  16.737  0.3115  0.1247 -0.3371
15413TIP3    H267655   3.760   2.153  16.691  0.7717 -0.5760  0.2401
15414TIP3   OH267656   0.408   1.898  14.470  0.8461 -0.1185 -0.7405
15414TIP3    H167657   0.462   1.862  14.540 -1.0508 -0.6331  0.5413
15414TIP3    H267658   0.386   1.822  14.416 -0.3142 -0.3153 -0.0211
15415TIP3   OH267659   4.410   2.889  16.219 -0.0610  0.2995 -0.3158
15415TIP3    H167660   4.379   2.798  16.220 -0.6759  0.5077 -0.1478
15415TIP3    H267661   4.357   2.933  16.286 -0.6504  1.0783 -1.2756
15416TIP3   OH267662   3.269   6.107   0.941 -0.0953  0.3871  0.2485
15416TIP3    H167663   3.266   6.200   0.960 -0.9817  0.8213 -1.7338
15416TIP3    H267664   3.184   6.088   0.901 -0.5077 -1.6104  1.8996
15417TIP3   OH267665   0.176   5.254  16.239  0.0206  0.0123 -0.3903
15417TIP3    H167666   0.189   5.199  16.162 -0.2942 -1.1495  0.3593
15417TIP3    H267667   0.088   5.231  16.270  0.1006  0.5443  0.2536
15418TIP3   OH267668   4.699   1.210  13.332  0.2062  0.5021 -0.1738
15418TIP3    H167669   4.702   1.146  13.260 -3.8636  1.0532 -1.0948
15418TIP3    H267670   4.734   1.290  13.294  2.8826 -0.4274  0.1696
15419TIP3   OH267671   1.110   0.293  17.118  0.2442 -0.7157  0.2489
15419TIP3    H167672   1.100   0.206  17.158  0.8409 -0.6236  0.5956
15419TIP3    H267673   1.073   0.353  17.182 -0.4738 -0.7318 -0.1318
15420TIP3   OH267674   2.683   1.057  13.914  0.1481 -0.3939  0.8174
15420TIP3    H167675   2.766   1.025  13.879  0.2200 -0.6414  1.2051
15420TIP3    H267676   2.616   1.010  13.864  0.2062  0.8080 -0.4460
15421TIP3   OH267677   4.937   1.207   1.299 -0.4774  0.0867 -0.3965
15421TIP3    H167678   4.919   1.127   1.349 -0.4313  0.2897 -0.0505
15421TIP3    H267679   4.856   1.223   1.250 -0.9043  0.4573  0.4089
15422TIP3   OH267680   6.041   0.446   5.073 -0.1594  0.7952  0.3540
15422TIP3    H167681   6.113   0.426   5.132 -0.7075 -1.6758  0.2809
15422TIP3    H267682   6.043   0.376   5.008 -2.0232  1.1995 -0.2028
15423TIP3   OH267683   0.970   2.872   0.683  0.0848 -0.1168  0.3711
15423TIP3    H167684   1.045   2.814   0.694  0.5095 -0.3301 -2.7767
15423TIP3    H267685   1.008   2.959   0.671 -0.2554  0.0237  0.2898
15424TIP3   OH267686   0.776   5.067   4.914 -0.5881 -0.1542 -0.0576
15424TIP3    H167687   0.870   5.085   4.919 -0.2716 -1.4833 -0.6624
15424TIP3    H267688   0.770   4.980   4.874 -2.1591  1.4773 -3.9044
15425TIP3   OH267689   2.432   3.395  13.665  0.4274 -0.3329  0.0656
15425TIP3    H167690   2.514   3.445  13.676  0.4830 -0.5569  0.6943
15425TIP3    H267691   2.447   3.342  13.587  0.0314  1.2829 -1.1878
15426TIP3   OH267692   1.038   2.526   0.065  0.5270  0.4920 -0.4407
15426TIP3    H167693   1.101   2.515   0.136 -1.2584 -0.9936  0.9986
15426TIP3    H267694   1.067   2.605   0.019  3.1131  0.1513  0.4508
15427TIP3   OH267695   1.865   5.617  16.801 -0.0943 -0.1810  0.1495
15427TIP3    H167696   1.900   5.683  16.742  0.6972  1.1756  2.0597
15427TIP3    H267697   1.789   5.658  16.841  1.5697  0.5107  2.8910
15428TIP3   OH267698   1.323   5.378  15.137 -0.0003  0.5561 -0.1887
15428TIP3    H167699   1.355   5.290  15.157 -3.0450 -0.2602  1.6321
15428TIP3    H267700   1.344   5.429  15.216 -1.9398  0.3006  0.5423
15429TIP3   OH267701   2.646   3.031   4.141  0.3120 -0.1565  0.1406
15429TIP3    H167702   2.627   2.938   4.154  0.0264 -0.3342 -1.3534
15429TIP3    H267703   2.637   3.070   4.228  2.5339 -1.8642  1.2160
15430TIP3   OH267704   1.016   1.262  16.095  0.1511  0.2923  0.1755
15430TIP3    H167705   1.015   1.354  16.067 -0.8706 -0.0856 -1.1000
15430TIP3    H267706   0.934   1.251  16.144 -1.1163 -0.5651 -1.9742
15431TIP3   OH267707   6.637   6.716  12.841 -0.3730 -0.1564  0.3167
15431TIP3    H167708   6.661   6.630  12.806 -1.6496 -0.1141 -0.7151
15431TIP3    H267709   6.672   6.779  12.778  0.3441  0.0882  0.9425
15432TIP3   OH267710   6.353   1.016   4.944 -0.4037 -0.9491 -0.3095
15432TIP3    H167711   6.329   1.027   4.852 -2.6306 -2.1165  0.0655
15432TIP3    H267712   6.432   0.962   4.941  0.2062 -0.0386 -1.5435
15433TIP3   OH267713   3.727   1.642  11.745 -0.0892  0.3676  0.1128
15433TIP3    H167714   3.731   1.635  11.840  0.7212  0.4003  0.0905
15433TIP3    H267715   3.692   1.557  11.717 -1.3727  0.7469  0.4841
15434TIP3   OH267716   2.210   0.801   6.670 -0.3899  0.6573 -0.6468
15434TIP3    H167717   2.188   0.893   6.654 -0.9209  1.4496  3.4458
15434TIP3    H267718   2.303   0.794   6.645 -1.1149  1.3507 -3.9119
15435TIP3   OH267719   2.207   0.588   3.983  0.1309  0.2944  0.4448
15435TIP3    H167720   2.112   0.597   3.986  0.0970 -0.1278  0.6354
15435TIP3    H267721   2.238   0.635   4.061  0.1138  0.8439  0.1269
15436TIP3   OH267722   5.434   1.674  11.958  0.2961 -0.1171 -0.4004
15436TIP3    H167723   5.390   1.759  11.958  2.1940  0.9205  0.3690
15436TIP3    H267724   5.518   1.690  11.915  1.8185 -0.8946  2.0522
15437TIP3   OH267725   0.752   4.322  15.788 -0.0180 -0.3125  0.1500
15437TIP3    H167726   0.694   4.258  15.747 -0.0202 -0.8616  0.9758
15437TIP3    H267727   0.736   4.312  15.882 -0.9714  1.7981  0.2838
15438TIP3   OH267728   3.028   5.393   3.192  0.2027  0.0506  0.0665
15438TIP3    H167729   3.027   5.377   3.098  0.2336  2.6378 -0.4295
15438TIP3    H267730   2.963   5.462   3.206 -1.3063 -1.6712  2.2700
15439TIP3   OH267731   6.629   4.400   4.825 -0.7980  0.0525  0.7253
15439TIP3    H167732   6.655   4.490   4.844 -1.0942  0.0481  1.1617
15439TIP3    H267733   6.622   4.358   4.911  1.5722 -1.0428  0.4808
15440TIP3   OH267734   6.455   1.111   5.607  0.5592  0.1000 -0.5778
15440TIP3    H167735   6.511   1.072   5.540 -0.1640 -1.3300 -0.3922
15440TIP3    H267736   6.366   1.088   5.580  0.1699  0.7785  0.0902
15441TIP3   OH267737   3.908   5.546   2.435  0.1768 -0.1016  0.3514
15441TIP3    H167738   3.829   5.493   2.423  1.4895 -2.7902  2.3204
15441TIP3    H267739   3.888   5.629   2.393 -2.4827 -1.7540 -2.0547
15442TIP3   OH267740   1.722   2.159  11.168 -0.5293 -0.3970  0.5806
15442TIP3    H167741   1.674   2.174  11.086 -1.2928 -0.1905  1.0612
15442TIP3    H267742   1.793   2.223  11.166  2.1948 -3.1641 -1.9714
15443TIP3   OH267743   6.280   6.504  15.583  0.0102 -0.1025 -0.6365
15443TIP3    H167744   6.201   6.454  15.600 -0.1345  0.2342 -0.2993
15443TIP3    H267745   6.251   6.595  15.579  0.4580  0.0792  0.0419
15444TIP3   OH267746   4.751   4.721  14.384 -0.0171 -0.0908  0.2859
15444TIP3    H167747   4.713   4.737  14.470 -1.6419 -0.3713 -0.3423
15444TIP3    H267748   4.842   4.750  14.392 -0.6085  1.5337  1.5668
15445TIP3   OH267749   6.387   0.035   1.306 -0.0285 -0.1040  0.3788
15445TIP3    H167750   6.462   0.024   1.364  0.3978  0.7392  0.0174
15445TIP3    H267751   6.373  -0.051   1.268  1.1572 -0.1541 -0.0011
15446TIP3   OH267752   0.446   1.561  15.176  0.0811  0.2241 -0.1003
15446TIP3    H167753   0.484   1.589  15.092  0.7251  1.2304  0.5012
15446TIP3    H267754   0.504   1.598  15.242 -0.8793  0.1413  0.8186
15447TIP3   OH267755   1.956   1.323   1.720  0.1419  0.2555 -0.0930
15447TIP3    H167756   1.985   1.368   1.800  0.4712  0.3427 -0.2593
15447TIP3    H267757   1.874   1.365   1.697  1.0028  1.5477 -0.8859
15448TIP3   OH267758   2.397   1.883  12.401 -0.3748  0.1978  0.2906
15448TIP3    H167759   2.427   1.910  12.314 -1.1629  1.8033  0.4788
15448TIP3    H267760   2.362   1.795  12.388 -0.6250  0.4720 -1.0713
15449TIP3   OH267761   0.232   2.063   5.265  0.5263  0.4211 -0.2170
15449TIP3    H167762   0.259   2.151   5.240  4.0553 -0.4748 -0.1201
15449TIP3    H267763   0.287   2.005   5.213 -1.3141 -1.7588  0.1013
15450TIP3   OH267764   5.402   5.495   4.618 -0.0997 -0.0809 -0.0317
15450TIP3    H167765   5.330   5.506   4.556 -0.3104 -0.2294  0.1811
15450TIP3    H267766   5.386   5.563   4.684  1.0053  1.1177 -0.9524
15451TIP3   OH267767   6.551   4.404   2.146  0.2876  0.1580 -0.4276
15451TIP3    H167768   6.459   4.381   2.131 -0.5626  1.6051  2.0139
15451TIP3    H267769   6.595   4.320   2.156 -0.6519 -0.5749 -1.9809
15452TIP3   OH267770   2.820   5.563  12.839 -0.9003 -0.8829 -0.1614
15452TIP3    H167771   2.802   5.656  12.851  0.8382 -0.5967  0.5474
15452TIP3    H267772   2.800   5.545  12.747 -1.1913  0.2013 -0.3158
15453TIP3   OH267773   1.490   1.086  16.415 -0.1130 -0.4227 -0.2919
15453TIP3    H167774   1.412   1.072  16.469 -0.1779  1.8647  0.2783
15453TIP3    H267775   1.456   1.102  16.327 -0.2228 -0.2618 -0.2191
15454TIP3   OH267776   3.002   4.962  11.858  0.3298  0.4432 -0.8856
15454TIP3    H167777   3.034   4.933  11.772  0.7528 -3.1660  0.3439
15454TIP3    H267778   2.907   4.966  11.848  0.3394 -0.3728 -1.4432
15455TIP3   OH267779   4.640   1.214  15.705  0.2221 -0.2343  0.6591
15455TIP3    H167780   4.571   1.279  15.693 -2.5523 -2.8096  1.2600
15455TIP3    H267781   4.677   1.201  15.618 -1.6027 -0.2931 -0.1540
15456TIP3   OH267782   2.973   2.596  13.411  0.3285  0.1440 -0.0865
15456TIP3    H167783   2.901   2.553  13.365  1.1568  1.7956 -3.2435
15456TIP3    H267784   2.953   2.689  13.405  2.0232  0.5611  0.1834
15457TIP3   OH267785   5.719   4.515  11.261  0.0008 -0.5161  0.4051
15457TIP3    H167786   5.742   4.479  11.346  0.2156 -0.6092  0.3084
15457TIP3    H267787   5.631   4.550  11.273  1.2417  2.5236  1.6277
15458TIP3   OH267788   4.472   5.696  16.569 -0.4557  0.0832 -0.0890
15458TIP3    H167789   4.448   5.738  16.651 -0.5598  1.5431 -0.8412
15458TIP3    H267790   4.531   5.625  16.594  1.4586  1.9770  1.0865
15459TIP3   OH267791   4.528   1.253   6.218  0.3778  0.0633  0.2893
15459TIP3    H167792   4.454   1.212   6.262 -0.0097 -0.7894 -1.0701
15459TIP3    H267793   4.602   1.193   6.233 -0.0716 -0.9425 -1.2818
15460TIP3   OH267794   6.658   4.069   2.615 -0.1540 -0.3274  0.7740
15460TIP3    H167795   6.672   4.145   2.672 -0.3096  0.7395 -0.5490
15460TIP3    H267796   6.565   4.048   2.625 -0.2315 -0.0055  0.7428
15461TIP3   OH267797   2.109   1.917   1.756  0.3592  0.6276  0.3571
15461TIP3    H167798   2.098   1.998   1.806 -0.0773  0.4639  0.5359
15461TIP3    H267799   2.161   1.943   1.680  0.7307  0.9481  0.7183
15462TIP3   OH267800   0.492   3.068   1.799 -0.3206  0.1154  0.6894
15462TIP3    H167801   0.506   2.974   1.787 -1.0922 -0.1156  1.5391
15462TIP3    H267802   0.397   3.079   1.797 -0.2667  0.7827  1.2608
15463TIP3   OH267803   3.635   5.489   3.782 -0.1843 -0.4194  0.0914
15463TIP3    H167804   3.543   5.512   3.767 -0.2833 -0.4551  0.6169
15463TIP3    H267805   3.632   5.424   3.853  0.0537 -2.3055 -1.5453
15464TIP3   OH267806   0.139   3.144  17.228 -0.1660 -0.0536 -0.1247
15464TIP3    H167807   0.160   3.171  17.318  1.3648  1.4243 -0.8899
15464TIP3    H267808   0.177   3.057  17.220  0.4535  0.1593  0.4025
15465TIP3   OH267809   2.824   4.047   5.033  0.2808 -0.0707  0.2124
15465TIP3    H167810   2.890   4.027   4.966 -0.8589 -2.3098 -0.3576
15465TIP3    H267811   2.753   4.089   4.984  0.4765  0.5991  0.4913
15466TIP3   OH267812   0.685   1.316   6.615 -0.2108  0.3478  0.2436
15466TIP3    H167813   0.667   1.295   6.524 -1.8607 -0.8063  0.8012
15466TIP3    H267814   0.601   1.305   6.660  0.3315  1.8214  1.7580
15467TIP3   OH267815   1.021   5.688   3.785 -0.0206  0.3311 -0.2942
15467TIP3    H167816   1.090   5.754   3.776  0.7600 -0.3644  0.4040
15467TIP3    H267817   1.008   5.655   3.697  2.2607 -1.2120 -0.1517
15468TIP3   OH267818   0.645   0.940   5.808 -0.1295  0.4774 -0.3634
15468TIP3    H167819   0.682   0.852   5.804 -0.3535  0.2346  1.7472
15468TIP3    H267820   0.715   0.993   5.845 -0.0717  1.1629 -1.4265
15469TIP3   OH267821   0.618   3.177   5.266  0.2348  0.7668 -0.1614
15469TIP3    H167822   0.591   3.231   5.340  1.6488  0.8990  0.2814
15469TIP3    H267823   0.681   3.232   5.219  1.3706 -0.3188  0.0491
15470TIP3   OH267824   4.999   1.877   4.424  0.2894  0.4357  0.1845
15470TIP3    H167825   4.915   1.922   4.419  0.4816  0.8650  0.7532
15470TIP3    H267826   5.029   1.890   4.514  1.2230  0.7698 -0.1516
15471TIP3   OH267827   4.474   6.249  15.708  0.3988  1.0925 -0.0775
15471TIP3    H167828   4.379   6.239  15.700  0.4180  0.6892  0.2062
15471TIP3    H267829   4.509   6.164  15.681  0.7186  1.4579 -0.8643
15472TIP3   OH267830   2.563   0.801  13.792  0.0366  0.0221 -0.8380
15472TIP3    H167831   2.624   0.828  13.723  0.0925 -0.9092 -1.1786
15472TIP3    H267832   2.578   0.707  13.800  0.4346  0.2086  0.8708
15473TIP3   OH267833   4.006   2.551   5.464  0.4698 -0.5947 -0.0619
15473TIP3    H167834   4.006   2.641   5.497 -1.6337 -0.6863  0.3394
15473TIP3    H267835   4.035   2.498   5.538  0.7245 -0.3383  0.0225
15474TIP3   OH267836   4.387   3.491  15.909 -0.6035  0.5252 -0.2817
15474TIP3    H167837   4.447   3.528  15.844  0.5366 -1.8571 -0.6524
15474TIP3    H267838   4.344   3.419  15.864 -0.8117 -0.3111  1.1984
15475TIP3   OH267839   0.664   2.345  12.857  0.7027  0.2680 -0.2199
15475TIP3    H167840   0.612   2.417  12.893  0.9310  0.1941  0.2691
15475TIP3    H267841   0.724   2.387  12.796 -0.7913  0.2188 -1.8190
15476TIP3   OH267842   2.643   3.072  11.308  0.5339  0.5703 -0.1796
15476TIP3    H167843   2.738   3.087  11.301  0.8114 -0.6755  0.5842
15476TIP3    H267844   2.621   3.022  11.230  0.5456  0.7365 -0.2869
15477TIP3   OH267845   5.350   6.527  13.041 -0.5405  0.0859  0.0590
15477TIP3    H167846   5.386   6.442  13.064 -0.8205 -0.4325 -1.3206
15477TIP3    H267847   5.408   6.560  12.972 -0.8742  0.6809  0.0523
15478TIP3   OH267848   4.581   5.104  11.633 -0.5432 -0.0014  0.1174
15478TIP3    H167849   4.486   5.089  11.640 -0.5982  0.5545  0.6980
15478TIP3    H267850   4.598   5.175  11.696  0.3217 -0.3557  0.2851
15479TIP3   OH267851   6.088   6.569   0.345  0.0439 -0.6197  0.2451
15479TIP3    H167852   6.114   6.533   0.260  0.3547 -0.1036  0.1202
15479TIP3    H267853   6.012   6.623   0.325 -1.5154 -2.5308  0.6821
15480TIP3   OH267854   3.858   6.067   5.982  0.2792 -0.4086  0.3717
15480TIP3    H167855   3.858   6.115   5.900 -1.5110  0.7542  0.9753
15480TIP3    H267856   3.824   5.980   5.959 -0.0842 -0.1347 -0.1512
15481TIP3   OH267857   0.205   6.516  13.462  0.3419 -0.6491 -0.3586
15481TIP3    H167858   0.235   6.431  13.494  2.2037  0.5920  1.5098
15481TIP3    H267859   0.200   6.570  13.541 -1.9209  0.6979 -1.3283
15482TIP3   OH267860   0.735   5.539  14.229 -0.2519  0.2113 -0.4907
15482TIP3    H167861   0.655   5.496  14.201  0.8155 -2.0881 -0.2163
15482TIP3    H267862   0.738   5.523  14.324 -0.4418  2.0332 -0.1435
15483TIP3   OH267863   5.946   0.028  14.122  0.0169  0.8449 -0.5049
15483TIP3    H167864   5.931  -0.058  14.083 -0.8960  0.5807  0.4029
15483TIP3    H267865   5.863   0.052  14.162  0.8198  1.2226  1.0337
15484TIP3   OH267866   5.312   6.750  17.149  0.5963 -0.8148  0.3262
15484TIP3    H167867   5.227   6.793  17.162  1.1607  0.7542 -0.8615
15484TIP3    H267868   5.295   6.658  17.169 -0.9048 -0.2329  2.0233
15485TIP3   OH267869   6.650   5.522  16.672 -0.2992  0.4983 -0.5313
15485TIP3    H167870   6.679   5.611  16.650  1.5313 -0.4491 -2.1810
15485TIP3    H267871   6.680   5.509  16.762 -0.2405  1.4029 -0.4085
15486TIP3   OH267872   4.914   5.844  13.023 -0.1824 -0.1985 -0.0088
15486TIP3    H167873   4.909   5.938  13.007 -0.5063 -0.2101  0.0089
15486TIP3    H267874   4.906   5.805  12.936  1.0907 -0.1817 -0.1440
15487TIP3   OH267875   4.086   4.543   5.890  0.6654  0.6877 -0.5063
15487TIP3    H167876   4.086   4.471   5.952 -0.0039  0.6530 -0.5355
15487TIP3    H267877   4.118   4.618   5.940 -0.5273  0.8271  0.0965
15488TIP3   OH267878   1.458   3.523  15.024  0.2910 -0.1424 -0.5359
15488TIP3    H167879   1.447   3.606  14.977  0.9407  0.3111  0.0793
15488TIP3    H267880   1.387   3.522  15.088  0.5456  0.1715 -0.2387
15489TIP3   OH267881   4.301   5.783  14.895 -0.1209 -0.4318 -0.6090
15489TIP3    H167882   4.353   5.703  14.905  0.8095 -0.1639 -2.6449
15489TIP3    H267883   4.211   5.755  14.908  0.3127 -1.4615  0.3497
15490TIP3   OH267884   3.010   5.375  15.695  0.4892  0.0465 -0.2470
15490TIP3    H167885   3.082   5.433  15.669  0.1667  0.5528 -0.0180
15490TIP3    H267886   2.952   5.430  15.746  0.4243 -0.6068  0.4013
15491TIP3   OH267887   0.574   6.314  11.759 -0.1390  0.1084 -0.4092
15491TIP3    H167888   0.579   6.348  11.848  0.8058  0.5991 -0.6393
15491TIP3    H267889   0.590   6.220  11.768  0.2417  0.2010 -0.0876
15492TIP3   OH267890   0.171   5.030  14.485  0.5972 -0.4057  1.1564
15492TIP3    H167891   0.264   5.013  14.497  0.6751 -0.0178  1.1139
15492TIP3    H267892   0.167   5.085  14.406  0.3948  0.2063  1.5855
15493TIP3   OH267893   3.794   3.344   0.828  0.2272 -0.3520 -0.0300
15493TIP3    H167894   3.844   3.305   0.756 -0.9148  0.0836 -1.1060
15493TIP3    H267895   3.854   3.344   0.902  1.7000 -0.1228 -1.1837
15494TIP3   OH267896   1.208   5.530   1.310  0.0100  0.1195 -0.2570
15494TIP3    H167897   1.255   5.610   1.335  0.4433  0.1048 -0.9850
15494TIP3    H267898   1.236   5.464   1.374 -1.2925  0.8350  1.1080
15495TIP3   OH267899   4.261   4.255   6.529 -0.0748 -0.4532 -0.5504
15495TIP3    H167900   4.251   4.346   6.555  2.0368 -0.5674  0.9103
15495TIP3    H267901   4.174   4.217   6.539 -0.9260  1.2972 -0.9174
15496TIP3   OH267902   2.993   4.258   1.817  0.0442  0.1923  0.0986
15496TIP3    H167903   2.957   4.169   1.812  0.8594 -0.1170 -0.4736
15496TIP3    H267904   3.079   4.252   1.775  0.5426  1.0336  0.9613
15497TIP3   OH267905   2.389   4.437   2.735  0.1708  0.1862 -0.1399
15497TIP3    H167906   2.423   4.457   2.822  0.2800  0.5737 -0.2732
15497TIP3    H267907   2.366   4.522   2.698 -1.7799 -0.0884  0.2913
15498TIP3   OH267908   3.520   2.591  16.267 -0.2048  0.0035  0.0753
15498TIP3    H167909   3.470   2.563  16.191  0.4550  2.7065 -1.4971
15498TIP3    H267910   3.564   2.512  16.298 -0.6980 -1.2279 -2.1987
15499TIP3   OH267911   0.645   2.130  16.163 -0.0797  0.1337  0.1788
15499TIP3    H167912   0.631   2.171  16.078 -0.3062  0.2705  0.2818
15499TIP3    H267913   0.562   2.141  16.209  0.4820  1.3711  0.9619
15500TIP3   OH267914   2.365   2.797   3.338  0.0793  0.1112  0.2505
15500TIP3    H167915   2.369   2.705   3.314 -0.8383  0.1484 -0.1226
15500TIP3    H267916   2.379   2.844   3.255 -0.8776  0.2695  0.1558
15501TIP3   OH267917   2.872   5.254   2.276 -0.0350  0.1909  0.4456
15501TIP3    H167918   2.813   5.236   2.202 -0.0055 -0.3163  0.5493
15501TIP3    H267919   2.904   5.343   2.258 -1.8557  1.0259  1.0686
15502TIP3   OH267920   5.778   3.591  11.172 -0.3765  0.3742  0.2570
15502TIP3    H167921   5.791   3.563  11.081  0.3268  0.2995  0.3723
15502TIP3    H267922   5.684   3.581  11.187 -0.4219 -0.1056 -0.3036
15503TIP3   OH267923   0.863   0.849   2.431 -0.2658 -0.2248  0.2000
15503TIP3    H167924   0.831   0.934   2.461  0.9656 -0.1233  1.3520
15503TIP3    H267925   0.959   0.857   2.436 -0.0789 -1.1347 -1.2805
15504TIP3   OH267926   2.641   3.913  15.801 -0.3718 -0.3374 -0.4546
15504TIP3    H167927   2.634   3.819  15.782 -0.6823 -0.1294 -1.3963
15504TIP3    H267928   2.662   3.916  15.895  2.5532 -1.4331 -0.9572
15505TIP3   OH267929   2.873   2.035  14.555  0.0917  0.2118  0.1148
15505TIP3    H167930   2.820   2.106  14.592  0.7843  0.5334  0.5174
15505TIP3    H267931   2.906   2.071  14.472  0.0818  0.1909  0.1019
15506TIP3   OH267932   0.475   1.909   0.086 -0.0531  0.5025 -0.0198
15506TIP3    H167933   0.556   1.891   0.135 -0.0685 -1.2386 -0.5433
15506TIP3    H267934   0.405   1.881   0.145 -0.1199 -0.5795 -0.5828
15507TIP3   OH267935   0.286   0.277  12.615 -0.5711 -0.2238 -0.1758
15507TIP3    H167936   0.261   0.302  12.704  0.2447 -0.6774  0.1938
15507TIP3    H267937   0.208   0.294  12.562 -1.1443 -0.1866  0.6657
15508TIP3   OH267938   2.132   0.235  17.128 -0.1860 -0.1492 -0.5749
15508TIP3    H167939   2.093   0.148  17.136 -0.1792 -0.0422  0.9028
15508TIP3    H267940   2.089   0.288  17.195  0.4246  0.7506 -0.8656
15509TIP3   OH267941   1.193   1.475  15.764 -0.1489 -0.4481 -0.0163
15509TIP3    H167942   1.186   1.380  15.774  0.3539 -0.3313  1.8369
15509TIP3    H267943   1.110   1.500  15.724 -0.8218 -1.5431  0.6191
15510TIP3   OH267944   6.353   0.809   1.631 -0.3678  0.2060  0.3256
15510TIP3    H167945   6.297   0.881   1.601 -0.0439 -0.7654 -3.0294
15510TIP3    H267946   6.434   0.851   1.660  0.5169  1.2517 -3.2372
15511TIP3   OH267947   4.799   1.862  12.802  0.0520  0.1182 -0.4632
15511TIP3    H167948   4.822   1.923  12.872 -0.8921 -0.7306  0.6380
15511TIP3    H267949   4.789   1.778  12.847 -2.5204 -0.0749 -1.2637
15512TIP3   OH267950   1.114   4.154  13.189  0.3877  0.4625  0.2401
15512TIP3    H167951   1.039   4.095  13.189  0.0268  0.9061  1.2042
15512TIP3    H267952   1.163   4.130  13.110 -0.4125 -0.2711 -0.0514
15513TIP3   OH267953   3.821   5.613   6.207 -0.5612  0.1239  0.1094
15513TIP3    H167954   3.846   5.631   6.297  0.9169  1.0061 -0.4397
15513TIP3    H267955   3.853   5.523   6.191 -0.2950  0.1841  0.2910
15514TIP3   OH267956   2.238   5.319   4.545  0.0271  0.1483 -0.7002
15514TIP3    H167957   2.299   5.389   4.568  0.1288 -0.6633  1.8425
15514TIP3    H267958   2.192   5.299   4.626 -1.7233 -1.1174 -1.9174
15515TIP3   OH267959   3.496   4.634  15.370 -0.0295 -0.0143 -0.7183
15515TIP3    H167960   3.439   4.711  15.366  0.0211  0.1657  1.1456
15515TIP3    H267961   3.459   4.580  15.440  0.3546 -1.3587 -1.5194
15516TIP3   OH267962   0.210   1.612   1.954 -0.3804  0.5484 -0.6286
15516TIP3    H167963   0.280   1.653   1.903 -1.6424  1.4275 -1.6949
15516TIP3    H267964   0.145   1.681   1.966 -0.5768  0.0661  1.3326
15517TIP3   OH267965   0.334   3.808  15.813 -0.1929  0.3787 -0.3548
15517TIP3    H167966   0.409   3.833  15.759 -1.0123 -0.2962 -1.8787
15517TIP3    H267967   0.366   3.736  15.867  0.1475 -0.2531 -1.3655
15518TIP3   OH267968   1.176   3.435   0.123 -0.2314 -0.5208  0.2144
15518TIP3    H167969   1.171   3.526   0.093 -3.6086 -1.5273 -2.8525
15518TIP3    H267970   1.086   3.407   0.132  0.7043 -3.4747  1.7481
15519TIP3   OH267971   3.645   2.100   0.905  0.0260  0.4423  0.3629
15519TIP3    H167972   3.585   2.070   0.973  0.1427 -0.2141  0.1867
15519TIP3    H267973   3.609   2.183   0.876 -1.9394 -0.8095 -1.0954
15520TIP3   OH267974   5.972   5.944  16.898  0.4234 -0.0759 -0.0889
15520TIP3    H167975   5.897   5.972  16.847 -1.5396 -2.1663  1.4637
15520TIP3    H267976   5.968   5.998  16.977 -0.8220 -1.6648  0.9803
15521TIP3   OH267977   1.937   1.694   1.695 -0.0313 -0.3667 -0.1243
15521TIP3    H167978   1.909   1.671   1.784 -0.4998  0.2717 -0.0960
15521TIP3    H267979   1.987   1.774   1.706  0.2326 -0.4933 -0.3979
15522TIP3   OH267980   2.201   3.740   3.161  0.0141  0.1464  0.3698
15522TIP3    H167981   2.174   3.830   3.141 -0.2311 -0.0620 -0.2315
15522TIP3    H267982   2.295   3.747   3.178 -0.1693  0.6709  1.2713
15523TIP3   OH267983   1.874   1.171  15.379  0.4284  0.5456 -0.3538
15523TIP3    H167984   1.800   1.139  15.430  0.6350 -1.3261 -1.1222
15523TIP3    H267985   1.903   1.094  15.329  1.9140  1.6229 -1.2303
15524TIP3   OH267986   1.896   1.805  14.536 -0.6346  0.4286 -0.3427
15524TIP3    H167987   1.834   1.734  14.520 -0.8160  0.7137 -0.9465
15524TIP3    H267988   1.869   1.875  14.476  0.6095  0.3519 -1.0383
15525TIP3   OH267989   6.243   3.917   5.409  0.1554 -0.0793  0.1907
15525TIP3    H167990   6.182   3.862   5.459  1.8877 -0.9190  1.4708
15525TIP3    H267991   6.276   3.980   5.472 -0.0819  0.9850 -0.7211
15526TIP3   OH267992   3.788   2.622   3.931  0.2455 -0.1356  0.1884
15526TIP3    H167993   3.699   2.613   3.966  0.2771  0.9236  0.5517
15526TIP3    H267994   3.776   2.626   3.836  0.0637 -1.7533  0.1076
15527TIP3   OH267995   4.137   5.122  12.468  0.3427 -0.4012  0.9269
15527TIP3    H167996   4.114   5.176  12.393  2.5319  0.9756  1.1508
15527TIP3    H267997   4.213   5.071  12.439  0.8356 -0.3036  1.9720
15528TIP3   OH267998   5.648   3.318   5.112  0.0875  0.2494  0.1052
15528TIP3    H167999   5.639   3.381   5.041  0.5483 -1.3008 -1.3919
15528TIP3    H268000   5.743   3.309   5.124  0.0228 -0.0300  0.4233
15529TIP3   OH268001   5.641   6.326  13.261  0.4222 -0.2184  0.4560
15529TIP3    H168002   5.575   6.341  13.193  1.8376  0.2324 -0.8724
15529TIP3    H268003   5.607   6.251  13.310 -2.0301  1.2017  1.0998
15530TIP3   OH268004   0.313   3.223  16.876 -0.0198  0.2990 -0.1479
15530TIP3    H168005   0.238   3.278  16.852  0.2745  1.9463  2.3691
15530TIP3    H268006   0.369   3.225  16.798 -0.5668  2.7066 -0.5801
15531TIP3   OH268007   2.864   3.434   2.167  0.6783 -0.7478  0.2669
15531TIP3    H168008   2.895   3.468   2.251  0.1093  0.4141  0.0372
15531TIP3    H268009   2.922   3.474   2.102 -0.1934  0.0722 -0.0334
15532TIP3   OH268010   1.186   0.246  11.132 -0.2057  0.2479 -0.1856
15532TIP3    H168011   1.159   0.309  11.200  0.5089  0.5280 -0.1550
15532TIP3    H268012   1.280   0.261  11.121  0.1617 -1.3436  0.3857
15533TIP3   OH268013   5.610   4.680  15.206  0.4782  0.2994 -0.2462
15533TIP3    H168014   5.573   4.591  15.212 -0.6368  0.8254  1.6075
15533TIP3    H268015   5.701   4.670  15.232  0.4249 -0.3495 -0.2911
15534TIP3   OH268016   0.789   2.088  14.576  0.4090 -0.5116 -0.0755
15534TIP3    H168017   0.717   2.110  14.516 -1.1824 -0.5887  1.6982
15534TIP3    H268018   0.861   2.145  14.549 -1.5951  2.5602  0.5014
15535TIP3   OH268019   2.772   1.080   3.049 -0.2214 -0.2879 -0.1955
15535TIP3    H168020   2.683   1.044   3.055 -0.3860 -0.0422 -1.0998
15535TIP3    H268021   2.761   1.173   3.070 -0.1581 -0.2836 -0.1831
15536TIP3   OH268022   0.743   4.726   5.711 -0.2943  0.2140 -0.0604
15536TIP3    H168023   0.688   4.799   5.740 -0.4597  0.1799 -0.2862
15536TIP3    H268024   0.792   4.700   5.789 -1.4792 -0.5402  0.4662
15537TIP3   OH268025   5.402   2.360   0.428 -0.7002  0.6274 -0.0240
15537TIP3    H168026   5.349   2.347   0.506  1.2720 -2.8959  0.9533
15537TIP3    H268027   5.348   2.326   0.356 -2.0023  2.6754 -0.0816
15538TIP3   OH268028   6.200   4.640   3.732 -0.8175 -0.0988 -0.0025
15538TIP3    H168029   6.205   4.732   3.757 -0.0415  0.1829 -1.1033
15538TIP3    H268030   6.211   4.592   3.814  1.9656  0.7661  0.2382
15539TIP3   OH268031   6.102   3.975   2.309 -0.4770 -0.2595 -0.1253
15539TIP3    H168032   6.073   3.887   2.335 -2.8728  0.1904 -1.0441
15539TIP3    H268033   6.033   4.033   2.340  0.8057  1.2677 -0.0370
15540TIP3   OH268034   1.710   5.000  14.276 -0.0156 -0.7390 -0.3536
15540TIP3    H168035   1.758   5.080  14.256 -0.7207 -0.6643 -1.8688
15540TIP3    H268036   1.777   4.932  14.280  0.4060 -0.3455 -0.6299
15541TIP3   OH268037   3.107   6.763  13.335  0.2931 -0.0461 -0.3129
15541TIP3    H168038   3.149   6.686  13.296  0.0053  0.3271 -1.4034
15541TIP3    H268039   3.058   6.802  13.263  0.6762  1.3345  0.1353
15542TIP3   OH268040   5.780   4.030   5.204  0.3629  0.3643 -0.1835
15542TIP3    H168041   5.867   4.041   5.244  1.5362 -3.2486 -1.3465
15542TIP3    H268042   5.733   3.973   5.266  0.5937 -1.5305 -1.6459
15543TIP3   OH268043   3.471   4.388   4.621  0.1330  0.0157 -0.3200
15543TIP3    H168044   3.494   4.474   4.655  0.6676 -0.5832  0.9112
15543TIP3    H268045   3.551   4.355   4.581 -0.2910  0.4065 -1.5287
15544TIP3   OH268046   0.353   2.394   6.037  0.0498  0.6332 -0.3296
15544TIP3    H168047   0.411   2.372   6.110  0.7466 -0.1055 -1.0820
15544TIP3    H268048   0.394   2.470   5.996  2.2624 -1.5977 -2.6571
15545TIP3   OH268049   3.595   2.667   2.615  0.3495 -0.3871 -0.1539
15545TIP3    H168050   3.542   2.734   2.573  1.0915  1.3824  1.6036
15545TIP3    H268051   3.678   2.710   2.635  0.5050 -1.4901  1.8782
15546TIP3   OH268052   1.440   0.240  11.314  0.2061 -0.6824  0.7017
15546TIP3    H168053   1.375   0.286  11.366  0.6736  0.2915  0.4326
15546TIP3    H268054   1.444   0.152  11.354 -1.1747 -0.7299  0.7880
15547TIP3   OH268055   2.558   1.785   0.371  0.1560 -0.7899  0.6823
15547TIP3    H168056   2.515   1.740   0.298 -1.2940  2.4191 -0.6080
15547TIP3    H268057   2.493   1.786   0.440 -0.4662  0.6439  0.1174
15548TIP3   OH268058   4.784   4.170   5.184  0.3330 -0.1259 -0.2033
15548TIP3    H168059   4.694   4.203   5.191  0.7725  1.1983 -0.5931
15548TIP3    H268060   4.825   4.194   5.266 -0.4783 -3.5670  1.4327
15549TIP3   OH268061   3.720   2.840   3.304  0.2647 -0.2747  0.2240
15549TIP3    H168062   3.632   2.822   3.270 -0.1619  2.7295 -0.5317
15549TIP3    H268063   3.716   2.930   3.336  3.1475  0.0518 -0.0353
15550TIP3   OH268064   2.231   4.006  15.329 -0.4719 -0.2872 -0.4303
15550TIP3    H168065   2.153   3.961  15.296 -1.1260 -0.6174  1.4092
15550TIP3    H268066   2.226   3.995  15.424  3.0097 -2.3361 -0.3082
15551TIP3   OH268067   6.703   0.603  13.929  0.3391  0.4472  0.4214
15551TIP3    H168068   6.701   0.522  13.878  1.6228  0.6462  0.0160
15551TIP3    H268069   6.620   0.603  13.978 -1.0115  0.3022 -1.7258
15552TIP3   OH268070   1.869   5.483   0.591 -0.1769  0.3891 -0.2171
15552TIP3    H168071   1.786   5.438   0.580  0.1454 -0.0361 -1.0097
15552TIP3    H268072   1.849   5.559   0.646 -0.7426 -0.6554  1.0651
15553TIP3   OH268073   2.648   5.419  13.007 -0.3127 -0.2676  0.3404
15553TIP3    H168074   2.654   5.337  12.958 -0.6876 -0.5273  0.7245
15553TIP3    H268075   2.720   5.472  12.974  0.3352 -1.0004  0.5413
15554TIP3   OH268076   0.906   2.494   0.623 -0.4556 -0.0730  0.7163
15554TIP3    H168077   0.852   2.550   0.567 -0.3846  1.8321  2.4306
15554TIP3    H268078   0.991   2.491   0.578 -1.7056 -2.8428 -1.8412
15555TIP3   OH268079   0.231   2.584   2.372 -0.0362  0.1280  0.2369
15555TIP3    H168080   0.285   2.523   2.423  0.6275 -0.9603 -1.6880
15555TIP3    H268081   0.187   2.529   2.307 -0.9132  1.4641 -0.3378
15556TIP3   OH268082   3.347   2.526   5.402 -0.0003 -0.5082  0.4543
15556TIP3    H168083   3.281   2.593   5.421 -0.2095  0.1154 -2.1203
15556TIP3    H268084   3.430   2.568   5.422 -0.1898  0.1222 -0.0370
15557TIP3   OH268085   3.204   4.650   2.905  0.5988 -0.3149 -0.4514
15557TIP3    H168086   3.250   4.625   2.985 -1.1868  3.3689  2.0169
15557TIP3    H268087   3.258   4.720   2.867  0.6020 -0.9324 -1.6426
15558TIP3   OH268088   2.148   0.262  16.208  0.1614  0.1702 -0.1643
15558TIP3    H168089   2.153   0.189  16.270 -0.7555 -0.2300 -0.5453
15558TIP3    H268090   2.236   0.299  16.208  0.5050 -0.6136  0.4270
15559TIP3   OH268091   4.592   5.905   1.658 -0.6241 -0.7630 -0.0878
15559TIP3    H168092   4.594   5.817   1.620 -0.2773 -1.4801  1.5327
15559TIP3    H268093   4.684   5.931   1.665 -0.6905 -0.6035  0.2010
15560TIP3   OH268094   3.121   4.648   4.773 -0.3102  0.5665 -0.2893
15560TIP3    H168095   3.198   4.705   4.782  0.2593 -0.1290 -0.6496
15560TIP3    H268096   3.113   4.635   4.678 -0.4621  0.0760 -0.2079
15561TIP3   OH268097   2.829   2.174  16.892 -0.3801  0.4426  0.3059
15561TIP3    H168098   2.808   2.151  16.982 -0.2954  1.2761  0.5449
15561TIP3    H268099   2.745   2.198  16.853 -0.5166 -0.5124 -0.0348
15562TIP3   OH268100   1.458   4.614   0.423 -0.5230  0.2395 -0.2481
15562TIP3    H168101   1.386   4.566   0.382  0.7180 -1.4860 -0.4971
15562TIP3    H268102   1.537   4.573   0.389  0.6145  2.1831 -0.0967
15563TIP3   OH268103   0.871   5.729   2.372 -0.0377  0.2853  0.3474
15563TIP3    H168104   0.798   5.694   2.320  0.6423 -1.9555  0.7779
15563TIP3    H268105   0.849   5.821   2.385 -0.8426  0.6829 -2.8759
15564TIP3   OH268106   6.509   0.317  12.442  0.2919 -0.2292 -0.3210
15564TIP3    H168107   6.480   0.387  12.384 -1.5441 -0.5284  0.1820
15564TIP3    H268108   6.459   0.240  12.414  1.6783 -1.1766 -0.3388
15565TIP3   OH268109   0.104   2.584  13.462 -0.0924  0.1142  0.1192
15565TIP3    H168110   0.046   2.547  13.528 -2.3407  0.3090 -1.6110
15565TIP3    H268111   0.171   2.518  13.450  0.7111  0.3092  2.8997
15566TIP3   OH268112   4.197   6.325  12.706  0.4163 -0.4465 -0.6092
15566TIP3    H168113   4.120   6.287  12.749  0.3325 -0.1890 -0.5274
15566TIP3    H268114   4.231   6.388  12.770  1.4118 -1.4367 -0.1435
15567TIP3   OH268115   5.364   0.737  14.038 -0.0173 -1.3371 -0.6454
15567TIP3    H168116   5.286   0.793  14.042  0.2317 -0.9166 -1.3691
15567TIP3    H268117   5.415   0.773  13.965  1.3402 -0.9718  0.4503
15568TIP3   OH268118   4.580   4.049   2.164 -0.0123 -0.0505 -0.1364
15568TIP3    H168119   4.596   4.061   2.070 -0.0745  0.6408 -0.0644
15568TIP3    H268120   4.655   3.999   2.195 -0.6305 -1.4530 -0.7993
15569TIP3   OH268121   0.191   0.513   3.279 -0.0226 -0.0725 -0.2815
15569TIP3    H168122   0.154   0.581   3.222  0.1415  0.9051  0.7326
15569TIP3    H268123   0.285   0.529   3.276  0.1745 -1.3095 -1.3138
15570TIP3   OH268124   6.480   0.820   4.102  0.2714  0.2812 -0.1024
15570TIP3    H168125   6.427   0.750   4.139 -1.7866  0.3713 -2.6020
15570TIP3    H268126   6.569   0.788   4.106 -0.2882 -1.2425  1.3567
15571TIP3   OH268127   3.843   3.899   1.373  0.0595 -0.4441  0.8106
15571TIP3    H168128   3.843   3.806   1.350  0.0695 -0.4920  1.0078
15571TIP3    H268129   3.887   3.941   1.299 -1.2052 -0.4210  0.0506
15572TIP3   OH268130   4.203   3.196  11.545  0.3561 -0.4544 -0.2519
15572TIP3    H168131   4.297   3.177  11.538  1.0001  2.0790  0.4750
15572TIP3    H268132   4.174   3.210  11.455  0.9006 -0.2784 -0.3996
15573TIP3   OH268133   6.384   3.650  14.012  0.5474  0.0506  0.4189
15573TIP3    H168134   6.357   3.558  14.009 -1.3231  0.5802 -1.6093
15573TIP3    H268135   6.445   3.655  14.085  0.4378 -2.7280  0.7978
15574TIP3   OH268136   6.090   1.813   3.432 -0.6024 -0.8167 -0.2667
15574TIP3    H168137   6.117   1.727   3.398 -1.1330 -0.7481 -0.8669
15574TIP3    H268138   6.039   1.792   3.510  0.4966 -0.9799  0.4345
15575TIP3   OH268139   3.867   2.302  14.745 -0.2314 -0.3650  0.0701
15575TIP3    H168140   3.947   2.348  14.716 -0.9627  1.0125  0.1401
15575TIP3    H268141   3.897   2.214  14.766  1.1770 -0.0515 -0.4512
15576TIP3   OH268142   4.893   0.844   6.298 -0.0404 -0.0591 -0.2751
15576TIP3    H168143   4.940   0.895   6.364 -0.0728  0.9319 -1.0095
15576TIP3    H268144   4.806   0.832   6.335  0.3737 -0.7764  0.5056
15577TIP3   OH268145   1.741   0.441  15.593  0.0434  0.0297  0.1637
15577TIP3    H168146   1.806   0.435  15.524 -0.0186  0.8959  0.0172
15577TIP3    H268147   1.737   0.353  15.631 -0.9594 -0.8547 -1.8649
15578TIP3   OH268148   5.474   2.614   2.801  0.1794  0.3891  0.4761
15578TIP3    H168149   5.478   2.538   2.743 -0.7826 -0.1528  1.0902
15578TIP3    H268150   5.483   2.689   2.743 -0.0605 -0.1596 -0.2865
15579TIP3   OH268151   2.922   3.425   4.549  0.2961 -0.1353 -0.0290
15579TIP3    H168152   2.881   3.455   4.630 -0.4536  0.3232 -0.5649
15579TIP3    H268153   3.001   3.378   4.578  0.5215  0.7791  0.9264
15580TIP3   OH268154   3.587   2.895   4.383 -0.3915 -0.0952  0.0892
15580TIP3    H168155   3.609   2.814   4.337 -2.0132 -1.1930  1.1199
15580TIP3    H268156   3.627   2.885   4.469 -0.6287  0.1823  0.2337
15581TIP3   OH268157   2.426   6.218   2.200 -0.1577  0.0251 -0.1085
15581TIP3    H168158   2.363   6.260   2.258  0.4602  0.7532  0.0407
15581TIP3    H268159   2.399   6.126   2.199 -0.2021 -0.0075  1.3186
15582TIP3   OH268160   2.502   1.367   2.725  0.1200  0.0046 -0.1962
15582TIP3    H168161   2.476   1.411   2.644 -0.9353  0.8851  0.5890
15582TIP3    H268162   2.472   1.277   2.715  0.5451 -0.0529 -1.0230
15583TIP3   OH268163   6.339   3.373  13.281 -0.5553 -0.1724  0.1473
15583TIP3    H168164   6.364   3.295  13.331  0.9117 -0.0088 -0.2973
15583TIP3    H268165   6.313   3.339  13.196 -0.8080 -0.2488  0.2538
15584TIP3   OH268166   3.264   1.537  17.005 -0.0947 -0.2033  0.0139
15584TIP3    H168167   3.245   1.562  16.915 -0.8913  3.5951  1.0870
15584TIP3    H268168   3.192   1.478  17.029 -0.6213 -0.1663 -1.3840
15585TIP3   OH268169   4.146   6.279   3.781  0.0851 -0.0423 -0.0687
15585TIP3    H168170   4.200   6.210   3.741  1.6485  1.1913 -0.1787
15585TIP3    H268171   4.106   6.324   3.707 -1.0668 -0.8905  0.0093
15586TIP3   OH268172   0.323   0.507   1.676 -0.0138  0.3930 -0.5873
15586TIP3    H168173   0.319   0.552   1.761 -1.1976  0.7492 -0.8077
15586TIP3    H268174   0.354   0.573   1.615  0.0088  0.3860 -0.5834
15587TIP3   OH268175   2.005   6.153   3.586  0.4471  0.5425 -0.1600
15587TIP3    H168176   2.046   6.238   3.575  3.2065 -0.6673 -0.1557
15587TIP3    H268177   2.071   6.090   3.555 -1.0474 -1.6451  0.7924
15588TIP3   OH268178   6.311   4.412   2.395  0.2752  0.1990  0.2927
15588TIP3    H168179   6.298   4.332   2.344  0.1484  0.3279  0.1212
15588TIP3    H268180   6.338   4.477   2.331  2.3510 -0.1812  0.7076
15589TIP3   OH268181   3.721   0.966  13.632 -0.5925 -0.2097  0.0110
15589TIP3    H168182   3.687   1.046  13.593 -1.2145 -0.0186  0.9272
15589TIP3    H268183   3.644   0.914  13.652 -0.2077 -0.9181 -0.2821
15590TIP3   OH268184   3.969   6.060   2.403 -0.3082 -0.0160 -0.4324
15590TIP3    H168185   3.873   6.065   2.407 -0.4624 -2.1917 -0.2753
15590TIP3    H268186   3.992   5.992   2.466  1.5255  1.6442  0.7845
15591TIP3   OH268187   0.766   5.028  12.187  0.2798 -0.3096 -0.1747
15591TIP3    H168188   0.835   4.990  12.133  1.2990  0.9361  0.1804
15591TIP3    H268189   0.684   5.002  12.144  1.0305 -0.0245 -1.8700
15592TIP3   OH268190   0.013   6.419   0.733  0.0281  0.0613  0.5519
15592TIP3    H168191   0.012   6.324   0.717  3.6156  0.0540 -0.5443
15592TIP3    H268192   0.070   6.429   0.809 -1.6043  1.3169  1.6656
15593TIP3   OH268193   3.024   5.284   4.998  0.5207  0.0353  0.1782
15593TIP3    H168194   3.089   5.257   5.062  0.0735 -2.3686 -0.2868
15593TIP3    H268195   2.958   5.332   5.048  1.4859  0.4952  1.0341
15594TIP3   OH268196   3.902   3.321   0.165  0.1881 -0.0596 -0.3973
15594TIP3    H168197   3.875   3.229   0.174  1.6742 -0.7524 -2.2314
15594TIP3    H268198   3.991   3.322   0.201 -0.5997  1.2009  1.6422
15595TIP3   OH268199   0.864   1.015  13.118  0.4568 -0.0483  0.1520
15595TIP3    H168200   0.833   0.956  13.050  1.2392  0.0267 -0.2728
15595TIP3    H268201   0.959   1.003  13.120  0.3084 -1.7433  2.7965
15596TIP3   OH268202   2.667   3.626   5.640  0.4506 -0.1434  0.2994
15596TIP3    H168203   2.614   3.610   5.562  0.2122  0.4973  0.3235
15596TIP3    H268204   2.675   3.722   5.645 -1.2540 -0.0064  2.1463
15597TIP3   OH268205   3.013   0.477  14.197  0.3482  0.3038  0.2814
15597TIP3    H168206   3.022   0.560  14.244  0.9014  0.6248 -0.3825
15597TIP3    H268207   2.938   0.435  14.239 -0.6556  1.6284 -0.0988
15598TIP3   OH268208   2.737   5.567   4.866 -0.2290  0.3915  0.1490
15598TIP3    H168209   2.707   5.508   4.935 -2.1471  0.8074 -0.2717
15598TIP3    H268210   2.819   5.603   4.899  1.4599 -3.0469  0.0943
15599TIP3   OH268211   3.698   4.713   6.100  0.4931 -0.0621 -0.0614
15599TIP3    H168212   3.653   4.738   6.019 -0.3105 -0.6125  0.2019
15599TIP3    H268213   3.674   4.780   6.163  0.3758 -0.1266 -0.0364
15600TIP3   OH268214   0.649   1.922  12.336 -0.2235 -0.0695  0.1860
15600TIP3    H168215   0.574   1.880  12.296  0.7330 -1.7123  0.0414
15600TIP3    H268216   0.700   1.957  12.263 -1.1726  1.7504  0.3156
15601TIP3   OH268217   4.476   2.997   1.129  0.3565  0.2607 -0.0922
15601TIP3    H168218   4.435   2.959   1.050 -1.6840  1.5786  0.2425
15601TIP3    H268219   4.425   2.960   1.201 -0.2823  1.9514  0.3522
15602TIP3   OH268220   6.197   4.833  16.401  0.2445 -0.3520  0.0518
15602TIP3    H168221   6.276   4.870  16.362 -0.0957 -0.5003 -0.8174
15602TIP3    H268222   6.143   4.908  16.424 -0.3236 -0.2525 -1.4516
15603TIP3   OH268223   6.755   0.532  16.776  0.4475 -0.2136  0.1107
15603TIP3    H168224   6.845   0.509  16.755 -0.1326 -1.8261 -0.7620
15603TIP3    H268225   6.751   0.529  16.871  1.8030  1.9919  0.3127
15604TIP3   OH268226   1.141   3.764  12.886 -0.1830 -0.0961  0.8046
15604TIP3    H168227   1.089   3.701  12.837  1.7086 -1.9781  1.0740
15604TIP3    H268228   1.084   3.792  12.958 -1.2788 -1.0203  0.3290
15605TIP3   OH268229   3.393   0.819  16.486 -0.2364  0.1640  0.1634
15605TIP3    H168230   3.363   0.892  16.431  1.8302  0.2926 -0.8807
15605TIP3    H268231   3.432   0.862  16.563  1.3219  0.2465 -0.6251
15606TIP3   OH268232   4.075   4.889  16.042  0.5777 -0.0753  0.1875
15606TIP3    H168233   4.033   4.923  15.963 -1.2250 -1.9749  0.2378
15606TIP3    H268234   4.024   4.925  16.114 -0.6097 -1.8192  0.2757
15607TIP3   OH268235   1.277   5.207  16.697  0.2092 -0.2437  0.2092
15607TIP3    H168236   1.303   5.296  16.720  0.1252 -0.1684  0.0123
15607TIP3    H268237   1.358   5.166  16.665  0.1491 -0.0916 -0.1482
15608TIP3   OH268238   4.987   3.632   0.332  0.1650 -0.5500 -0.0324
15608TIP3    H168239   5.081   3.616   0.340  0.5163  0.2918 -1.9530
15608TIP3    H268240   4.980   3.707   0.273 -1.7155 -0.8003 -0.1894
15609TIP3   OH268241   2.674   5.310   0.133  0.5396  0.0186 -0.1244
15609TIP3    H168242   2.734   5.373   0.093 -0.0314  0.1133 -0.8683
15609TIP3    H268243   2.730   5.253   0.186  0.9956  1.4607  0.9852
15610TIP3   OH268244   5.250   1.901   6.351 -0.3278 -0.0010 -0.4086
15610TIP3    H168245   5.173   1.846   6.365 -0.0710  0.2732  2.8938
15610TIP3    H268246   5.229   1.984   6.393  1.1420  0.7033 -0.9820
15611TIP3   OH268247   1.402   2.611  15.720 -0.1445  0.1270  0.1123
15611TIP3    H168248   1.354   2.693  15.713 -1.5422 -0.6220  0.4303
15611TIP3    H268249   1.384   2.580  15.809  2.9094  0.9477  1.1257
15612TIP3   OH268250   0.844   4.463   5.071 -0.3006  0.3948 -0.5065
15612TIP3    H168251   0.831   4.553   5.041  0.2363  0.2730 -1.1101
15612TIP3    H268252   0.934   4.462   5.104 -0.3623  0.1228 -0.3459
15613TIP3   OH268253   4.938   1.796  13.526  0.1440 -0.4370  0.0151
15613TIP3    H168254   4.971   1.765  13.441 -0.6349  1.4668 -1.0476
15613TIP3    H268255   4.887   1.874  13.504 -2.0174 -1.2029  2.0068
15614TIP3   OH268256   3.296   4.745  12.426  0.0766 -0.5079 -0.3013
15614TIP3    H168257   3.255   4.686  12.362  1.6744 -1.6139 -0.3770
15614TIP3    H268258   3.378   4.701  12.449  0.9293  1.3051  0.2890
15615TIP3   OH268259   4.107   1.018  13.673  0.1311 -0.0474 -0.2146
15615TIP3    H168260   4.198   1.020  13.645 -0.0333 -1.1267 -0.8473
15615TIP3    H268261   4.109   1.053  13.762  1.0971  0.3422 -0.3768
15616TIP3   OH268262   6.394   4.610   1.717 -0.6790  1.0199 -0.0945
15616TIP3    H168263   6.487   4.600   1.738 -0.4791 -0.0677 -1.3755
15616TIP3    H268264   6.365   4.683   1.771  0.6558  0.6689  1.1646
15617TIP3   OH268265   0.409   1.906   5.084  0.1651  0.2683 -0.0733
15617TIP3    H168266   0.364   1.897   5.000  0.2741  0.9034 -0.2037
15617TIP3    H268267   0.501   1.888   5.065  0.1272  0.0066 -0.0104
15618TIP3   OH268268   3.100   2.495   1.819 -0.4340 -0.7162 -0.1671
15618TIP3    H168269   3.035   2.425   1.817 -2.6167  1.1343  0.4821
15618TIP3    H268270   3.083   2.545   1.739 -1.4611  1.0785  1.0804
15619TIP3   OH268271   1.045   1.192   2.881 -0.1616  0.0732 -0.1550
15619TIP3    H168272   0.973   1.145   2.924  0.2707  1.4376  2.2955
15619TIP3    H268273   1.011   1.281   2.869  1.0093  0.7259  0.9861
15620TIP3   OH268274   6.401   3.691   6.059  0.1987 -0.0179 -0.1437
15620TIP3    H168275   6.476   3.686   5.999 -0.3261 -1.0889 -0.7264
15620TIP3    H268276   6.391   3.602   6.093  0.2521  0.4918  1.2687
15621TIP3   OH268277   6.708   0.002  12.337 -0.4965  0.6195 -0.3118
15621TIP3    H168278   6.630   0.051  12.361 -1.4134  0.1982 -2.2483
15621TIP3    H268279   6.707  -0.075  12.395 -0.4144  1.5721  0.9978
15622TIP3   OH268280   2.662   3.365   0.296  0.2922  0.0398 -0.3696
15622TIP3    H168281   2.728   3.303   0.328  1.2528  1.3997  0.4064
15622TIP3    H268282   2.624   3.402   0.376 -1.4100 -0.6617 -0.8031
15623TIP3   OH268283   2.640   4.867  11.026  0.1688 -0.0870  0.2913
15623TIP3    H168284   2.586   4.914  11.090  2.3241  1.0002  1.4250
15623TIP3    H268285   2.643   4.924  10.950  0.5897  0.3907  0.6554
15624TIP3   OH268286   4.658   0.222   0.958  0.4257 -0.1298  0.6523
15624TIP3    H168287   4.656   0.241   1.052 -0.0439  0.7186  0.4798
15624TIP3    H268288   4.593   0.152   0.947  0.1615  0.0756  0.8951
15625TIP3   OH268289   3.905   4.721   1.707 -0.0814 -0.2149 -0.4624
15625TIP3    H168290   3.856   4.804   1.703  0.5603  0.2012  0.1740
15625TIP3    H268291   3.864   4.667   1.639 -0.5556  0.5953 -0.8483
15626TIP3   OH268292   1.535   4.644  13.120  0.1753 -0.5027 -0.0005
15626TIP3    H168293   1.495   4.569  13.164  3.1754 -2.3966 -0.2023
15626TIP3    H268294   1.583   4.690  13.188 -0.7246  0.6177 -0.0964
15627TIP3   OH268295   6.365   3.086   3.528  0.2126 -0.5475 -0.0729
15627TIP3    H168296   6.416   3.072   3.448  1.9419  2.0996  0.4366
15627TIP3    H268297   6.288   3.134   3.499  0.6923  0.1509 -0.2112
15628TIP3   OH268298   1.850   2.707  15.116 -0.9774  0.7773 -0.7804
15628TIP3    H168299   1.817   2.767  15.184  2.2209 -0.4039  2.0822
15628TIP3    H268300   1.806   2.624  15.133 -0.1750  0.4809 -0.0743
15629TIP3   OH268301   5.436   4.477   0.724 -0.1091  0.1690 -0.3126
15629TIP3    H168302   5.352   4.477   0.678 -0.1251 -0.9638 -0.3138
15629TIP3    H268303   5.502   4.475   0.654 -0.1144 -0.5082 -0.3014
15630TIP3   OH268304   0.792   2.669  13.852  0.1954  0.0626 -0.6614
15630TIP3    H168305   0.797   2.597  13.789  1.0075 -1.3163  0.9282
15630TIP3    H268306   0.736   2.636  13.922 -0.6334  1.5436 -0.5825
15631TIP3   OH268307   0.497   4.189  14.418 -0.2362  0.3218  0.1071
15631TIP3    H168308   0.426   4.135  14.385  1.1728 -1.7765  0.3184
15631TIP3    H268309   0.528   4.144  14.496 -0.6031  2.8263  1.8216
15632TIP3   OH268310   5.047   2.289   3.432  0.1528  0.2082 -0.0131
15632TIP3    H168311   5.135   2.305   3.396 -0.0281  2.1340  0.2705
15632TIP3    H268312   5.062   2.277   3.526  0.2538 -1.0108 -0.1788
15633TIP3   OH268313   5.193   2.754  16.533  0.5670 -0.2354 -0.1864
15633TIP3    H168314   5.128   2.756  16.604  0.1061 -1.0615 -0.5705
15633TIP3    H268315   5.277   2.758  16.579  0.2653  0.0838  0.3618
15634TIP3   OH268316   3.502   4.775   1.647  0.4550 -0.0027  0.5008
15634TIP3    H168317   3.452   4.694   1.639  1.1745 -0.3480 -0.7828
15634TIP3    H268318   3.541   4.788   1.561  2.0074  0.6130  1.2512
15635TIP3   OH268319   4.666   1.716   2.702  0.4406  0.0068  0.0787
15635TIP3    H168320   4.713   1.641   2.738  0.2818 -0.6003 -0.9537
15635TIP3    H268321   4.591   1.679   2.657  0.3890  0.7791 -0.5001
15636TIP3   OH268322   3.582   6.126   4.352  0.1594  1.0363 -0.5946
15636TIP3    H168323   3.615   6.073   4.424 -0.7995 -1.8440 -2.1313
15636TIP3    H268324   3.573   6.214   4.389 -0.7483 -0.3656  2.9134
15637TIP3   OH268325   1.824   1.195  16.822 -0.1401 -0.3763 -0.1411
15637TIP3    H168326   1.811   1.289  16.835  2.0425 -0.3007  2.1080
15637TIP3    H268327   1.737   1.163  16.799 -1.0667  2.0912 -0.4301
15638TIP3   OH268328   5.807   0.778  11.794  0.3574 -0.0615  0.4407
15638TIP3    H168329   5.886   0.781  11.740  1.2849  1.7040  1.7671
15638TIP3    H268330   5.738   0.749  11.734  1.8091 -0.6681 -1.0161
15639TIP3   OH268331   3.343   4.798   3.551  0.5042  0.0139 -0.3973
15639TIP3    H168332   3.404   4.775   3.481 -0.7852  0.3341 -1.6679
15639TIP3    H268333   3.329   4.716   3.599  0.0393 -0.6436 -1.6243
15640TIP3   OH268334   4.485   3.745  16.418  0.7704 -0.0814  0.2414
15640TIP3    H168335   4.543   3.687  16.468 -0.1374 -1.6008 -0.4122
15640TIP3    H268336   4.544   3.797  16.363  1.7248  0.9537  2.1332
15641TIP3   OH268337   0.713   0.543   5.095  0.0440  0.1961 -0.4251
15641TIP3    H168338   0.627   0.509   5.070  0.2644 -0.1534 -0.7360
15641TIP3    H268339   0.770   0.466   5.094  0.3280  0.3998 -0.0744
15642TIP3   OH268340   2.348   5.972  10.919  0.3929  0.1545 -0.3802
15642TIP3    H168341   2.358   6.058  10.878  1.9242  0.0225 -0.3304
15642TIP3    H268342   2.382   5.910  10.854  0.4782 -0.2974  0.0904
15643TIP3   OH268343   4.968   0.717  12.589 -0.7074  0.5388  0.3699
15643TIP3    H168344   4.906   0.743  12.521 -1.0238 -1.8672 -0.3442
15643TIP3    H268345   4.922   0.736  12.671 -1.2529  1.3316 -0.1023
15644TIP3   OH268346   1.906   4.247  15.485 -0.0494 -0.7784 -0.4667
15644TIP3    H168347   1.881   4.155  15.499  0.5447 -1.0187 -0.9254
15644TIP3    H268348   1.976   4.262  15.548  0.5307 -0.9403 -1.0683
15645TIP3   OH268349   1.247   0.369   4.033  0.2375  0.5313  0.3142
15645TIP3    H168350   1.231   0.354   3.940 -1.6510 -1.2126  0.8452
15645TIP3    H268351   1.207   0.454   4.051  1.0336  1.0997 -0.5302
15646TIP3   OH268352   0.059   4.287  10.798  0.1841  0.2773 -0.0969
15646TIP3    H168353  -0.013   4.351  10.797  1.3926  1.7148 -2.0452
15646TIP3    H268354   0.062   4.253  10.709  2.4643  0.9665 -0.3533
15647TIP3   OH268355   6.498   4.892  12.551  0.3114 -0.1655  0.3264
15647TIP3    H168356   6.489   4.979  12.589 -1.1470  0.2897 -0.9826
15647TIP3    H268357   6.418   4.846  12.578 -0.8127  0.1889 -2.1289
15648TIP3   OH268358   1.396   5.993   4.836 -0.2631  0.0374 -0.1484
15648TIP3    H168359   1.356   5.910   4.812  0.6079 -0.2228 -0.7415
15648TIP3    H268360   1.459   6.012   4.766  0.5275  0.5089  0.6573
15649TIP3   OH268361   5.244   5.612   0.927  0.2459 -0.1429 -0.3026
15649TIP3    H168362   5.339   5.607   0.935  0.4346  2.1915 -0.4061
15649TIP3    H268363   5.213   5.642   1.012 -0.0916  1.5450 -0.9620
15650TIP3   OH268364   5.377   6.217  15.041  0.6864 -0.3771  0.4055
15650TIP3    H168365   5.326   6.136  15.035 -1.9588  1.1735  0.1753
15650TIP3    H268366   5.381   6.250  14.952  1.0215  0.1545  0.6093
15651TIP3   OH268367   6.681   6.490   1.020 -0.2525 -0.0379 -0.4888
15651TIP3    H168368   6.678   6.581   1.051  0.0619 -0.4612  0.8436
15651TIP3    H268369   6.773   6.465   1.025 -0.0935  0.0174 -2.3124
15652TIP3   OH268370   1.155   1.854  14.753  0.4363 -0.3494 -0.3649
15652TIP3    H168371   1.060   1.837  14.750  0.4393 -0.2546 -1.6732
15652TIP3    H268372   1.165   1.940  14.713  0.9363  0.4290  1.3499
15653TIP3   OH268373   4.864   1.323  12.103  0.1080 -0.6842 -0.3634
15653TIP3    H168374   4.896   1.289  12.020  1.4503  0.2856 -0.2896
15653TIP3    H268375   4.892   1.415  12.103 -0.6907 -0.4169  0.7580
15654TIP3   OH268376   4.041   3.821  11.460 -0.2382  0.2150  0.0859
15654TIP3    H168377   4.017   3.874  11.536 -2.3794 -0.8008  0.1931
15654TIP3    H268378   3.993   3.739  11.472 -0.1355 -0.2134 -2.0491
15655TIP3   OH268379   0.600   4.685   1.824  0.4690 -0.4125  0.6246
15655TIP3    H168380   0.547   4.713   1.899 -0.7454  1.3527 -0.8211
15655TIP3    H268381   0.688   4.716   1.845  0.4026 -0.9478  1.8071
15656TIP3   OH268382   2.711   5.366   4.118  0.0700 -0.3108  0.3395
15656TIP3    H168383   2.803   5.344   4.103  0.6108  2.1068 -0.3310
15656TIP3    H268384   2.701   5.365   4.213  0.5558 -1.3260  0.3984
15657TIP3   OH268385   4.382   0.373  13.695  0.0203 -0.1210 -0.2781
15657TIP3    H168386   4.303   0.349  13.742  0.8530 -4.0105 -0.5305
15657TIP3    H268387   4.354   0.440  13.633 -1.9376  2.2489  2.8346
15658TIP3   OH268388   3.670   4.726   1.889 -0.0350 -0.1565 -0.0442
15658TIP3    H168389   3.717   4.751   1.809  0.9388  2.5181  1.2501
15658TIP3    H268390   3.578   4.724   1.864  0.3471 -0.7675 -1.5223
15659TIP3   OH268391   4.023   1.328   2.710  0.1195  1.3801  0.2243
15659TIP3    H168392   4.057   1.387   2.777  0.5271  0.7345  0.6079
15659TIP3    H268393   3.928   1.338   2.714  0.2025  2.3160 -0.0192
15660TIP3   OH268394   6.192   4.251  12.936 -0.5950  0.2538 -0.2354
15660TIP3    H168395   6.122   4.186  12.945 -1.3865  0.9228 -1.4250
15660TIP3    H268396   6.273   4.198  12.933 -1.2356 -0.7079 -1.4369
15661TIP3   OH268397   6.718   0.073   2.910  0.1504 -0.1705 -0.8382
15661TIP3    H168398   6.778   0.120   2.852  2.5720 -1.8730  0.0841
15661TIP3    H268399   6.759   0.078   2.996 -0.5017 -2.2015 -0.3403
15662TIP3   OH268400   1.278   3.184   5.263  0.9559  0.2766 -0.0106
15662TIP3    H168401   1.276   3.095   5.228 -2.2573  0.2383 -0.1058
15662TIP3    H268402   1.334   3.179   5.340 -0.7187 -2.4199  1.2036
15663TIP3   OH268403   4.600   2.046   4.639 -0.1325  0.1357 -0.7249
15663TIP3    H168404   4.677   2.047   4.695 -0.9553 -0.7353  0.4850
15663TIP3    H268405   4.628   2.000   4.560 -0.2755 -3.6633  1.1929
15664TIP3   OH268406   0.972   3.845  12.158 -0.4215 -0.1616  0.5031
15664TIP3    H168407   1.014   3.806  12.235 -0.4982  2.4068  1.9506
15664TIP3    H268408   1.043   3.886  12.109 -0.5250 -0.8183 -0.2225
15665TIP3   OH268409   6.458   2.522   4.186  0.3239  0.0104  0.9674
15665TIP3    H168410   6.480   2.487   4.100 -1.3190  0.4110  0.3282
15665TIP3    H268411   6.492   2.612   4.185 -2.6101  1.2542 -0.7000
15666TIP3   OH268412   4.558   4.916  16.684  0.1471 -0.1039  0.2902
15666TIP3    H168413   4.616   4.933  16.610  0.5791 -0.4050  0.5577
15666TIP3    H268414   4.569   4.992  16.741  0.0831 -0.0417  0.2217
15667TIP3   OH268415   1.700   3.704  14.218  0.2987  0.2185  0.1203
15667TIP3    H168416   1.771   3.765  14.235  0.2996 -0.3863  2.7413
15667TIP3    H268417   1.620   3.753  14.241  0.1136 -0.0821  0.1233
15668TIP3   OH268418   6.298   2.848   0.242  0.0060 -0.5062 -0.4787
15668TIP3    H168419   6.321   2.850   0.149  1.8351 -0.4759 -0.0547
15668TIP3    H268420   6.347   2.920   0.281 -0.9340 -0.3585  0.4930
15669TIP3   OH268421   6.396   6.308  14.137  0.6384  0.8023 -0.2575
15669TIP3    H168422   6.433   6.341  14.055  0.6978 -0.8657 -0.9428
15669TIP3    H268423   6.464   6.250  14.171 -0.6095 -0.9599 -0.6536
15670TIP3   OH268424   2.626   6.235   0.857 -0.4494  0.4450 -0.2577
15670TIP3    H168425   2.678   6.253   0.779 -0.3676  1.8180  0.0866
15670TIP3    H268426   2.682   6.179   0.910  1.2564  2.8054  0.6269
15671TIP3   OH268427   3.917   5.641   4.836 -0.1066 -0.1080  0.2568
15671TIP3    H168428   3.925   5.695   4.757  0.5351  0.3043  0.5950
15671TIP3    H268429   3.887   5.702   4.903 -2.2399 -0.7776 -0.0129
15672TIP3   OH268430   5.392   1.281  14.295  0.6036  0.6018 -0.7249
15672TIP3    H168431   5.415   1.374  14.287 -2.2151  1.3381 -1.3704
15672TIP3    H268432   5.302   1.276  14.265 -0.6079 -1.7340  2.6815
15673TIP3   OH268433   4.346   6.237  14.380  0.1829  0.2235 -0.1954
15673TIP3    H168434   4.262   6.242  14.426  0.7567 -0.5914  1.0047
15673TIP3    H268435   4.324   6.210  14.291 -0.9785  1.9770 -0.4877
15674TIP3   OH268436   3.039   4.169  14.926  0.2230 -0.5705 -0.0355
15674TIP3    H168437   3.105   4.106  14.955 -0.2113 -1.7629 -1.5159
15674TIP3    H268438   3.070   4.253  14.960  2.2324 -1.1656 -0.2735
15675TIP3   OH268439   4.327   4.795   4.943  0.0967  0.1280 -0.1897
15675TIP3    H168440   4.304   4.761   4.857  1.7884  2.5704 -1.7245
15675TIP3    H268441   4.242   4.813   4.985 -0.7559 -0.9493 -1.3913
15676TIP3   OH268442   1.227   6.330  16.180 -0.6891  0.5189 -0.1103
15676TIP3    H168443   1.154   6.324  16.119 -0.6831 -1.0520  0.0040
15676TIP3    H268444   1.252   6.240  16.198  1.4712  0.9939 -0.3573
15677TIP3   OH268445   4.159   0.094   4.949  0.3910  0.2230 -0.1911
15677TIP3    H168446   4.072   0.054   4.952  0.3982  0.1508 -0.7982
15677TIP3    H268447   4.177   0.120   5.040 -0.2161  0.1413 -0.0434
15678TIP3   OH268448   2.130   0.259   1.835  0.3818  0.3238 -0.1285
15678TIP3    H168449   2.148   0.265   1.929  0.1722 -0.3619 -0.0363
15678TIP3    H268450   2.130   0.165   1.817  0.3493  0.4473 -0.8044
15679TIP3   OH268451   4.773   0.322  15.434  0.3159 -0.2523  0.7732
15679TIP3    H168452   4.769   0.239  15.387 -1.0619  0.3670 -0.2804
15679TIP3    H268453   4.684   0.358  15.427  0.4233  0.4991  2.7237
15680TIP3   OH268454   2.058   0.692  15.562 -0.4339  0.2552  0.3489
15680TIP3    H168455   2.075   0.627  15.493  2.7341 -0.7477  1.8546
15680TIP3    H268456   2.018   0.642  15.632 -1.1923  0.7093  0.2492
15681TIP3   OH268457   3.436   2.149   3.117  0.4012 -0.1672  0.4311
15681TIP3    H168458   3.414   2.234   3.078  0.7199  0.1530  0.9369
15681TIP3    H268459   3.370   2.137   3.185  0.8798  0.0847  0.9404
15682TIP3   OH268460   4.534   3.175  14.925  0.2905  0.3158 -0.0883
15682TIP3    H168461   4.525   3.089  14.965  1.4615 -0.0806 -0.6546
15682TIP3    H268462   4.602   3.165  14.859  0.3549  1.6396 -0.2622
15683TIP3   OH268463   6.594   3.564   5.027 -0.3695  1.1223  0.2230
15683TIP3    H168464   6.645   3.485   5.043  1.3729  2.0036 -0.6659
15683TIP3    H268465   6.512   3.550   5.075  0.4381 -0.6201  1.1972
15684TIP3   OH268466   1.453   4.596  15.444  0.3536  0.4039  0.6787
15684TIP3    H168467   1.469   4.506  15.471  2.8875 -0.1269 -2.1276
15684TIP3    H268468   1.386   4.589  15.375  1.4260  0.4728 -0.3964
15685TIP3   OH268469   0.406   2.306  17.019 -0.2552  0.7409  0.0521
15685TIP3    H168470   0.487   2.351  16.995  0.0255  1.2153  1.7912
15685TIP3    H268471   0.338   2.372  17.003 -0.1557  0.8137 -0.0789
15686TIP3   OH268472   1.800   3.812  13.407 -0.5191 -0.0190 -0.6790
15686TIP3    H168473   1.851   3.768  13.338  1.0399 -2.4786  1.8527
15686TIP3    H268474   1.821   3.764  13.487 -0.8709  3.7170  1.9149
15687TIP3   OH268475   3.531   0.499  15.073  0.1868  0.3382 -0.1769
15687TIP3    H168476   3.446   0.488  15.117  1.6215  0.5897  2.9673
15687TIP3    H268477   3.513   0.559  15.001 -2.6514 -1.2133 -0.9485
15688TIP3   OH268478   3.228   3.132   3.843 -0.0310  0.2186  0.3557
15688TIP3    H168479   3.154   3.077   3.871  0.0554 -0.7177 -1.1821
15688TIP3    H268480   3.267   3.162   3.925  0.0006 -2.1315  1.2724
15689TIP3   OH268481   3.065   1.673   1.454  0.1897 -0.3382 -0.1750
15689TIP3    H168482   3.101   1.625   1.379  0.9888 -2.5612  1.5435
15689TIP3    H268483   2.970   1.661   1.447  0.3759 -2.3901  0.2951
15690TIP3   OH268484   6.520   0.603  17.340 -0.2114 -0.4232 -0.3084
15690TIP3    H168485   6.564   0.678  17.301  1.6304 -1.5953 -0.5888
15690TIP3    H268486   6.448   0.641  17.390  0.3044  1.4676 -0.9224
15691TIP3   OH268487   5.342   5.393   0.385 -0.5488  0.7103 -0.1503
15691TIP3    H168488   5.402   5.392   0.310  0.5468  0.7940  0.7062
15691TIP3    H268489   5.354   5.308   0.427 -0.4691  1.0091  0.4476
15692TIP3   OH268490   4.330   6.670  14.845 -0.4230 -0.3382 -0.1428
15692TIP3    H168491   4.287   6.587  14.867  1.0229 -0.7774  1.2303
15692TIP3    H268492   4.378   6.693  14.924 -0.4448  1.6167 -0.6587
15693TIP3   OH268493   0.695   4.786   4.396  0.0895 -0.5330 -0.3826
15693TIP3    H168494   0.756   4.858   4.408 -0.7874  0.6818 -2.5904
15693TIP3    H268495   0.730   4.735   4.323  0.8068 -2.5666  1.2616
15694TIP3   OH268496   2.675   0.926   1.895 -0.0240 -0.0392  0.0568
15694TIP3    H168497   2.595   0.920   1.947 -0.1998 -0.4261 -0.2552
15694TIP3    H268498   2.664   0.861   1.826 -0.9101  2.1284 -1.9902
15695TIP3   OH268499   3.228   0.118  16.499  0.2123 -0.0563 -0.2850
15695TIP3    H168500   3.316   0.100  16.533  0.8314  2.3223 -0.4393
15695TIP3    H268501   3.208   0.206  16.532 -1.0015  0.5209 -2.4230
15696TIP3   OH268502   2.460   6.405  11.220  0.2035 -0.4182 -0.2326
15696TIP3    H168503   2.372   6.374  11.201  1.2585 -2.4149 -2.3705
15696TIP3    H268504   2.458   6.499  11.201 -1.3245 -0.5376 -0.7348
15697TIP3   OH268505   3.241   0.923  15.309 -0.4458  1.2264  0.8042
15697TIP3    H168506   3.265   0.990  15.244 -1.0127  1.6939  1.0635
15697TIP3    H268507   3.204   0.973  15.382 -2.1882  0.5640  0.4268
15698TIP3   OH268508   6.527   1.909   2.737 -0.3790 -0.2731 -0.8380
15698TIP3    H168509   6.456   1.877   2.682 -1.3237 -1.6866  1.0777
15698TIP3    H268510   6.488   1.921   2.823  1.5136 -0.3001  0.0870
15699TIP3   OH268511   3.586   2.860  11.092 -0.4979 -0.4459  0.0399
15699TIP3    H168512   3.544   2.777  11.118 -2.0071  0.0748 -0.6197
15699TIP3    H268513   3.619   2.843  11.004  1.1515 -0.9916  0.7196
15700TIP3   OH268514   2.161   1.061  11.817  0.7453 -0.6990  0.1514
15700TIP3    H168515   2.221   1.010  11.872 -1.2783 -0.6349  2.6302
15700TIP3    H268516   2.176   1.152  11.842  2.0800 -0.2946 -1.9009
15701TIP3   OH268517   2.694   4.087   0.888 -0.7008 -0.2023  0.4216
15701TIP3    H168518   2.716   4.179   0.898 -0.0978 -0.2712 -0.1949
15701TIP3    H268519   2.701   4.051   0.976  1.5908 -0.1925  0.3083
15702TIP3   OH268520   4.014   1.080   6.439 -0.9023 -0.0751 -0.0936
15702TIP3    H168521   3.933   1.035   6.464 -0.0612 -2.4398 -1.2498
15702TIP3    H268522   4.080   1.045   6.498 -0.7286  2.2515  1.2129
15703TIP3   OH268523   2.877   6.271  14.825  0.4103  0.5351 -0.0542
15703TIP3    H168524   2.792   6.228  14.833  0.5056  0.2813 -0.3568
15703TIP3    H268525   2.933   6.225  14.888  1.4516 -2.1909 -2.6828
15704TIP3   OH268526   4.827   2.592   5.412 -0.4467  0.7073  0.3405
15704TIP3    H168527   4.847   2.595   5.506  1.4166 -2.5921  0.1905
15704TIP3    H268528   4.894   2.646   5.371  0.7130 -0.3353  0.7731
15705TIP3   OH268529   6.438   1.278   6.053  0.4355 -0.5090  0.3047
15705TIP3    H168530   6.412   1.250   5.965  0.2278 -1.5187  0.6643
15705TIP3    H268531   6.403   1.366   6.062 -1.9899 -1.3985  0.3612
15706TIP3   OH268532   3.888   0.895   0.374  0.5156  0.6864 -0.0896
15706TIP3    H168533   3.863   0.977   0.331 -3.4540 -0.8100 -0.9937
15706TIP3    H268534   3.834   0.891   0.453  2.4164 -0.0528  1.2735
15707TIP3   OH268535   0.100   2.913  10.863  0.5161 -0.0981 -0.1070
15707TIP3    H168536   0.126   3.005  10.863  0.0688  0.0768  1.8910
15707TIP3    H268537   0.179   2.866  10.835  0.6843  0.8850 -1.3558
15708TIP3   OH268538   2.312   6.738   5.449 -0.6841  0.8195 -0.0082
15708TIP3    H168539   2.350   6.823   5.471 -0.7000  0.9460 -0.4539
15708TIP3    H268540   2.368   6.674   5.494 -0.9262  1.0801  0.6798
15709TIP3   OH268541   3.545   0.215   3.195  0.1345  0.6529 -0.0355
15709TIP3    H168542   3.640   0.206   3.204  0.0249  0.6245  1.2074
15709TIP3    H268543   3.525   0.172   3.112  1.0060 -0.8587  0.4965
15710TIP3   OH268544   4.915   6.410   6.610  0.5059 -0.1617  0.1553
15710TIP3    H168545   4.901   6.384   6.701  0.0552  0.2557  0.2113
15710TIP3    H268546   4.967   6.340   6.573 -0.1768 -0.8466  0.4620
15711TIP3   OH268547   3.091   5.579   7.010  0.3431 -0.3292  0.0921
15711TIP3    H168548   3.026   5.509   7.013 -1.1968  1.0737  1.4154
15711TIP3    H268549   3.161   5.544   6.955 -1.2608 -2.1289 -0.9426
15712TIP3   OH268550   2.412   2.216   4.507  0.3899  0.5921  0.1994
15712TIP3    H168551   2.414   2.286   4.441 -1.8111 -0.1970 -0.7935
15712TIP3    H268552   2.431   2.136   4.457  1.1847  0.2536  1.0175
15713TIP3   OH268553   5.484   3.583   1.216  0.7284  0.4422  0.0842
15713TIP3    H168554   5.563   3.531   1.232  0.7134  0.5836  0.6619
15713TIP3    H268555   5.516   3.673   1.209  0.5140  0.6458  1.4412
15714TIP3   OH268556   2.659   2.746  11.815  0.1199  0.2512  0.2596
15714TIP3    H168557   2.580   2.746  11.760  0.1924  1.7117  0.1045
15714TIP3    H268558   2.714   2.677  11.778 -1.3973 -1.3389  0.8642
15715TIP3   OH268559   6.694   4.240   4.182 -0.4501 -0.3621 -0.1667
15715TIP3    H168560   6.609   4.211   4.214  0.4412 -0.7836  1.9811
15715TIP3    H268561   6.752   4.235   4.258  0.9658  2.2411 -0.9329
15716TIP3   OH268562   0.566   1.691  13.819  0.5126 -0.5384 -0.6919
15716TIP3    H168563   0.529   1.703  13.907 -1.0533  1.1819 -1.5187
15716TIP3    H268564   0.634   1.625  13.831 -1.2630 -2.1459  1.3773
15717TIP3   OH268565   5.230   0.623   4.107  0.0126 -0.5664 -0.0709
15717TIP3    H168566   5.176   0.611   4.185  0.7218 -0.5140  0.4349
15717TIP3    H268567   5.245   0.534   4.074 -1.2168 -0.5247 -0.8067
15718TIP3   OH268568   0.228   5.650  17.347  0.2616 -0.2343 -0.1948
15718TIP3    H168569   0.183   5.609  17.273 -0.3421  0.3471 -0.1628
15718TIP3    H268570   0.321   5.646  17.324  0.1969 -1.3521 -0.3140
15719TIP3   OH268571   2.287   6.660   3.710 -0.0750  0.4893  0.1432
15719TIP3    H168572   2.254   6.661   3.800  0.7876 -0.4384  0.4778
15719TIP3    H268573   2.212   6.688   3.657 -0.2128  2.4394  1.2443
15720TIP3   OH268574   3.108   2.978   5.624  0.0905  0.4644  0.4234
15720TIP3    H168575   3.022   2.993   5.664 -0.2635  0.7027 -0.3980
15720TIP3    H268576   3.110   3.038   5.549 -0.4901 -1.9838 -1.7071
15721TIP3   OH268577   2.575   5.204   1.651 -0.4192  0.0876  0.3498
15721TIP3    H168578   2.553   5.160   1.733 -1.7805 -1.1526 -0.6214
15721TIP3    H268579   2.532   5.290   1.658 -1.0143 -0.2297  0.7239
15722TIP3   OH268580   0.058   4.760   0.389 -0.3970 -0.2664 -0.5893
15722TIP3    H168581   0.049   4.849   0.425 -0.3611 -0.5995  0.2705
15722TIP3    H268582   0.145   4.732   0.417  0.3135  0.0625 -2.3343
15723TIP3   OH268583   4.203   2.650   1.072  0.0076 -0.1731  0.5314
15723TIP3    H168584   4.137   2.700   1.119  0.8885  1.1514  0.4092
15723TIP3    H268585   4.265   2.716   1.039 -0.0327 -1.1147 -1.6288
15724TIP3   OH268586   6.322   4.055   0.537 -0.0963  0.3275 -0.7903
15724TIP3    H168587   6.412   4.027   0.522 -0.2945  0.2919 -1.9658
15724TIP3    H268588   6.291   4.085   0.452 -0.8068  1.5010 -0.1501
15725TIP3   OH268589   1.072   5.197   4.947 -0.3130  0.4671  0.1240
15725TIP3    H168590   1.063   5.134   4.875  1.5954 -0.8629  0.9723
15725TIP3    H268591   1.029   5.276   4.914 -0.4998 -0.4447 -2.0291
15726TIP3   OH268592   5.273   0.162  12.965 -0.2577 -0.0602  0.2837
15726TIP3    H168593   5.299   0.108  13.039 -0.1654  0.6385  0.7741
15726TIP3    H268594   5.191   0.124  12.934  0.4683 -1.2820 -0.2280
15727TIP3   OH268595   1.353   2.903  14.491  0.0609  0.1294 -0.1243
15727TIP3    H168596   1.418   2.972  14.501  1.4533 -1.2432  0.6688
15727TIP3    H268597   1.296   2.913  14.568  0.7705 -0.1067  0.4460
15728TIP3   OH268598   2.449   2.533   3.220 -0.0190  0.1859 -0.2081
15728TIP3    H168599   2.468   2.471   3.291 -0.0482  0.9596  0.4992
15728TIP3    H268600   2.525   2.529   3.163 -0.0691 -0.5754 -0.2305
15729TIP3   OH268601   1.074   0.902   5.799 -0.0319 -0.1649  0.4633
15729TIP3    H168602   1.148   0.915   5.739 -0.2275  1.5390  0.5419
15729TIP3    H268603   0.998   0.896   5.742 -0.3942  2.7654  0.4814
15730TIP3   OH268604   2.453   0.166   4.990 -0.2761 -0.4219 -0.2967
15730TIP3    H168605   2.482   0.228   5.057 -0.9118 -0.3760 -0.0579
15730TIP3    H268606   2.418   0.220   4.920 -0.3312 -0.4935 -0.3245
15731TIP3   OH268607   1.162   3.906   5.180 -0.2215  0.0016  0.8720
15731TIP3    H168608   1.118   3.836   5.228  1.3553 -1.0731  0.8313
15731TIP3    H268609   1.113   3.986   5.203 -1.6108 -0.9823  1.4965
15732TIP3   OH268610   4.722   1.508  16.333  0.3760 -0.0225 -0.0953
15732TIP3    H168611   4.671   1.567  16.278 -0.6644 -0.4290  0.4140
15732TIP3    H268612   4.657   1.449  16.372  1.3879 -1.6750 -0.7952
15733TIP3   OH268613   4.191   4.596  16.939  0.1577 -0.3904  0.1070
15733TIP3    H168614   4.163   4.685  16.958 -0.7948 -0.7580  0.4782
15733TIP3    H268615   4.271   4.584  16.990  1.7057  1.0550 -1.8325
15734TIP3   OH268616   1.421   4.283   3.234 -0.4851 -0.0052 -0.0635
15734TIP3    H168617   1.347   4.269   3.176  0.6545 -1.2665 -1.2728
15734TIP3    H268618   1.494   4.304   3.176  0.7681 -1.6516  0.8224
15735TIP3   OH268619   0.939   5.620  10.833 -0.6320 -0.0897 -0.2965
15735TIP3    H168620   0.865   5.650  10.781 -0.2216  0.3040 -0.6597
15735TIP3    H268621   1.003   5.691  10.828 -0.1052 -0.5499 -0.2419
15736TIP3   OH268622   5.184   4.247   5.297 -0.3909  1.0912 -0.4453
15736TIP3    H168623   5.121   4.318   5.282  0.8176  2.1504 -0.6594
15736TIP3    H268624   5.227   4.270   5.380 -0.4609  0.2389 -0.1616
15737TIP3   OH268625   6.101   2.693   0.863  0.0236 -0.0717 -0.8159
15737TIP3    H168626   6.160   2.620   0.883 -1.0187 -0.8554 -0.4681
15737TIP3    H268627   6.075   2.679   0.772 -1.3451 -1.0389 -0.3162
15738TIP3   OH268628   2.670   0.456  12.034 -0.4750  0.0679  0.2609
15738TIP3    H168629   2.587   0.485  12.072 -1.1122  0.3707 -1.2989
15738TIP3    H268630   2.718   0.537  12.017 -0.6154 -0.0003 -0.4829
15739TIP3   OH268631   3.896   0.075   1.781 -0.0843 -0.3075  0.1196
15739TIP3    H168632   3.855   0.132   1.716 -0.7663 -0.2557  0.5849
15739TIP3    H268633   3.878   0.118   1.865 -0.8837 -1.3537  0.5088
15740TIP3   OH268634   0.790   1.597   3.586  0.3871  1.0260 -0.0468
15740TIP3    H168635   0.695   1.589   3.576  0.5111 -0.6970 -0.1099
15740TIP3    H268636   0.808   1.553   3.669  1.3283 -0.4559 -0.9916
15741TIP3   OH268637   3.549   5.411  13.369  0.1751 -0.1724 -0.3826
15741TIP3    H168638   3.619   5.435  13.309  0.8929 -1.2071  0.0320
15741TIP3    H268639   3.537   5.317  13.356 -0.3423 -0.2157  0.3840
15742TIP3   OH268640   6.028   6.305  11.562  0.5251 -0.3672 -0.2546
15742TIP3    H168641   6.028   6.292  11.467  1.4052 -1.2415 -0.1560
15742TIP3    H268642   5.949   6.261  11.593  0.7271 -0.8946 -0.4866
15743TIP3   OH268643   5.094   5.282  15.882 -0.1302 -0.8529  0.3222
15743TIP3    H168644   5.045   5.281  15.964  0.6165 -1.8202  0.7701
15743TIP3    H268645   5.054   5.353  15.831  1.1108  1.5535  2.5239
15744TIP3   OH268646   6.422   1.920   6.657 -0.2141  0.0771 -0.2370
15744TIP3    H168647   6.375   1.868   6.723 -2.4817 -0.2027 -1.9632
15744TIP3    H268648   6.502   1.870   6.641 -0.1976 -0.4893  1.3904
15745TIP3   OH268649   2.504   0.335   5.450  0.0515  0.4926 -0.2399
15745TIP3    H168650   2.493   0.347   5.544 -1.3470  0.3677 -0.3532
15745TIP3    H268651   2.446   0.401   5.411  0.8844  0.7797 -1.0249
15746TIP3   OH268652   2.336   2.760  12.104 -0.7461  0.1142  0.4506
15746TIP3    H168653   2.420   2.803  12.088 -1.2310  1.0590  0.3637
15746TIP3    H268654   2.339   2.735  12.197 -0.8317  1.2236  0.7680
15747TIP3   OH268655   0.835   4.352   0.793  0.0992  0.0230 -0.1305
15747TIP3    H168656   0.931   4.347   0.797  0.0960 -0.4189 -0.5167
15747TIP3    H268657   0.818   4.432   0.743  0.2815 -0.3609 -0.8146
15748TIP3   OH268658   2.170   6.439  16.587 -0.1797 -0.2378  0.1198
15748TIP3    H168659   2.218   6.496  16.527 -0.3742 -0.9477 -0.7173
15748TIP3    H268660   2.234   6.374  16.614  0.4007  1.0400  2.0498
15749TIP3   OH268661   3.981   0.452   6.609 -0.2777  0.2113 -0.7953
15749TIP3    H168662   4.006   0.525   6.666  0.1526 -1.0015  0.6541
15749TIP3    H268663   3.890   0.469   6.585 -0.8956  0.1370  1.3318
15750TIP3   OH268664   4.636   2.696  12.547 -0.2665 -0.0877 -0.6689
15750TIP3    H168665   4.550   2.667  12.517 -1.2673 -0.0618  1.9044
15750TIP3    H268666   4.649   2.782  12.506 -1.1801 -0.3630 -1.5499
15751TIP3   OH268667   5.164   0.491  11.336  0.4424  0.5617 -0.3600
15751TIP3    H168668   5.154   0.400  11.309  1.7062  0.7731 -1.6865
15751TIP3    H268669   5.111   0.541  11.274  1.0109  0.8287 -0.6465
15752TIP3   OH268670   6.295   1.302  14.403 -0.0249  0.0428 -0.9330
15752TIP3    H168671   6.278   1.395  14.422  0.9264  0.7989 -3.3101
15752TIP3    H268672   6.208   1.262  14.402 -0.4871  0.9720 -0.1827
15753TIP3   OH268673   5.426   1.043  15.850 -0.1628 -0.6813 -0.2347
15753TIP3    H168674   5.424   1.120  15.906  0.0708 -0.3723 -0.6508
15753TIP3    H268675   5.383   0.975  15.903 -3.0611  0.4446 -0.9292
15754TIP3   OH268676   1.884   3.547  15.535 -0.2285  0.0059 -0.3306
15754TIP3    H168677   1.954   3.541  15.601 -0.6188 -0.9221  0.0160
15754TIP3    H268678   1.809   3.582  15.582 -0.5082 -0.6564 -0.2756
15755TIP3   OH268679   1.662   4.861   5.292 -0.4504 -0.5649  0.0599
15755TIP3    H168680   1.650   4.924   5.363  1.6250  2.4908 -2.0834
15755TIP3    H268681   1.751   4.828   5.304 -1.1752 -2.4356  0.5775
15756TIP3   OH268682   5.906   6.192   4.532 -0.4880 -0.1176  0.2944
15756TIP3    H168683   5.998   6.174   4.512 -0.3819  1.3844 -0.7192
15756TIP3    H268684   5.860   6.112   4.508  0.5035 -0.7856  0.5384
15757TIP3   OH268685   1.631   1.083  11.101 -0.4436  0.5815  0.2123
15757TIP3    H168686   1.631   1.041  11.014 -0.2670  0.0811  0.4475
15757TIP3    H268687   1.719   1.120  11.109 -1.0320  2.2489 -0.5712
15758TIP3   OH268688   5.824   3.846  13.407  0.2359 -0.0635 -0.1299
15758TIP3    H168689   5.766   3.772  13.392  1.2389 -1.0832  0.8215
15758TIP3    H268690   5.812   3.868  13.500 -0.7348  1.6051 -0.6027
15759TIP3   OH268691   4.578   3.325   2.642  0.1798  0.0940  0.0690
15759TIP3    H168692   4.503   3.338   2.584 -0.1489 -0.4751  0.3671
15759TIP3    H268693   4.643   3.280   2.588 -0.0192 -0.1848  0.0640
15760TIP3   OH268694   2.345   6.572  16.415  0.4987 -0.0682 -0.1122
15760TIP3    H168695   2.351   6.489  16.368  0.9147 -0.0924 -0.0280
15760TIP3    H268696   2.412   6.627  16.374 -1.1272  0.9337 -1.5365
15761TIP3   OH268697   4.552   1.187   2.336  0.9389  0.1130  0.0810
15761TIP3    H168698   4.473   1.171   2.285  1.3287 -1.2571 -0.1365
15761TIP3    H268699   4.520   1.200   2.426  0.3150  1.7558 -0.3528
15762TIP3   OH268700   1.657   0.897  15.473 -0.7520 -0.2959 -0.3951
15762TIP3    H168701   1.721   0.860  15.412  1.9852  1.9143  0.9233
15762TIP3    H268702   1.625   0.821  15.523 -0.2161 -1.6214 -1.9572
15763TIP3   OH268703   2.165   5.776  13.053 -0.1980  0.5023  0.8781
15763TIP3    H168704   2.195   5.731  13.132  1.6859  0.1127 -0.0023
15763TIP3    H268705   2.222   5.744  12.983 -1.2878  1.4316 -0.5152
15764TIP3   OH268706   4.880   0.071   1.044 -0.1467  0.0586  0.7145
15764TIP3    H168707   4.948   0.136   1.060 -0.7901  0.1541  3.7258
15764TIP3    H268708   4.807   0.122   1.007 -0.2163  0.9059  1.9292
15765TIP3   OH268709   1.937   5.426   4.797  0.0747  0.2495  0.0283
15765TIP3    H168710   1.956   5.518   4.816 -0.9856  0.6142 -0.6098
15765TIP3    H268711   1.886   5.397   4.872  1.7065 -0.2988  0.9965
15766TIP3   OH268712   1.488   4.114   5.920  0.2729  0.6138 -0.2858
15766TIP3    H168713   1.469   4.201   5.956 -2.4906 -0.0950  0.1758
15766TIP3    H268714   1.412   4.094   5.866 -0.7327 -2.7677  2.0838
15767TIP3   OH268715   0.631   2.682   2.538 -0.6306 -0.2782 -0.0335
15767TIP3    H168716   0.674   2.760   2.501  0.4901 -0.9016 -0.0791
15767TIP3    H268717   0.600   2.712   2.624  0.5651 -0.0008  0.3247
15768TIP3   OH268718   5.546   0.048   1.583 -0.0238  0.1238 -0.8670
15768TIP3    H168719   5.514   0.073   1.496 -1.6870  1.1455 -0.0225
15768TIP3    H268720   5.605   0.119   1.608 -1.6848  1.2923 -0.0857
15769TIP3   OH268721   1.121   2.363  14.855 -0.9898  0.0189  0.4643
15769TIP3    H168722   1.167   2.348  14.937 -1.7917  0.4105  0.9998
15769TIP3    H268723   1.134   2.283  14.805 -1.2688 -0.5977  1.3577
15770TIP3   OH268724   5.929   0.180   6.543 -0.3151  0.1605 -0.4440
15770TIP3    H168725   5.868   0.135   6.601  0.1889 -0.1685 -0.1598
15770TIP3    H268726   5.906   0.273   6.550  0.2047  0.2138  0.8670
15771TIP3   OH268727   5.796   5.700  16.205  0.1396  0.1467 -0.0329
15771TIP3    H168728   5.726   5.711  16.270 -0.1339  3.1755 -0.6779
15771TIP3    H268729   5.757   5.731  16.123  2.0264  1.3679 -0.5312
15772TIP3   OH268730   3.126   1.062   4.892  0.3434 -0.1172 -0.3034
15772TIP3    H168731   3.126   1.036   4.800  2.5473  1.1692 -0.7363
15772TIP3    H268732   3.071   0.997   4.935 -1.5780 -0.1843 -2.6539
15773TIP3   OH268733   5.122   0.145   6.613 -0.0885  0.8457  0.1380
15773TIP3    H168734   5.208   0.105   6.610  0.2561  1.5942 -0.3157
15773TIP3    H268735   5.061   0.073   6.600  0.5244  0.5169 -1.0765
15774TIP3   OH268736   1.381   1.311  14.539  0.3498 -0.5386 -0.5171
15774TIP3    H168737   1.397   1.385  14.481 -0.6623 -0.5698 -0.8532
15774TIP3    H268738   1.353   1.350  14.622  1.1265 -0.5190 -0.2482
15775TIP3   OH268739   4.426   3.193   0.129  0.1792  0.3991 -0.4449
15775TIP3    H168740   4.477   3.172   0.208  1.1924 -1.2051 -1.4780
15775TIP3    H268741   4.346   3.141   0.139  0.3248  0.1642 -0.4912
15776TIP3   OH268742   3.575   3.755   3.570 -0.4852  0.4329 -0.0105
15776TIP3    H168743   3.480   3.746   3.579 -0.3932  0.2426  0.9262
15776TIP3    H268744   3.588   3.846   3.544 -0.8396  1.1003  1.9349
15777TIP3   OH268745   1.915   4.967   2.006 -0.4001 -0.4752 -0.4946
15777TIP3    H168746   1.912   5.043   2.065 -2.4095 -0.4970 -0.5197
15777TIP3    H268747   2.009   4.948   1.998  0.0339  0.6382  1.2525
15778TIP3   OH268748   0.384   3.806   4.371  0.3521  0.0795  0.6373
15778TIP3    H168749   0.362   3.761   4.453 -0.5783 -0.4000  0.1381
15778TIP3    H268750   0.374   3.899   4.392 -1.3621 -0.0812  0.6871
15779TIP3   OH268751   6.501   4.137   6.101 -0.2745  0.1510 -0.3539
15779TIP3    H168752   6.437   4.116   6.169 -2.1552  0.6745 -1.8601
15779TIP3    H268753   6.449   4.144   6.020  1.9110 -0.9687 -1.9751
15780TIP3   OH268754   5.786   4.973  14.220 -0.3198 -0.0299  0.4286
15780TIP3    H168755   5.713   4.913  14.241 -1.3904  0.2364 -2.1989
15780TIP3    H268756   5.773   4.995  14.128  0.9372  3.0729  0.8998
15781TIP3   OH268757   6.153   3.377  16.768  0.1549 -0.5218 -0.0747
15781TIP3    H168758   6.110   3.293  16.787 -0.9318 -0.7118 -2.8246
15781TIP3    H268759   6.128   3.396  16.677  2.5549  1.4816 -0.4209
15782TIP3   OH268760   2.681   4.554  10.932 -0.5926 -0.6465 -0.5394
15782TIP3    H168761   2.641   4.629  10.887  0.2019 -0.4070 -0.8727
15782TIP3    H268762   2.760   4.590  10.973 -0.6427 -1.1304  0.0002
15783TIP3   OH268763   6.231   3.030  16.646 -0.2473  0.6289  0.4137
15783TIP3    H168764   6.256   3.088  16.575 -0.3569  2.4312  1.7567
15783TIP3    H268765   6.298   3.043  16.713 -0.8176 -0.0559  1.1457
15784TIP3   OH268766   4.144   2.009   4.942  0.2030  0.1717 -0.2953
15784TIP3    H168767   4.118   1.923   4.910  0.9907  0.2768 -1.2444
15784TIP3    H268768   4.079   2.030   5.010  0.3398 -1.4118  0.3676
15785TIP3   OH268769   2.987   6.270  17.069 -0.3260  0.6744  0.6360
15785TIP3    H168770   2.937   6.198  17.031  1.2838  0.7396 -1.9026
15785TIP3    H268771   3.006   6.327  16.995  0.7445  2.3047  2.0934
15786TIP3   OH268772   4.054   2.905   4.992  0.1547 -0.2685 -0.2776
15786TIP3    H168773   4.130   2.861   4.953 -0.3808 -0.3351 -1.2733
15786TIP3    H268774   4.057   2.880   5.084 -0.9526 -3.6637 -1.0196
15787TIP3   OH268775   6.256   6.011  16.422  0.1274 -0.4090  0.2480
15787TIP3    H168776   6.215   6.060  16.350 -0.9104  1.7083  2.1490
15787TIP3    H268777   6.349   6.034  16.417  0.0301 -0.0967 -0.2645
15788TIP3   OH268778   1.711   6.586   1.732 -0.2363 -0.5334 -0.4739
15788TIP3    H168779   1.729   6.493   1.716 -1.0204 -0.3531 -2.7525
15788TIP3    H268780   1.616   6.590   1.748 -0.4602 -0.0075 -1.7891
15789TIP3   OH268781   2.931   4.535   1.269 -0.0388  0.5621 -0.0380
15789TIP3    H168782   2.949   4.623   1.303  1.0414  0.6276 -0.7346
15789TIP3    H268783   2.840   4.518   1.294 -0.0110  1.5469  0.8117
15790TIP3   OH268784   3.139   3.790  11.892 -0.1260 -0.8531  0.2130
15790TIP3    H168785   3.191   3.711  11.903 -0.0913 -0.9242 -0.4599
15790TIP3    H268786   3.051   3.759  11.874  0.3121 -0.8198 -2.4474
15791TIP3   OH268787   5.614   3.963   4.064  1.0582  0.0360  0.0051
15791TIP3    H168788   5.589   3.887   4.011 -2.8178  0.3082  1.1170
15791TIP3    H268789   5.657   3.926   4.141 -2.2945 -1.4233  1.3875
15792TIP3   OH268790   1.763   1.546   3.785  0.6770  0.1070  0.5115
15792TIP3    H168791   1.787   1.456   3.806 -1.3388 -0.5137  0.3618
15792TIP3    H268792   1.786   1.555   3.692  0.7015 -0.3156  0.4727
15793TIP3   OH268793   5.579   5.196  13.596 -0.2224  0.1908 -0.4495
15793TIP3    H168794   5.552   5.233  13.680 -1.0971 -0.7077 -0.3115
15793TIP3    H268795   5.671   5.176  13.607 -0.0425  1.1583 -0.1117
15794TIP3   OH268796   5.652   2.882   2.875  0.0854 -0.1465  0.1934
15794TIP3    H168797   5.617   2.902   2.961  0.0511 -2.1780  0.6948
15794TIP3    H268798   5.674   2.789   2.878  0.5938 -0.1535 -1.8168
15795TIP3   OH268799   2.025   2.374  16.855 -0.2968  0.4551 -0.3118
15795TIP3    H168800   2.116   2.355  16.878  0.0587  0.8235 -1.3696
15795TIP3    H268801   1.977   2.362  16.937  0.3664 -1.8736 -0.1910
15796TIP3   OH268802   0.022   0.654   3.120  0.2551 -0.1625 -0.1992
15796TIP3    H168803  -0.044   0.605   3.071  0.5850 -1.3364  0.4884
15796TIP3    H268804  -0.014   0.742   3.128 -0.9731 -0.6364 -0.3358
15797TIP3   OH268805   2.859   6.172   2.310  0.2549 -0.6225  0.7298
15797TIP3    H168806   2.806   6.115   2.253  0.5828 -0.4407  0.2382
15797TIP3    H268807   2.810   6.254   2.313 -0.6038 -1.1618  2.0456
15798TIP3   OH268808   4.328   3.399   0.996  0.5529 -0.6291 -0.0641
15798TIP3    H168809   4.409   3.350   1.009  0.3020 -1.2585 -0.8027
15798TIP3    H268810   4.259   3.337   1.019  0.2653 -0.2459  0.1073
15799TIP3   OH268811   5.072   1.747  13.752 -0.2400 -0.0646  0.3732
15799TIP3    H168812   5.023   1.818  13.792 -0.6550  1.1173 -2.0379
15799TIP3    H268813   5.021   1.723  13.675  1.5802 -0.6503 -0.7184
15800TIP3   OH268814   3.774   4.207   0.075 -0.4005 -0.2601 -0.8408
15800TIP3    H168815   3.814   4.145   0.136 -0.6457 -1.0535 -1.4694
15800TIP3    H268816   3.848   4.255   0.038 -0.1630 -0.5095 -0.6986
15801TIP3   OH268817   0.709   5.467  11.981  0.0728 -0.2243 -0.1380
15801TIP3    H168818   0.739   5.377  11.967 -0.8912 -0.1122 -3.9765
15801TIP3    H268819   0.642   5.481  11.914 -2.3910  2.3052  2.5374
15802TIP3   OH268820   0.524   3.162   0.628 -0.3651 -0.5810  0.3476
15802TIP3    H168821   0.482   3.221   0.690 -0.9213 -0.8462  0.2264
15802TIP3    H268822   0.588   3.217   0.583 -1.5021  0.1751 -0.4017
15803TIP3   OH268823   4.845   3.383  11.970 -0.2714 -0.2111  0.3827
15803TIP3    H168824   4.866   3.304  12.021 -0.2532  0.5788  1.6391
15803TIP3    H268825   4.878   3.455  12.023 -0.6839  0.6800 -0.5425
15804TIP3   OH268826   6.193   3.814  14.108 -0.3349 -0.1871 -0.0095
15804TIP3    H168827   6.234   3.887  14.154 -0.6370  0.2819 -0.4725
15804TIP3    H268828   6.266   3.759  14.081 -0.1436 -0.3587  0.8447
15805TIP3   OH268829   4.538   4.548   1.540  0.3274 -0.0897 -0.5002
15805TIP3    H168830   4.546   4.498   1.459  0.0744  0.0551 -0.6162
15805TIP3    H268831   4.455   4.519   1.578  0.2859  0.0783 -0.4596
15806TIP3   OH268832   3.815   1.697   4.167 -0.5572 -0.2733  0.0306
15806TIP3    H168833   3.869   1.767   4.131  0.4673 -1.2125 -0.2987
15806TIP3    H268834   3.797   1.639   4.093 -1.2146 -0.4848  0.3451
15807TIP3   OH268835   6.612   4.036  13.587 -0.0878 -1.0309 -0.1091
15807TIP3    H168836   6.610   3.991  13.502  2.1329 -2.9306  0.7418
15807TIP3    H268837   6.679   4.103  13.576  1.0861 -2.0674  0.4267
15808TIP3   OH268838   3.367   6.499  13.778 -0.0151  0.1037 -0.0180
15808TIP3    H168839   3.331   6.586  13.794 -1.0354  0.2256 -2.4989
15808TIP3    H268840   3.425   6.511  13.703  1.5204 -0.9884  0.9602
15809TIP3   OH268841   3.156   1.052   1.417  0.5078 -0.3160  0.5370
15809TIP3    H168842   3.181   1.020   1.504 -0.3617 -0.8061  0.6197
15809TIP3    H268843   3.160   0.974   1.361  1.2017  0.0251  0.0930
15810TIP3   OH268844   3.299   3.026   4.395  0.2931 -0.1253  0.4505
15810TIP3    H168845   3.261   2.959   4.339 -0.2562  0.7826 -0.2919
15810TIP3    H268846   3.393   3.014   4.388  0.1987 -0.6997  0.1863
15811TIP3   OH268847   6.759   4.587   2.606 -0.0312 -0.0567 -0.0091
15811TIP3    H168848   6.724   4.559   2.521 -0.5959  1.0649 -0.1688
15811TIP3    H268849   6.682   4.621   2.653  0.4378  0.1930  0.5886
15812TIP3   OH268850   4.624   2.154   0.457  0.6020  0.5124 -0.0578
15812TIP3    H168851   4.657   2.076   0.500  0.1599  0.1961 -0.2807
15812TIP3    H268852   4.655   2.227   0.511 -1.7308  0.0580  2.0574
15813TIP3   OH268853   6.648   0.153  15.204 -0.5073  0.6965  0.1825
15813TIP3    H168854   6.573   0.106  15.168 -1.2098  2.6914 -1.0955
15813TIP3    H268855   6.724   0.115  15.159 -0.9776  0.3112 -0.2932
15814TIP3   OH268856   6.028   2.972  11.337 -0.1641 -0.2453 -0.1352
15814TIP3    H168857   5.957   2.968  11.401 -0.6032  1.1966 -0.4983
15814TIP3    H268858   6.032   2.884  11.300 -1.3329 -0.5283  0.3660
15815TIP3   OH268859   4.040   3.557   3.010  0.4767 -0.2260 -0.2493
15815TIP3    H168860   4.003   3.563   3.098 -0.4494 -1.5523 -0.5047
15815TIP3    H268861   4.116   3.499   3.020  2.3845  2.1930  0.2054
15816TIP3   OH268862   6.325   1.983  14.128 -0.4996  0.0887  0.0382
15816TIP3    H168863   6.242   1.935  14.134 -1.2232  1.3395  0.4408
15816TIP3    H268864   6.314   2.040  14.052 -0.6840  1.4556  1.0457
15817TIP3   OH268865   4.827   1.444   3.728  0.2915  0.0202 -0.1270
15817TIP3    H168866   4.838   1.443   3.633  1.5976  0.7497 -0.0083
15817TIP3    H268867   4.733   1.430   3.741 -0.1840  1.5354 -1.5852
15818TIP3   OH268868   0.543   0.265   0.451 -0.2948  0.6707  0.2440
15818TIP3    H168869   0.508   0.321   0.382  1.1738  2.5978  0.9810
15818TIP3    H268870   0.477   0.269   0.520 -1.3653 -0.5816 -0.6424
15819TIP3   OH268871   0.311   1.220   5.390  0.0582 -0.6591  0.3681
15819TIP3    H168872   0.367   1.277   5.442  0.8183  1.4080 -2.4639
15819TIP3    H268873   0.363   1.141   5.375  2.1542  0.9476 -1.6555
15820TIP3   OH268874   4.708   4.871   5.498 -0.9840 -0.3564  0.2779
15820TIP3    H168875   4.769   4.847   5.568  0.5341  1.6068 -0.2903
15820TIP3    H268876   4.621   4.851   5.534 -0.3611  1.5137  3.1724
15821TIP3   OH268877   4.326   5.330  14.088  0.1602 -0.3045 -0.1311
15821TIP3    H168878   4.406   5.338  14.139  0.8577  0.4043 -1.2959
15821TIP3    H268879   4.338   5.389  14.014 -1.8864  0.6176  0.2065
15822TIP3   OH268880   4.952   1.223   0.837  0.4908 -0.4574  0.5519
15822TIP3    H168881   4.998   1.258   0.914 -0.0149  1.8863 -0.1354
15822TIP3    H268882   4.907   1.299   0.800 -1.3704 -2.0463 -0.6105
15823TIP3   OH268883   1.085   2.727   3.270 -1.1827  0.1195 -0.0091
15823TIP3    H168884   1.134   2.650   3.297 -0.4689  0.3398 -0.6541
15823TIP3    H268885   1.007   2.692   3.227 -0.9523 -0.2416 -0.1332
15824TIP3   OH268886   6.290   0.975  11.219 -0.4029  0.4393  0.5917
15824TIP3    H168887   6.260   1.066  11.216 -1.6572  0.1606  2.5587
15824TIP3    H268888   6.212   0.923  11.198  0.5475 -0.2216 -1.5958
15825TIP3   OH268889   1.926   4.324   2.484  0.2867  0.6215 -0.1582
15825TIP3    H168890   1.972   4.304   2.565 -0.2369 -0.5197 -0.1204
15825TIP3    H268891   1.836   4.342   2.511  0.2223  0.7465 -0.4462
15826TIP3   OH268892   4.719   3.868  14.232  0.2851 -0.0553 -0.0604
15826TIP3    H168893   4.756   3.933  14.172  0.3300  1.3210  1.3835
15826TIP3    H268894   4.667   3.920  14.294 -1.8294 -1.6728 -0.4017
15827TIP3   OH268895   4.391   4.978  12.398 -0.1273  0.0626 -1.0098
15827TIP3    H168896   4.413   4.885  12.391 -1.8474 -0.4117 -0.6377
15827TIP3    H268897   4.425   5.004  12.484 -1.5700 -0.8356 -0.1264
15828TIP3   OH268898   0.319   1.677  17.286 -0.1615  0.3189 -0.1718
15828TIP3    H168899   0.381   1.611  17.318  0.0363 -0.3214 -1.8141
15828TIP3    H268900   0.296   1.727  17.365 -0.4256 -1.7597  1.1661
15829TIP3   OH268901   6.065   6.405  14.447  0.0515  0.0033  0.2714
15829TIP3    H168902   6.012   6.345  14.500  0.8139 -0.2410  0.7725
15829TIP3    H268903   6.004   6.437  14.380 -0.2709 -1.6621 -0.2926
15830TIP3   OH268904   6.038   4.650   4.300 -0.4402 -0.5259  0.1729
15830TIP3    H168905   6.082   4.567   4.279 -1.3420 -0.5940 -1.5360
15830TIP3    H268906   5.945   4.633   4.282 -0.6934  0.7210  0.2567
15831TIP3   OH268907   5.393   6.532   1.955 -0.6432  0.3428 -0.7545
15831TIP3    H168908   5.436   6.590   2.018 -1.8246  0.6933 -0.2313
15831TIP3    H268909   5.331   6.482   2.008 -1.2594  0.2433 -1.5531
15832TIP3   OH268910   1.342   0.956  11.690  0.5019  0.5603 -0.3421
15832TIP3    H168911   1.318   0.951  11.597 -0.1482 -0.1104 -0.1523
15832TIP3    H268912   1.275   0.903  11.734 -0.4519  2.5940  0.7683
15833TIP3   OH268913   3.341   2.131   1.975  0.4212  0.4554 -0.2486
15833TIP3    H168914   3.360   2.052   1.925 -0.0621  1.0858 -1.4939
15833TIP3    H268915   3.247   2.127   1.992  0.5915  0.2324  0.6467
15834TIP3   OH268916   6.245   0.007  14.062 -0.5447 -0.0265 -0.3976
15834TIP3    H168917   6.321  -0.006  14.119 -0.2139 -0.2286 -0.8827
15834TIP3    H268918   6.169  -0.000  14.121 -0.1656  1.2147  0.2847
15835TIP3   OH268919   3.677   1.027  15.351  0.1342 -0.0987 -0.3316
15835TIP3    H168920   3.646   0.968  15.283 -3.0593 -1.2600  1.8634
15835TIP3    H268921   3.608   1.093  15.358  0.1272 -0.2704  2.0019
15836TIP3   OH268922   6.587   2.109  12.344  0.4565  0.3120 -0.2976
15836TIP3    H168923   6.642   2.143  12.274  0.9889  0.7784  0.3321
15836TIP3    H268924   6.631   2.135  12.425 -0.8781  1.0362  0.2406
15837TIP3   OH268925   4.907   0.903   1.087 -0.0487 -0.3905  0.4436
15837TIP3    H168926   4.822   0.943   1.105 -0.5828 -1.7627  1.0993
15837TIP3    H268927   4.905   0.820   1.133  2.3489  0.2713  1.9620
15838TIP3   OH268928   0.171   1.116  15.450  0.0443 -0.0902  0.8255
15838TIP3    H168929   0.093   1.130  15.398  0.3986  1.7591  0.7363
15838TIP3    H268930   0.244   1.125  15.388  0.4207  1.0025  1.3929
15839TIP3   OH268931   5.816   2.184  11.000  0.7508  0.0858  0.4144
15839TIP3    H168932   5.810   2.095  10.967  1.7873  0.3950 -0.6834
15839TIP3    H268933   5.732   2.224  10.976  0.2922 -0.5781  0.8954
15840TIP3   OH268934   2.474   3.888  13.408  0.0646 -0.8121  0.3792
15840TIP3    H168935   2.551   3.831  13.405  1.0877  0.4880  1.0436
15840TIP3    H268936   2.408   3.836  13.454  0.6306 -1.8228  0.0925
15841TIP3   OH268937   3.219   5.837  16.372  0.3051  0.1517  0.2184
15841TIP3    H168938   3.161   5.766  16.347 -2.0325  2.1819 -0.5249
15841TIP3    H268939   3.178   5.877  16.449  0.6655  1.6448 -0.3237
15842TIP3   OH268940   5.653   4.240  13.805 -0.0070 -0.3496  0.4831
15842TIP3    H168941   5.717   4.226  13.735  2.2752  1.1955  2.1160
15842TIP3    H268942   5.626   4.331  13.795 -0.2839 -0.3577  1.1113
15843TIP3   OH268943   3.979   1.179  16.336  0.1272 -0.2381  0.2021
15843TIP3    H168944   4.063   1.167  16.380  0.7055 -0.3584 -0.8887
15843TIP3    H268945   4.000   1.175  16.243 -1.1226 -0.4699 -0.0940
15844TIP3   OH268946   0.889   5.162  11.131 -0.2414  0.2934  0.4134
15844TIP3    H168947   0.795   5.145  11.121 -0.3936  1.3771 -0.1322
15844TIP3    H268948   0.906   5.238  11.076  0.9435  0.1896  0.6028
15845TIP3   OH268949   6.075   1.138  15.854 -0.1804  0.2048  0.0489
15845TIP3    H168950   6.136   1.206  15.880  1.1557 -1.1196  0.5652
15845TIP3    H268951   6.075   1.076  15.927 -1.8363 -0.0509 -0.1303
15846TIP3   OH268952   5.459   5.461   6.089 -0.0627  0.1343  0.4875
15846TIP3    H168953   5.538   5.432   6.044  1.0920 -0.7031  2.8518
15846TIP3    H268954   5.475   5.439   6.181 -3.0556 -0.0519  1.0683
15847TIP3   OH268955   0.145   1.174   4.949  0.2770  0.0774 -0.3234
15847TIP3    H168956   0.069   1.224   4.979 -1.3440 -1.3931 -1.7597
15847TIP3    H268957   0.129   1.158   4.856  2.9341  0.6732 -0.9743
15848TIP3   OH268958   3.679   1.713   5.708  0.1271  0.1508 -0.4983
15848TIP3    H168959   3.730   1.725   5.788 -0.6906  1.6018 -0.1596
15848TIP3    H268960   3.679   1.799   5.666 -1.0248 -0.1282 -1.1081
15849TIP3   OH268961   4.641   4.268   3.814 -0.4232  0.2929  0.0097
15849TIP3    H168962   4.651   4.203   3.744 -1.5995  0.3166 -0.1940
15849TIP3    H268963   4.635   4.215   3.894 -2.3346  0.0592 -0.2481
15850TIP3   OH268964   2.883   3.553   1.065  0.3201 -0.2684  0.1364
15850TIP3    H168965   2.941   3.581   0.994  0.5049  1.3642  0.8955
15850TIP3    H268966   2.927   3.478   1.104  0.3480 -1.0316 -1.2792
15851TIP3   OH268967   3.040   4.004  13.890 -0.4071 -0.2926  0.3039
15851TIP3    H168968   3.111   4.002  13.825  0.2916 -0.3048  1.0522
15851TIP3    H268969   2.994   4.086  13.874 -0.2439 -0.2998 -0.2088
15852TIP3   OH268970   5.404   0.040   4.784  0.0699  0.0022  0.2375
15852TIP3    H168971   5.498   0.042   4.802  0.1727 -0.2569 -0.2506
15852TIP3    H268972   5.376  -0.047   4.812  0.0174 -0.0034  0.1670
15853TIP3   OH268973   1.132   6.507  14.915 -0.5009  0.7002  0.2715
15853TIP3    H168974   1.072   6.565  14.868 -0.6239  0.4388  0.1094
15853TIP3    H268975   1.075   6.441  14.955 -0.1611 -0.9281 -1.7802
15854TIP3   OH268976   3.055   0.346   1.506 -0.3782 -1.0106  0.5423
15854TIP3    H168977   3.033   0.387   1.423  2.6415  2.3078  1.1076
15854TIP3    H268978   2.997   0.271   1.512 -2.0546 -0.3312 -3.6199
15855TIP3   OH268979   1.826   4.538  14.408  0.4040 -0.2114  0.1627
15855TIP3    H168980   1.894   4.606  14.407 -0.1351  0.3510 -1.5161
15855TIP3    H268981   1.745   4.585  14.428  0.2200 -0.5736  0.2747
15856TIP3   OH268982   0.653   1.102   1.247 -0.4971  0.0148  0.0437
15856TIP3    H168983   0.705   1.022   1.260  3.0793  2.3836  2.0860
15856TIP3    H268984   0.645   1.110   1.152  4.7346  0.2402 -0.7123
15857TIP3   OH268985   4.348   5.669   4.916  0.1112  0.3238  0.3695
15857TIP3    H168986   4.302   5.595   4.876  1.6304 -0.1759 -0.5604
15857TIP3    H268987   4.286   5.742   4.911 -0.2585 -0.0668 -1.7347
15858TIP3   OH268988   2.011   4.043  10.812  0.2485 -0.5088 -0.1052
15858TIP3    H168989   2.008   3.957  10.772 -0.9215  0.2112 -1.6756
15858TIP3    H268990   1.922   4.058  10.844  0.2879  0.3500 -0.3766
15859TIP3   OH268991   0.718   5.154  14.667  0.0333 -0.3309  0.3112
15859TIP3    H168992   0.651   5.150  14.599  0.0463  0.0096  0.2742
15859TIP3    H268993   0.788   5.096  14.635  0.0949 -0.0725 -0.0316
15860TIP3   OH268994   0.417   5.082  13.955  0.0042 -0.1467  0.4978
15860TIP3    H168995   0.357   5.156  13.963 -0.1530 -0.0415 -1.1508
15860TIP3    H268996   0.503   5.122  13.942 -0.1994 -0.1698 -1.2666
15861TIP3   OH268997   0.992   5.259  13.445  0.2006 -0.2695  0.1822
15861TIP3    H168998   1.044   5.216  13.378  1.9364 -0.2839  1.4662
15861TIP3    H268999   0.955   5.336  13.402  2.9444  0.8721 -0.3182
15862TIP3   OH269000   6.627   1.185  16.208 -0.1169  0.1731 -0.1558
15862TIP3    H169001   6.585   1.267  16.234 -0.5543 -0.4747  1.2432
15862TIP3    H269002   6.701   1.212  16.153  1.0097  1.6335  1.9641
15863TIP3   OH269003   0.852   0.570  13.317 -0.2207  0.5572  0.2895
15863TIP3    H169004   0.907   0.507  13.270 -1.3995 -0.9061  0.7944
15863TIP3    H269005   0.909   0.644  13.334  0.8561  0.1906 -1.4905
15864TIP3   OH269006   4.066   1.860  15.213 -0.0173 -0.5065  0.1451
15864TIP3    H169007   4.126   1.913  15.266 -0.0833  0.0344 -0.3001
15864TIP3    H269008   4.091   1.880  15.123 -1.4206  0.4198 -0.0700
15865TIP3   OH269009   2.930   4.479  16.290  0.2720 -0.3846  0.1583
15865TIP3    H169010   2.835   4.465  16.286  0.3515 -0.7175 -0.8311
15865TIP3    H269011   2.964   4.432  16.214  1.1856  0.1348  0.2373
15866TIP3   OH269012   5.645   4.672   5.113 -0.6149 -0.1735  0.5229
15866TIP3    H169013   5.721   4.659   5.170  0.1476  1.5019 -0.0441
15866TIP3    H269014   5.598   4.588   5.116  0.0480 -0.5256  2.6235
15867TIP3   OH269015   3.124   4.088  12.662 -0.1516  0.1053 -0.3429
15867TIP3    H169016   3.059   4.098  12.592 -1.1814 -1.7854  0.2959
15867TIP3    H269017   3.146   3.995  12.661 -1.7016 -0.4260  3.1238
15868TIP3   OH269018   3.228   3.439   4.285 -0.4810 -0.2381 -0.0516
15868TIP3    H169019   3.146   3.482   4.308 -0.5731 -0.9590  1.0540
15868TIP3    H269020   3.275   3.503   4.231 -0.0740  1.8318  2.5416
15869TIP3   OH269021   4.146   4.801  12.598  0.3384 -0.3039  0.0359
15869TIP3    H169022   4.101   4.750  12.665  1.3715 -0.7769  0.3757
15869TIP3    H269023   4.209   4.854  12.646 -0.1615  0.7175 -0.3968
15870TIP3   OH269024   2.246   6.069  16.372 -0.0074  0.5060 -0.0479
15870TIP3    H169025   2.312   6.021  16.422 -0.1414  0.0465 -0.3063
15870TIP3    H269026   2.169   6.070  16.429  0.1148  0.7516  0.1155
15871TIP3   OH269027   0.340   2.913   5.428 -0.5016  0.3761  0.0273
15871TIP3    H169028   0.411   2.965   5.464 -0.5282  1.4255 -1.3492
15871TIP3    H269029   0.381   2.830   5.404  0.0788  0.6663  0.0101
15872TIP3   OH269030   5.756   4.124   6.370 -0.2003  0.7541  0.4764
15872TIP3    H169031   5.768   4.211   6.408 -0.0075  1.8695 -1.9048
15872TIP3    H269032   5.674   4.132   6.320  0.1798 -0.2003 -0.3247
15873TIP3   OH269033   4.583   1.649  15.525 -0.0224 -0.0062  0.2440
15873TIP3    H169034   4.586   1.592  15.601  2.0118  0.5884  0.6891
15873TIP3    H269035   4.518   1.715  15.546 -1.6668 -1.5298  0.1471
15874TIP3   OH269036   5.400   3.770  16.561  0.0607 -0.2870 -0.6213
15874TIP3    H169037   5.409   3.675  16.566 -2.1027 -0.4702  1.7122
15874TIP3    H269038   5.308   3.784  16.538  0.4104  1.2513 -1.1839
15875TIP3   OH269039   3.783   5.747   4.372 -0.1838  0.8491 -0.2524
15875TIP3    H169040   3.733   5.715   4.297 -0.0302  1.0452 -0.4396
15875TIP3    H269041   3.719   5.792   4.426 -0.0131  2.1392 -1.0705
15876TIP3   OH269042   5.338   1.251   0.065  0.5320 -0.3788  0.4888
15876TIP3    H169043   5.381   1.186   0.120  1.0074 -0.8121 -0.3852
15876TIP3    H269044   5.325   1.326   0.124  0.5816 -1.0077  1.3208
15877TIP3   OH269045   4.708   5.075  12.386 -0.1496  0.6345  0.0055
15877TIP3    H169046   4.660   5.104  12.464  1.0166  0.1845  0.9126
15877TIP3    H269047   4.783   5.027  12.420  0.8387  1.1239 -1.3913
15878TIP3   OH269048   1.650   2.377   0.094  0.1411 -0.3910 -0.3336
15878TIP3    H169049   1.695   2.322   0.030  1.0421 -1.5038  1.1909
15878TIP3    H269050   1.659   2.330   0.177  0.0688  1.5871  0.8573
15879TIP3   OH269051   1.039   6.423  15.968  1.3727 -0.1051  0.2039
15879TIP3    H169052   1.007   6.349  15.916  1.2120  0.4316 -0.4721
15879TIP3    H269053   1.079   6.482  15.905  1.2901  0.5051  0.7072
15880TIP3   OH269054   6.039   5.130   3.765  0.7392  0.7267  0.3139
15880TIP3    H169055   5.959   5.176   3.791  0.9501  0.3699  1.6361
15880TIP3    H269056   6.018   5.090   3.681 -0.6558  0.1886  0.9037
15881TIP3   OH269057   2.171   0.464  16.987  0.2211 -0.2830 -0.5310
15881TIP3    H169058   2.193   0.430  16.900 -2.4511 -1.6778 -0.7884
15881TIP3    H269059   2.157   0.385  17.040 -1.5878  0.4476  0.1660
15882TIP3   OH269060   2.057   3.158   5.623  0.4763 -0.1527 -0.7675
15882TIP3    H169061   2.105   3.090   5.670 -1.1206 -0.5246  0.4456
15882TIP3    H269062   1.992   3.188   5.686 -1.1624  0.0032 -2.4491
15883TIP3   OH269063   2.142   2.079   5.036 -0.5167 -0.2199  0.0586
15883TIP3    H169064   2.106   2.062   4.949 -0.6279 -0.1790  0.0965
15883TIP3    H269065   2.232   2.046   5.032 -0.0288  1.1305 -0.5401
15884TIP3   OH269066   5.234   0.954  11.804  0.1474  0.3509  0.2145
15884TIP3    H169067   5.321   0.925  11.775  0.1989 -0.4792  1.1481
15884TIP3    H269068   5.177   0.937  11.730  0.5611 -0.2759  0.0329
15885TIP3   OH269069   2.378   0.495  12.671  0.6491 -0.2579  0.6073
15885TIP3    H169070   2.316   0.560  12.639  0.1008 -0.7405  0.6778
15885TIP3    H269071   2.327   0.440  12.731  0.2798 -2.6405 -1.7053
15886TIP3   OH269072   3.236   6.087  15.247 -0.1816 -0.4129  0.4577
15886TIP3    H169073   3.143   6.073  15.266 -0.6975  0.3389 -1.2353
15886TIP3    H269074   3.260   6.013  15.191  0.0341 -0.2031  0.2743
15887TIP3   OH269075   4.183   6.719  13.084  0.4384 -0.0606  0.5591
15887TIP3    H169076   4.116   6.652  13.100  0.8432 -0.5737  0.1490
15887TIP3    H269077   4.135   6.802  13.084 -0.3534 -0.4951 -0.6526
15888TIP3   OH269078   4.923   0.020  12.992  0.3016  0.3552  0.0585
15888TIP3    H169079   4.935  -0.010  13.082 -1.2480  2.7236  1.1452
15888TIP3    H269080   4.866   0.097  12.999  1.8138  1.9010 -2.7343
15889TIP3   OH269081   1.337   3.749  15.097 -0.0310 -0.2441 -0.3065
15889TIP3    H169082   1.259   3.698  15.117  0.3556 -1.1280 -0.9517
15889TIP3    H269083   1.304   3.832  15.063 -0.6699  0.1165  1.1634
15890TIP3   OH269084   1.452   5.898   3.751  0.4395  0.3898 -0.1867
15890TIP3    H169085   1.363   5.933   3.750 -0.1292 -0.8397  1.9331
15890TIP3    H269086   1.495   5.941   3.677 -2.1312  0.3963 -1.8042
15891TIP3   OH269087   6.521   2.478  15.657  0.2374 -0.0765  0.4943
15891TIP3    H169088   6.519   2.534  15.579  4.6646 -3.0885 -2.2480
15891TIP3    H269089   6.592   2.513  15.710  1.5746 -1.7172 -0.1588
15892TIP3   OH269090   3.900   4.856  15.628  0.7244  1.0659 -0.0978
15892TIP3    H169091   3.974   4.915  15.643  2.2760 -0.1833 -2.3639
15892TIP3    H269092   3.854   4.895  15.554  0.0133  0.9789  0.2917
15893TIP3   OH269093   2.766   1.990   3.758  0.0065  0.2593  0.0870
15893TIP3    H169094   2.839   2.001   3.819 -0.7328  1.2478  0.8195
15893TIP3    H269095   2.767   2.070   3.705 -0.4350  0.2003 -0.0137
15894TIP3   OH269096   6.111   5.672   5.417  0.0131  0.1286  0.3361
15894TIP3    H169097   6.134   5.654   5.327  1.7143 -0.1553  0.7980
15894TIP3    H269098   6.191   5.655   5.467 -0.8417  0.4035  1.8820
15895TIP3   OH269099   2.911   3.838  12.154 -0.3293 -0.2925 -0.5009
15895TIP3    H169100   2.990   3.791  12.129  0.3869  1.4796 -1.7504
15895TIP3    H269101   2.918   3.849  12.249  0.9589 -0.1086 -0.6070
15896TIP3   OH269102   6.708   3.372   4.697 -0.5376 -0.7498 -0.0523
15896TIP3    H169103   6.758   3.418   4.629 -0.8168 -0.2874  0.0571
15896TIP3    H269104   6.732   3.280   4.685 -1.2446 -0.7878 -1.3462
15897TIP3   OH269105   6.535   1.361   4.491  0.0967  0.1880  0.4792
15897TIP3    H169106   6.460   1.329   4.440  1.9621 -0.8371 -1.8323
15897TIP3    H269107   6.586   1.411   4.428  2.7989 -1.5621  1.1388
15898TIP3   OH269108   0.296   5.731   1.583 -0.5551 -0.3728 -0.5322
15898TIP3    H169109   0.337   5.646   1.568  0.9271 -0.2069  1.9197
15898TIP3    H269110   0.368   5.794   1.573 -0.8462  0.2287  0.9177
15899TIP3   OH269111   5.046   5.959  15.902  0.3361  0.9135  0.3065
15899TIP3    H169112   5.065   5.893  15.835 -0.3623  0.5098  0.4938
15899TIP3    H269113   4.964   5.930  15.941  1.3065  0.4630  2.1604
15900TIP3   OH269114   0.637   1.315   2.691 -0.1912  0.0900  0.1405
15900TIP3    H169115   0.671   1.344   2.775 -0.0883 -0.5725  0.3382
15900TIP3    H269116   0.574   1.382   2.665  0.7655  0.9905  0.0947
15901TIP3   OH269117   1.643   1.489   5.089  0.0040 -0.4129 -0.5451
15901TIP3    H169118   1.630   1.569   5.039  2.6169 -0.4803 -1.4613
15901TIP3    H269119   1.559   1.442   5.082 -0.6729  0.9756 -2.2817
15902TIP3   OH269120   1.742   0.084  11.620 -0.1671 -0.3546 -0.1599
15902TIP3    H169121   1.672   0.125  11.671 -0.7874 -1.1433 -0.3539
15902TIP3    H269122   1.700   0.009  11.578  0.3752  0.1807 -1.7101
15903TIP3   OH269123   0.634   5.299  14.928 -0.7071  0.0022 -0.3352
15903TIP3    H169124   0.589   5.374  14.890 -0.1151 -0.4838 -2.1091
15903TIP3    H269125   0.644   5.238  14.855 -0.3947 -1.4369  0.8535
15904TIP3   OH269126   2.880   0.989  17.000 -0.2669 -0.5232 -0.6118
15904TIP3    H169127   2.847   0.994  16.910 -1.6775  2.0009 -0.0218
15904TIP3    H269128   2.810   1.024  17.054 -0.3138 -3.8734  1.8044
15905TIP3   OH269129   6.061   6.742   2.286  0.1258 -0.7589 -0.2081
15905TIP3    H169130   6.000   6.670   2.274 -0.1730 -0.1571 -2.8296
15905TIP3    H269131   6.023   6.815   2.237  0.4572  1.2136  2.2650
15906TIP3   OH269132   4.442   2.411  15.822 -0.0093  0.2305  0.1507
15906TIP3    H169133   4.458   2.391  15.730 -0.4468  1.3171 -0.1742
15906TIP3    H269134   4.349   2.433  15.827  0.3466  1.7908  0.5274
15907TIP3   OH269135   3.329   4.220   5.859 -0.1238 -0.6143  0.0839
15907TIP3    H169136   3.267   4.292   5.866  0.1954 -0.3405  0.1355
15907TIP3    H269137   3.345   4.193   5.950  2.7583  1.8544  0.4718
15908TIP3   OH269138   0.608   3.224  15.901  0.3296 -0.4814  0.4627
15908TIP3    H169139   0.700   3.208  15.881  0.1277 -1.0201 -0.0898
15908TIP3    H269140   0.608   3.270  15.985  1.0259 -2.4897  1.6298
15909TIP3   OH269141   5.987   1.145   3.529  0.1994 -0.0633 -0.1301
15909TIP3    H169142   5.909   1.094   3.550 -0.6565  2.1394  2.6148
15909TIP3    H269143   6.060   1.085   3.547 -0.7695 -1.5008 -0.7724
15910TIP3   OH269144   6.138   0.293  12.992 -0.3484 -0.2207  0.1104
15910TIP3    H169145   6.090   0.217  13.027  1.3087 -0.9139  0.9939
15910TIP3    H269146   6.077   0.333  12.930 -1.7748 -1.4877  0.6234
15911TIP3   OH269147   2.256   5.029   0.102 -0.0205 -0.2780  0.1510
15911TIP3    H169148   2.313   4.957   0.129 -0.6283 -1.0616 -0.6160
15911TIP3    H269149   2.313   5.106   0.103  0.5108 -0.6581  1.4942
15912TIP3   OH269150   6.606   4.423  11.938 -0.2270 -0.1100 -0.0545
15912TIP3    H169151   6.662   4.345  11.938  0.1641  0.1553  0.9094
15912TIP3    H269152   6.612   4.457  12.027 -2.0168 -0.1270  0.1160
15913TIP3   OH269153   1.538   3.256   1.045  0.3509  0.1867 -0.4308
15913TIP3    H169154   1.584   3.337   1.026  0.3316  0.5403  0.9390
15913TIP3    H269155   1.603   3.202   1.091 -0.2639  0.2978  0.6049
15914TIP3   OH269156   5.819   1.252  14.485  0.1745 -0.0473  0.1069
15914TIP3    H169157   5.816   1.346  14.463 -0.0584 -0.0741  0.0187
15914TIP3    H269158   5.749   1.213  14.432  0.6582 -0.3668 -0.3006
15915TIP3   OH269159   0.529   2.489  10.756 -0.3846  0.2313  0.0123
15915TIP3    H169160   0.485   2.428  10.816  0.6755 -1.7672 -1.1363
15915TIP3    H269161   0.546   2.566  10.809 -0.0797 -1.1997  2.1425
15916TIP3   OH269162   2.805   1.337  12.003  0.0710  0.1983  0.3245
15916TIP3    H169163   2.778   1.378  11.920  0.8431  2.4725  1.1188
15916TIP3    H269164   2.756   1.255  12.006 -0.0347  0.0629 -2.3412
15917TIP3   OH269165   3.272   5.499   5.077  0.3302  0.1430  0.0486
15917TIP3    H169166   3.353   5.549   5.070  0.4144 -0.0535 -0.3676
15917TIP3    H269167   3.222   5.545   5.145  1.1915 -0.2840  1.0123
15918TIP3   OH269168   3.020   5.325   0.170  0.2734  0.4499 -0.3931
15918TIP3    H169169   2.996   5.376   0.247  1.2338 -0.0426  0.2552
15918TIP3    H269170   2.985   5.374   0.096 -0.7460  0.8854  0.3609
15919TIP3   OH269171   2.436   5.424  15.876 -0.5366 -0.4098  0.0989
15919TIP3    H169172   2.422   5.334  15.905 -1.5710 -0.2928 -0.0260
15919TIP3    H269173   2.379   5.434  15.800 -0.2982  0.3074  0.0064
15920TIP3   OH269174   5.167   0.244  11.232 -0.8591 -0.6055  0.4822
15920TIP3    H169175   5.177   0.181  11.160 -3.1836 -1.0351  0.4458
15920TIP3    H269176   5.192   0.195  11.310  1.8077 -0.1008  0.0367
15921TIP3   OH269177   1.459   3.835  12.747 -0.0870 -0.8431  0.7193
15921TIP3    H169178   1.402   3.778  12.695  0.8254 -1.8892  0.8256
15921TIP3    H269179   1.439   3.923  12.716 -2.5579 -1.0563  1.5478
15922TIP3   OH269180   6.359   5.354   1.831  0.1002  0.2978 -0.4235
15922TIP3    H169181   6.354   5.407   1.751  0.5432  2.8041  1.0988
15922TIP3    H269182   6.453   5.339   1.844 -0.0118 -0.7738 -0.7331
15923TIP3   OH269183   5.175   3.273  14.488  0.0229  0.1050 -1.0411
15923TIP3    H169184   5.185   3.342  14.553  0.2774 -0.4244 -0.5107
15923TIP3    H269185   5.228   3.303  14.413  0.0131  0.5483 -0.8732
15924TIP3   OH269186   1.656   1.743   2.208  0.2815 -0.0577  0.1809
15924TIP3    H169187   1.733   1.757   2.262 -0.2344 -0.7121  1.1188
15924TIP3    H269188   1.609   1.671   2.251  0.4817 -1.4666 -1.8106
15925TIP3   OH269189   3.817   2.914  13.889 -0.0362 -0.1082 -0.1250
15925TIP3    H169190   3.788   3.005  13.902 -0.1774 -0.0921 -0.5324
15925TIP3    H269191   3.874   2.896  13.963  0.2871  0.4388 -0.2331
15926TIP3   OH269192   2.354   2.580   0.990 -0.4111  0.3819 -0.3586
15926TIP3    H169193   2.356   2.485   0.989  0.2321  0.3330  1.6274
15926TIP3    H269194   2.438   2.606   1.026 -1.8973  1.5308  2.6268
15927TIP3   OH269195   5.048   0.080  16.161 -0.5190  0.2627  0.0610
15927TIP3    H169196   5.063   0.169  16.192 -1.5718 -0.6120  3.5284
15927TIP3    H269197   4.953   0.073  16.155 -0.4961 -0.8379  0.6916
15928TIP3   OH269198   6.289   4.631  11.374  0.2525 -0.0594  0.1697
15928TIP3    H169199   6.385   4.630  11.372  0.2474  0.4409 -0.6622
15928TIP3    H269200   6.268   4.713  11.419  0.2129 -0.1268  0.2741
15929TIP3   OH269201   6.611   6.727   6.120 -0.6798 -0.2034 -0.2600
15929TIP3    H169202   6.585   6.776   6.198 -1.3314  1.0920 -1.2468
15929TIP3    H269203   6.571   6.641   6.130  0.6699 -0.6607  1.6251
15930TIP3   OH269204   5.512   0.878  12.273  0.6050 -0.1253 -0.5480
15930TIP3    H169205   5.596   0.887  12.319  1.6532  0.1724 -2.4083
15930TIP3    H269206   5.452   0.935  12.321  0.7521 -2.1099  2.2519
15931TIP3   OH269207   0.092   5.336   4.495 -0.1574  0.5672  0.3773
15931TIP3    H169208   0.065   5.250   4.462 -0.6935 -0.7807  3.9363
15931TIP3    H269209   0.122   5.383   4.417 -1.8277 -2.0534 -2.0423
15932TIP3   OH269210   0.098   0.399  15.469  0.3840  0.1646  0.1062
15932TIP3    H169211   0.166   0.352  15.422 -0.8272 -1.4342 -0.1150
15932TIP3    H269212   0.057   0.333  15.526 -1.2841  0.9546 -0.1062
15933TIP3   OH269213   5.698   3.245  14.284  0.2476  0.4128 -0.0624
15933TIP3    H169214   5.624   3.281  14.332 -0.0821  1.5422 -1.3745
15933TIP3    H269215   5.673   3.154  14.267 -0.0609  0.2837  0.9951
15934TIP3   OH269216   6.739   2.236  13.394  0.3839  0.3269  0.9147
15934TIP3    H169217   6.700   2.153  13.422  0.2241 -0.0713 -0.4000
15934TIP3    H269218   6.700   2.301  13.452 -0.4700 -0.3549  1.1318
15935TIP3   OH269219   4.840   1.025  11.395 -0.2440 -0.6630 -0.4135
15935TIP3    H169220   4.806   0.966  11.328 -1.2519 -0.9270  0.3010
15935TIP3    H269221   4.877   1.098  11.346 -0.8067 -0.9250 -1.2602
15936TIP3   OH269222   3.420   1.401   5.195  0.4945  0.0434 -0.1474
15936TIP3    H169223   3.377   1.331   5.145 -3.6741  0.8187  1.8486
15936TIP3    H269224   3.460   1.355   5.269  0.3617 -0.4643 -0.3794
15937TIP3   OH269225   5.616   4.054   1.007 -0.6953  0.2053 -0.2726
15937TIP3    H169226   5.633   4.031   0.916 -1.1200 -0.6729 -0.1370
15937TIP3    H269227   5.633   4.148   1.011 -0.9937  0.3212 -1.3353
15938TIP3   OH269228   1.215   5.792  14.599 -0.1433 -1.1066  0.0442
15938TIP3    H169229   1.213   5.830  14.687 -0.1801 -0.6869 -0.1341
15938TIP3    H269230   1.162   5.712  14.606  0.0229 -1.1816  0.4498
15939TIP3   OH269231   5.493   5.328   5.289 -0.5038 -0.5269  0.2106
15939TIP3    H169232   5.501   5.356   5.198 -0.5797 -0.0495  0.3504
15939TIP3    H269233   5.557   5.257   5.298  0.2224  0.1036  0.0569
15940TIP3   OH269234   5.659   5.859   2.867  0.3277 -0.5038 -0.8181
15940TIP3    H169235   5.731   5.865   2.930 -0.3889 -0.7842  0.0400
15940TIP3    H269236   5.673   5.776   2.823  1.0738 -0.1129 -1.3466
15941TIP3   OH269237   2.983   6.475   1.248 -0.0697  0.2254  0.0757
15941TIP3    H169238   2.933   6.554   1.267 -1.2205 -0.1409 -1.2786
15941TIP3    H269239   3.073   6.506   1.236 -0.1400  1.0452  1.4125
15942TIP3   OH269240   4.239   3.115   1.984  0.1170 -0.5458  0.0437
15942TIP3    H169241   4.333   3.120   1.966  0.0299 -1.0475 -0.5730
15942TIP3    H269242   4.214   3.028   1.954 -0.2483 -1.0169  1.6133
15943TIP3   OH269243   6.679   5.797  16.653  0.0955 -0.0814 -0.0105
15943TIP3    H169244   6.626   5.873  16.677 -0.2823 -0.0902 -0.8009
15943TIP3    H269245   6.739   5.830  16.586 -1.8133 -1.0265 -2.3295
15944TIP3   OH269246   0.856   0.227  11.112  0.4100  0.3320 -0.3971
15944TIP3    H169247   0.880   0.142  11.075  0.7870 -0.4136  1.4627
15944TIP3    H269248   0.810   0.272  11.041 -0.8139 -1.8579 -1.0851
15945TIP3   OH269249   1.637   1.885   3.350  0.0316  0.0025 -0.7257
15945TIP3    H169250   1.637   1.834   3.431  0.9582 -1.0764 -1.3803
15945TIP3    H269251   1.622   1.975   3.379 -0.2672 -0.4405  0.5811
15946TIP3   OH269252   6.625   1.953  14.208 -0.1191  1.3711  0.3240
15946TIP3    H169253   6.533   1.945  14.182 -0.2169  0.0629  1.0318
15946TIP3    H269254   6.627   1.921  14.298  1.1064  0.9872  0.1666
15947TIP3   OH269255   6.034   2.182  14.154 -0.2451 -0.2330 -0.3930
15947TIP3    H169256   5.970   2.245  14.186 -1.1589 -1.7279  0.8485
15947TIP3    H269257   6.086   2.231  14.090 -2.2261  1.2103 -1.0055
15948TIP3   OH269258   0.001   1.348  16.003 -0.4006  0.3142  0.9130
15948TIP3    H169259  -0.090   1.377  16.003 -0.3725  0.4096  0.4125
15948TIP3    H269260   0.002   1.272  15.945 -0.5926 -1.1098  2.6859
15949TIP3   OH269261   5.990   3.128  16.771  0.4591 -0.1410  0.5341
15949TIP3    H169262   6.074   3.093  16.741  1.1400 -0.1824  2.3590
15949TIP3    H269263   5.932   3.052  16.774  0.1755 -0.0296 -1.2041
15950TIP3   OH269264   3.505   2.676   5.129  0.9548  0.0166  0.1971
15950TIP3    H169265   3.466   2.607   5.075 -0.4701  1.0895 -0.2151
15950TIP3    H269266   3.596   2.681   5.099  0.4434 -0.0444 -1.4769
15951TIP3   OH269267   6.616   5.304  12.263 -0.4392  0.2031  0.2291
15951TIP3    H169268   6.685   5.342  12.209  0.6107  1.0500  2.0456
15951TIP3    H269269   6.635   5.210  12.264  1.4267  0.5154  1.5357
15952TIP3   OH269270   5.860   4.101   3.483 -0.2077  0.1425  0.4789
15952TIP3    H169271   5.864   4.140   3.571  2.5757  0.3627  0.3490
15952TIP3    H269272   5.946   4.119   3.446 -0.8824 -1.1026 -1.8250
15953TIP3   OH269273   4.376   0.205  15.915  0.2491 -0.2818  0.3594
15953TIP3    H169274   4.429   0.127  15.928  0.4163 -0.4046 -0.8668
15953TIP3    H269275   4.314   0.180  15.845  0.6313  0.8175 -0.4103
15954TIP3   OH269276   5.704   4.247  14.316 -0.2655  0.3803 -0.3287
15954TIP3    H169277   5.692   4.191  14.239  1.0276  0.5191 -0.6510
15954TIP3    H269278   5.771   4.310  14.290 -0.5488  1.0795  0.5729
15955TIP3   OH269279   5.283   0.063  16.035  0.0963  0.1600 -0.1661
15955TIP3    H169280   5.323  -0.020  16.058  0.9102  0.3128 -0.9730
15955TIP3    H269281   5.199   0.063  16.081  0.2281 -0.9567  0.1000
15956TIP3   OH269282   5.107   3.355   6.322 -0.5052 -0.2019 -0.1738
15956TIP3    H169283   5.151   3.275   6.350 -0.6491 -0.0960  0.3848
15956TIP3    H269284   5.164   3.425   6.351 -0.2957 -0.1022 -0.8169
15957TIP3   OH269285   3.251   3.845   0.002 -0.2351  0.2620 -0.2993
15957TIP3    H169286   3.312   3.808   0.066  0.2164 -0.0364 -0.8880
15957TIP3    H269287   3.251   3.939   0.021 -0.9585  0.0527  0.8446
15958TIP3   OH269288   2.396   4.899  13.336 -0.1444  0.1868 -0.5255
15958TIP3    H169289   2.409   4.804  13.329 -1.9464 -0.0467 -1.5882
15958TIP3    H269290   2.324   4.908  13.399 -2.2322  0.5368 -2.7696
15959TIP3   OH269291   4.519   5.161   3.070  0.3828 -0.2185  0.1853
15959TIP3    H169292   4.480   5.091   3.017  2.4419 -2.1185  1.0142
15959TIP3    H269293   4.614   5.151   3.056  1.0334 -0.5662  3.8141
15960TIP3   OH269294   4.011   5.939  16.487  0.2789  0.4585 -0.2420
15960TIP3    H169295   3.989   5.889  16.566 -0.5069  0.5316 -0.4038
15960TIP3    H269296   4.096   5.978  16.506  0.7743 -0.7109 -0.0056
15961TIP3   OH269297   5.119   4.405  15.908  0.1600  0.4156  0.1917
15961TIP3    H169298   5.144   4.477  15.965 -1.8567 -0.0980  1.8641
15961TIP3    H269299   5.095   4.334  15.969 -0.4433 -0.7472 -1.3389
15962TIP3   OH269300   5.982   3.954   2.630  0.0906  0.0065  0.3089
15962TIP3    H169301   5.910   3.987   2.685  0.0786  0.6040 -0.0585
15962TIP3    H269302   6.061   3.981   2.677  0.1565 -2.6612  1.9598
15963TIP3   OH269303   6.344   1.637   4.539  0.1990  0.5475  0.0114
15963TIP3    H169304   6.276   1.704   4.529  0.7653  0.9488 -1.3246
15963TIP3    H269305   6.403   1.652   4.465  1.6800  0.1264  1.0752
15964TIP3   OH269306   1.371   4.019  13.949  0.4857 -0.0577  0.0704
15964TIP3    H169307   1.379   3.933  13.908 -1.0134 -0.7236  1.0736
15964TIP3    H269308   1.457   4.035  13.988  1.0048 -0.7661 -0.7555
15965TIP3   OH269309   4.287   5.350   5.462 -0.0725 -0.4178  0.1173
15965TIP3    H169310   4.352   5.286   5.431 -1.7201 -1.9435 -0.3524
15965TIP3    H269311   4.301   5.353   5.557  1.1300 -0.1853 -0.0506
15966TIP3   OH269312   3.144   5.178  12.560  0.6506  0.8293 -0.2948
15966TIP3    H169313   3.101   5.094  12.546 -1.5799  2.0095 -0.9789
15966TIP3    H269314   3.194   5.166  12.640 -0.6274 -0.7689  0.3268
15967TIP3   OH269315   5.709   6.739  11.587 -0.2654 -0.6161 -0.1069
15967TIP3    H169316   5.781   6.800  11.601 -1.0413  0.2708  0.1514
15967TIP3    H269317   5.713   6.718  11.494  0.9282 -1.3772  0.1016
15968TIP3   OH269318   3.387   3.001  13.262 -0.0810 -0.1655 -0.4487
15968TIP3    H169319   3.401   3.094  13.281  0.2707 -0.3690  0.3531
15968TIP3    H269320   3.363   2.963  13.347 -1.1482 -0.6405 -0.9517
15969TIP3   OH269321   0.239   0.894  12.895  0.0679  0.0631 -0.2425
15969TIP3    H169322   0.205   0.825  12.952 -3.2372 -0.6556 -2.7497
15969TIP3    H269323   0.333   0.876  12.889 -0.0347 -1.8306  2.2004
15970TIP3   OH269324   4.372   4.061   5.554 -0.3412 -0.0827 -0.1391
15970TIP3    H169325   4.345   4.122   5.485  0.2505 -0.0544 -0.3482
15970TIP3    H269326   4.313   4.080   5.627 -0.0095  0.8993 -0.1233
15971TIP3   OH269327   4.505   5.011  15.037 -0.0943  0.0399  0.2201
15971TIP3    H169328   4.453   5.084  15.071 -1.7746  0.3361 -2.6785
15971TIP3    H269329   4.499   4.943  15.104 -1.5791  1.2427  1.3590
15972TIP3   OH269330   6.234   0.984   5.440 -0.4417 -0.1629 -0.2819
15972TIP3    H169331   6.211   1.066   5.396 -0.3590 -0.6004 -1.1510
15972TIP3    H269332   6.275   0.931   5.372 -0.0273 -0.7351  0.4018
15973TIP3   OH269333   6.578   0.349  16.320 -0.0854  0.1454  0.1598
15973TIP3    H169334   6.545   0.304  16.243 -1.0050  1.2845 -0.1362
15973TIP3    H269335   6.503   0.355  16.379  0.3758  0.1063  0.7626
15974TIP3   OH269336   5.543   4.511  13.826  0.1418 -0.6095  0.5104
15974TIP3    H169337   5.572   4.559  13.748 -3.2280  1.0516  0.1205
15974TIP3    H269338   5.555   4.573  13.898 -1.6535 -0.1153  0.4301
15975TIP3   OH269339   1.500   5.191   3.230  0.2745  0.0536  0.1279
15975TIP3    H169340   1.576   5.215   3.282  0.6162 -0.0898 -0.2962
15975TIP3    H269341   1.456   5.274   3.213 -1.1944 -0.1153  2.6592
15976TIP3   OH269342   3.327   5.238   5.902  0.2716 -0.2241 -0.3725
15976TIP3    H169343   3.406   5.255   5.953  1.0723 -2.2423 -0.8475
15976TIP3    H269344   3.354   5.251   5.811 -0.5660  1.2085 -0.4525
15977TIP3   OH269345   0.685   2.469  17.307  0.6596  0.5943 -0.1898
15977TIP3    H169346   0.689   2.531  17.380 -2.4122  0.6133  0.0965
15977TIP3    H269347   0.624   2.510  17.244 -0.1285 -1.3428 -0.7586
15978TIP3   OH269348   6.379   4.191   0.856 -0.0378  0.1207  0.2456
15978TIP3    H169349   6.353   4.158   0.770  0.6008  0.9313 -0.2792
15978TIP3    H269350   6.460   4.240   0.840  0.3264 -0.0644  1.3782
15979TIP3   OH269351   6.151   5.616  15.272  0.4902  0.1266 -0.0467
15979TIP3    H169352   6.153   5.545  15.207  2.6244  0.6242 -0.5906
15979TIP3    H269353   6.232   5.664  15.258 -1.5858  3.7823 -0.8792
15980TIP3   OH269354   3.982   5.137  14.687 -0.2397  0.4232  0.0226
15980TIP3    H169355   3.978   5.063  14.747  1.3852  1.2176  1.1735
15980TIP3    H269356   4.075   5.147  14.667 -0.2742  2.8323  0.8039
15981TIP3   OH269357   4.851   4.258   1.395 -0.4115  0.1632 -0.1188
15981TIP3    H169358   4.863   4.345   1.433  1.4446 -0.5695  1.1253
15981TIP3    H269359   4.910   4.202   1.445 -0.7323 -1.6116 -1.6245
15982TIP3   OH269360   4.182   1.024   4.440  0.7406  0.4187 -0.6017
15982TIP3    H169361   4.136   1.097   4.398  0.3525  1.0158  0.7719
15982TIP3    H269362   4.125   0.949   4.427 -0.3934  1.0238  0.5458
15983TIP3   OH269363   5.929   3.377   2.348 -0.0099  0.7301  0.4075
15983TIP3    H169364   5.962   3.331   2.270 -0.6838  0.1893  0.4337
15983TIP3    H269365   5.864   3.438   2.313 -0.4495  0.3547  0.5548
15984TIP3   OH269366   3.593   0.412  15.752  0.2847  0.3611  0.1476
15984TIP3    H169367   3.539   0.412  15.831 -0.3038  1.1144 -0.2462
15984TIP3    H269368   3.541   0.365  15.688 -0.0643  1.3703 -0.3281
15985TIP3   OH269369   4.600   3.666  15.056 -0.5509  0.2949 -0.3401
15985TIP3    H169370   4.553   3.583  15.063  1.9747 -1.2653 -0.3426
15985TIP3    H269371   4.621   3.689  15.146  0.7558 -0.3812 -0.4415
15986TIP3   OH269372   6.230   2.382  12.296  0.5554  0.5918  0.2775
15986TIP3    H169373   6.250   2.298  12.337  0.3122  0.8501  0.9515
15986TIP3    H269374   6.309   2.435  12.308  0.5340  0.6207  0.2933
15987TIP3   OH269375   2.699   5.822  11.643  0.0965 -0.1729  0.4795
15987TIP3    H169376   2.615   5.778  11.650  0.2292 -0.2140  3.0122
15987TIP3    H269377   2.729   5.830  11.734  1.9362  1.5544 -0.2003
15988TIP3   OH269378   3.836   4.502   1.292 -0.1401 -0.0966  0.4171
15988TIP3    H169379   3.854   4.541   1.378  0.7771 -1.0275  0.6608
15988TIP3    H269380   3.837   4.408   1.307  0.1971 -0.2798 -0.6505
15989TIP3   OH269381   3.463   5.443   3.144 -0.2397 -0.0225 -0.2612
15989TIP3    H169382   3.433   5.523   3.101  1.8631 -0.0469 -1.9070
15989TIP3    H269383   3.509   5.473   3.222  2.2361  0.6205 -1.8576
15990TIP3   OH269384   2.652   3.368  16.584 -0.1089  0.2008  0.1720
15990TIP3    H169385   2.734   3.329  16.614  0.9484  1.2714 -1.1802
15990TIP3    H269386   2.603   3.296  16.545  0.8824 -0.1972 -0.3764
15991TIP3   OH269387   0.645   0.133  13.533  0.5464 -0.1885  1.3097
15991TIP3    H169388   0.666   0.217  13.493  0.3899 -0.2393  1.1235
15991TIP3    H269389   0.551   0.138  13.551  0.5695 -0.2588  1.4529
15992TIP3   OH269390   4.148   1.289  17.363  0.2136  0.6506 -0.0487
15992TIP3    H169391   4.077   1.347  17.391 -0.3024  0.6317 -1.2592
15992TIP3    H269392   4.191   1.337  17.292  1.2193  0.5172  0.4543
15993TIP3   OH269393   2.237   5.798   0.980 -0.2562  0.3255 -0.0184
15993TIP3    H169394   2.159   5.844   1.010 -0.2219 -2.0572  4.5406
15993TIP3    H269395   2.297   5.868   0.954 -3.3131  2.2658 -2.7374
15994TIP3   OH269396   1.073   0.954   5.379 -0.6113 -0.5033  0.0700
15994TIP3    H169397   1.025   0.956   5.296 -0.7746 -1.3078  0.1371
15994TIP3    H269398   1.134   1.028   5.374  0.6532 -1.5965 -1.5293
15995TIP3   OH269399   2.809   6.706  11.587  0.4434  0.3653 -0.0584
15995TIP3    H169400   2.844   6.620  11.564 -1.3477 -0.7376  1.0630
15995TIP3    H269401   2.849   6.726  11.672 -0.3088 -0.1223  0.4274
15996TIP3   OH269402   5.287   0.767   0.064 -0.1071  0.3024  0.1512
15996TIP3    H169403   5.241   0.746  -0.017  0.7342 -0.7946 -0.0706
15996TIP3    H269404   5.228   0.738   0.133 -0.5907  0.7338 -0.0700
15997TIP3   OH269405   3.501   5.433  13.857  0.0499 -0.1274 -0.1081
15997TIP3    H169406   3.562   5.469  13.921  1.1970 -0.5665 -0.9117
15997TIP3    H269407   3.456   5.363  13.903  0.7113 -0.3008  0.2925
15998TIP3   OH269408   4.194   1.520  13.236  0.2198 -0.2998 -0.8245
15998TIP3    H169409   4.124   1.584  13.221  0.2947  0.4368  1.5584
15998TIP3    H269410   4.274   1.567  13.215  0.2585  0.4021  0.7190
15999TIP3   OH269411   2.633   5.690  11.344 -0.1348 -0.3030  0.4693
15999TIP3    H169412   2.632   5.618  11.406  1.0997  1.0359  2.1162
15999TIP3    H269413   2.545   5.729  11.350 -0.1130 -0.3617  1.1562
16000TIP3   OH269414   4.749   0.223  17.092 -0.1661  0.1318  0.0544
16000TIP3    H169415   4.752   0.157  17.023  0.8025  1.0348 -0.8102
16000TIP3    H269416   4.694   0.293  17.056  1.9164  1.4874 -0.6788
16001TIP3   OH269417   6.522   1.066  15.978  0.4563  0.0232  0.7373
16001TIP3    H169418   6.585   1.083  16.048  1.8466 -1.2339 -0.1488
16001TIP3    H269419   6.570   1.012  15.915 -1.1212  0.1129 -0.6111
16002TIP3   OH269420   6.012   1.879   1.310  0.2931  0.3474  0.1540
16002TIP3    H169421   6.011   1.912   1.399 -1.0528 -0.2432  0.3851
16002TIP3    H269422   5.920   1.867   1.287  0.6436 -1.7717 -0.4277
16003TIP3   OH269423   5.381   2.506  11.725 -0.1018  0.1637 -0.7042
16003TIP3    H169424   5.429   2.589  11.725  0.6466 -0.2584 -0.8663
16003TIP3    H269425   5.444   2.442  11.759 -0.9656 -0.1802  0.3157
16004TIP3   OH269426   5.596   6.176  15.474 -0.1482 -0.3162 -0.0725
16004TIP3    H169427   5.601   6.199  15.381  0.4589  0.9065  0.2411
16004TIP3    H269428   5.556   6.089  15.475  2.2444 -1.5526 -1.6413
16005TIP3   OH269429   5.606   2.895  11.696 -0.5651 -0.0907  0.0877
16005TIP3    H169430   5.583   2.825  11.756 -0.6947  0.9916  1.3543
16005TIP3    H269431   5.611   2.973  11.751  3.2331  0.3122 -0.5997
16006TIP3   OH269432   0.110   5.530  15.818  0.5381  0.1420 -0.3852
16006TIP3    H169433   0.183   5.470  15.831 -0.1435 -0.5775  0.2474
16006TIP3    H269434   0.080   5.551  15.906  0.6304  1.2650 -0.6032
16007TIP3   OH269435   4.667   4.412  13.800 -0.3421  0.8807 -0.5761
16007TIP3    H169436   4.654   4.483  13.736 -1.5718 -0.4370 -1.8561
16007TIP3    H269437   4.692   4.336  13.748 -2.4061 -0.5145  0.3325
16008TIP3   OH269438   1.307   5.006  11.797  0.3956 -0.7937 -0.8952
16008TIP3    H169439   1.235   5.068  11.782  0.8775 -0.2674 -1.0272
16008TIP3    H269440   1.269   4.921  11.773 -0.4996 -0.6655 -0.0018
16009TIP3   OH269441   4.278   2.853   1.298 -0.8697  0.1879 -0.2210
16009TIP3    H169442   4.204   2.802   1.331 -0.7400 -0.1858 -0.4998
16009TIP3    H269443   4.241   2.940   1.281 -1.3942 -0.1660 -0.9366
16010TIP3   OH269444   1.084   5.553  14.753  0.1467 -0.3384 -1.0141
16010TIP3    H169445   1.137   5.575  14.830 -1.0807 -0.0013 -0.2492
16010TIP3    H269446   0.997   5.534  14.787 -0.3544 -0.4789 -2.2962
16011TIP3   OH269447   4.801   4.692   5.288  0.5074  0.0291  0.3558
16011TIP3    H169448   4.734   4.625   5.299  1.3286 -0.6123  1.6742
16011TIP3    H269449   4.783   4.757   5.355  0.0188  0.8990 -0.5938
16012TIP3   OH269450   0.561   1.283  15.043 -0.3324 -0.7154  0.8093
16012TIP3    H169451   0.581   1.236  15.124 -2.5662 -0.0637  1.8135
16012TIP3    H269452   0.490   1.342  15.066 -0.2355  0.3531 -1.3672
16013TIP3   OH269453   5.320   3.064   1.325  0.0847 -0.1082  0.1253
16013TIP3    H169454   5.362   3.124   1.386  1.1036  0.8316 -1.4095
16013TIP3    H269455   5.365   2.981   1.338 -1.9474 -0.9055  2.9087
16014TIP3   OH269456   2.141   1.804   2.076  0.0183 -0.1535  0.1287
16014TIP3    H169457   2.066   1.863   2.087  1.8625  1.9999  2.1682
16014TIP3    H269458   2.140   1.750   2.155 -0.9390 -2.1159 -1.1593
16015TIP3   OH269459   0.595   3.691  14.848  0.5076 -0.1062  0.3783
16015TIP3    H169460   0.687   3.679  14.825  0.6854  1.8142 -0.0557
16015TIP3    H269461   0.549   3.693  14.765  0.6842  3.1959  0.2311
16016TIP3   OH269462   5.075   5.446   0.641 -0.1959 -0.6208  0.9093
16016TIP3    H169463   5.023   5.372   0.673  0.2813 -0.6620  1.5955
16016TIP3    H269464   5.025   5.524   0.666 -0.0430 -0.6675  1.3519
16017TIP3   OH269465   6.728   4.704  16.573  0.3272  0.2988 -0.4385
16017TIP3    H169466   6.769   4.664  16.650  0.6093  1.8325  0.2591
16017TIP3    H269467   6.778   4.784  16.558 -2.0550  2.0504  0.1943
16018TIP3   OH269468   0.799   2.295  12.517  0.5121 -0.8839 -0.5542
16018TIP3    H169469   0.773   2.209  12.550 -2.1070 -0.9405 -2.4298
16018TIP3    H269470   0.850   2.277  12.439 -1.2458 -0.8491 -1.7840
16019TIP3   OH269471   0.811   5.052  10.770  0.1455  0.3779 -0.1817
16019TIP3    H169472   0.752   5.127  10.771 -3.0998 -1.7670 -3.3207
16019TIP3    H269473   0.889   5.085  10.725 -0.8590  2.1155 -0.7893
16020TIP3   OH269474   2.310   1.567   5.999 -0.2301  0.2053 -0.0455
16020TIP3    H169475   2.287   1.598   5.911  0.8214  2.7061  0.4933
16020TIP3    H269476   2.405   1.579   6.005 -0.3606  0.6407  1.6192
16021TIP3   OH269477   2.501   2.356   6.425 -0.5654  0.1019  0.5038
16021TIP3    H169478   2.484   2.446   6.399 -2.5722  0.1990  1.8823
16021TIP3    H269479   2.523   2.311   6.343 -0.2318  1.6900 -0.3036
16022TIP3   OH269480   1.133   1.626  11.232 -0.4348  0.6008 -0.4869
16022TIP3    H169481   1.184   1.704  11.208  1.0285 -0.2481 -0.2815
16022TIP3    H269482   1.042   1.655  11.228  0.0239  2.0585 -1.3615
16023TIP3   OH269483   3.494   6.642  15.991  0.3833 -0.3821  0.6287
16023TIP3    H169484   3.543   6.564  15.965 -1.6700 -1.1655 -1.2215
16023TIP3    H269485   3.431   6.656  15.920 -0.5476  1.9043  1.7803
16024TIP3   OH269486   3.538   0.962  13.976 -0.3279 -0.5298  0.3080
16024TIP3    H169487   3.504   0.986  14.062  2.9510  0.0865  1.6029
16024TIP3    H269488   3.613   0.905  13.996 -1.4988 -3.2399 -2.3273
16025TIP3   OH269489   6.388   0.044   5.045  0.1807  0.4575  0.2395
16025TIP3    H169490   6.432  -0.007   4.977 -1.1246 -0.9210  0.3568
16025TIP3    H269491   6.427   0.013   5.127 -0.2705 -0.0084  0.2814
16026TIP3   OH269492   5.799   0.939  16.293 -0.3871  0.7226  0.1315
16026TIP3    H169493   5.775   0.863  16.240 -0.3482  0.2965  0.7241
16026TIP3    H269494   5.728   1.002  16.278 -2.4515 -0.8588  2.5867
16027TIP3   OH269495   1.443   6.335  12.363  1.1950 -0.1851 -0.7346
16027TIP3    H169496   1.439   6.372  12.275  0.6228 -1.0704 -1.0932
16027TIP3    H269497   1.351   6.324  12.388  1.3349 -1.5064 -0.7129
16028TIP3   OH269498   6.139   5.619  11.148  0.0060 -0.5324  0.0714
16028TIP3    H169499   6.151   5.550  11.213  0.3638  0.6704  1.3262
16028TIP3    H269500   6.213   5.610  11.089  1.0027 -0.1929  1.2251
16029TIP3   OH269501   3.465   3.228   0.325  0.1470  0.2769  0.0819
16029TIP3    H169502   3.479   3.278   0.406 -0.0463 -0.2536  0.4533
16029TIP3    H269503   3.370   3.222   0.316  0.1548  1.3106 -0.8146
16030TIP3   OH269504   4.103   5.874   4.401 -0.3875  1.0137  0.0651
16030TIP3    H169505   4.157   5.921   4.464 -0.0531  1.1685 -0.3295
16030TIP3    H269506   4.139   5.898   4.316 -1.0767  1.1200 -0.2076
16031TIP3   OH269507   3.705   1.831  14.446  0.1152  0.0952 -0.2192
16031TIP3    H169508   3.788   1.810  14.402  0.4266 -0.4851  0.6159
16031TIP3    H269509   3.730   1.890  14.517 -0.3150  0.6447 -0.5247
16032TIP3   OH269510   1.070   5.003   4.758  0.0613  0.9715  0.1952
16032TIP3    H169511   1.016   4.935   4.799  1.3339  0.1599  0.5667
16032TIP3    H269512   1.145   4.955   4.722 -0.0702  1.9141 -1.4031
16033TIP3   OH269513   6.283   4.426   4.775 -0.0146 -0.3100 -0.0423
16033TIP3    H169514   6.244   4.357   4.722  0.5460 -0.4729 -0.2459
16033TIP3    H269515   6.263   4.507   4.727  0.6363 -0.4719 -0.6014
16034TIP3   OH269516   1.552   0.834  14.891  0.4281 -0.3393 -0.3337
16034TIP3    H169517   1.623   0.897  14.907  0.5539 -0.3984 -0.6512
16034TIP3    H269518   1.573   0.796  14.806  0.3754 -0.8422 -0.1256
16035TIP3   OH269519   6.500   0.051  15.614  0.2629  0.1703 -0.1561
16035TIP3    H169520   6.408   0.048  15.638  0.0762  0.7740 -0.7557
16035TIP3    H269521   6.511  -0.021  15.552  0.4246 -0.5004  0.6313
16036TIP3   OH269522   5.800   6.691   4.385  0.0373  0.2468 -0.2192
16036TIP3    H169523   5.826   6.603   4.412 -0.9722  0.2870  1.0065
16036TIP3    H269524   5.873   6.722   4.332  0.9346 -0.8928  0.2865
16037TIP3   OH269525   4.280   5.422   5.749 -0.6424 -0.5874  0.5286
16037TIP3    H169526   4.245   5.434   5.837  0.9842 -2.4051  1.5059
16037TIP3    H269527   4.336   5.498   5.735 -1.7968  0.2982  0.5520
16038TIP3   OH269528   5.285   4.398  16.301  0.5051 -0.2884  0.3472
16038TIP3    H169529   5.252   4.318  16.342  0.0609 -0.1055  0.3525
16038TIP3    H269530   5.362   4.370  16.251  1.8196 -0.3131  2.2688
16039TIP3   OH269531   2.284   6.150  14.015  0.7818 -0.3711 -0.6117
16039TIP3    H169532   2.332   6.231  14.031  1.0102 -0.3158 -1.5176
16039TIP3    H269533   2.341   6.099  13.959  1.7972 -2.3124  1.9900
16040TIP3   OH269534   1.042   1.231  15.559 -0.0647  0.3473 -0.3838
16040TIP3    H169535   0.947   1.241  15.560  0.0555  1.7994  0.5064
16040TIP3    H269536   1.065   1.214  15.651  0.6802  2.4557 -0.1037
16041TIP3   OH269537   6.320   2.109   5.756 -0.0209 -0.6748  0.5400
16041TIP3    H169538   6.402   2.089   5.801 -0.6355 -1.6998  1.2483
16041TIP3    H269539   6.330   2.200   5.727  2.3366 -1.4909 -1.5817
16042TIP3   OH269540   5.378   4.997   5.447 -0.3875 -0.1184  0.3439
16042TIP3    H169541   5.303   4.987   5.505  0.6749 -1.1833  1.5916
16042TIP3    H269542   5.434   5.062   5.490 -0.3269  0.2858 -0.3195
16043TIP3   OH269543   4.399   1.722  11.493 -0.0105  0.3598  0.4675
16043TIP3    H169544   4.458   1.716  11.568  0.2050 -2.1148  0.1824
16043TIP3    H269545   4.317   1.755  11.529  0.8161  1.5763  1.3002
16044TIP3   OH269546   6.687   2.784  16.444  0.3583 -0.3090 -0.6362
16044TIP3    H169547   6.716   2.852  16.383 -0.8070 -0.7477 -1.7053
16044TIP3    H269548   6.666   2.709  16.389 -1.4590 -0.4656  0.1821
16045TIP3   OH269549   5.458   0.710  16.840  0.8487 -0.4602  0.2298
16045TIP3    H169550   5.418   0.733  16.923  1.0948 -0.4736  0.3515
16045TIP3    H269551   5.552   0.715  16.855  0.9317  1.7481 -0.6475
16046TIP3   OH269552   6.171   0.929  10.630  0.1210 -0.2177  0.1617
16046TIP3    H169553   6.138   0.869  10.698 -1.1377  2.2896  1.9211
16046TIP3    H269554   6.263   0.943  10.653  0.1455 -0.6401  0.3468
16047TIP3   OH269555   0.312   3.322  11.790  0.5915 -0.2442 -0.3648
16047TIP3    H169556   0.267   3.268  11.725 -1.0878 -0.3879  0.8517
16047TIP3    H269557   0.397   3.281  11.801  0.3377 -1.0912 -1.3605
16048TIP3   OH269558   3.255   2.301  12.852  0.0913  0.2517 -0.3635
16048TIP3    H169559   3.287   2.216  12.822  0.9363  1.0396 -1.8093
16048TIP3    H269560   3.163   2.286  12.872  0.0621 -0.8610 -1.2347
16049TIP3   OH269561   3.619   4.392   3.059  0.1650  0.6230  0.4928
16049TIP3    H169562   3.600   4.416   2.969  0.7111  0.9634  0.4631
16049TIP3    H269563   3.653   4.473   3.099  2.2056 -0.0918  0.3414
16050TIP3   OH269564   0.086   1.724  17.131 -0.9920  0.5967 -0.4711
16050TIP3    H169565   0.033   1.786  17.180 -1.7281 -0.8150  0.6153
16050TIP3    H269566   0.166   1.713  17.183 -1.9974 -1.3003  0.8132
16051TIP3   OH269567   2.335   0.887   2.632  0.1370  0.4962  0.0345
16051TIP3    H169568   2.306   0.972   2.666 -0.9005  0.5053 -0.8470
16051TIP3    H269569   2.318   0.891   2.538  1.0679 -0.3020 -0.1949
16052TIP3   OH269570   5.095   2.321  15.598 -0.1458 -0.2193 -0.1528
16052TIP3    H169571   5.182   2.333  15.562  0.0291 -0.2246  0.2598
16052TIP3    H269572   5.097   2.235  15.640  0.2487  0.5589  1.4979
16053TIP3   OH269573   5.440   6.641   2.206  0.4931  0.0036  0.2661
16053TIP3    H169574   5.448   6.598   2.291  1.3009 -1.4315 -0.4979
16053TIP3    H269575   5.410   6.730   2.226 -1.7995 -1.0485  1.8622
16054TIP3   OH269576   5.953   4.579   5.890 -0.0751 -0.2653  0.1390
16054TIP3    H169577   6.001   4.659   5.868  0.4846 -0.5660  0.2277
16054TIP3    H269578   5.980   4.560   5.980  1.6597 -1.8343 -0.6361
16055TIP3   OH269579   4.858   0.575   4.993  0.6581 -0.1988 -0.6943
16055TIP3    H169580   4.907   0.517   4.935 -1.5074 -1.7798 -1.0808
16055TIP3    H269581   4.780   0.598   4.943 -0.3277 -0.0163  0.8584
16056TIP3   OH269582   0.197   3.718   1.482  0.3187 -0.2923 -0.1547
16056TIP3    H169583   0.133   3.703   1.414  1.3398  0.1558 -1.2581
16056TIP3    H269584   0.241   3.633   1.494 -0.8520 -0.7591  1.0383
16057TIP3   OH269585   4.702   3.580  14.742  0.2734  0.0103 -0.0082
16057TIP3    H169586   4.680   3.532  14.821  0.5680 -0.1062  0.0051
16057TIP3    H269587   4.700   3.672  14.768 -0.8711  0.0488 -0.1777
16058TIP3   OH269588   3.151   0.354   3.431 -0.6007  0.2561 -0.2462
16058TIP3    H169589   3.216   0.379   3.365  0.3295 -0.0468  0.5340
16058TIP3    H269590   3.070   0.397   3.402 -0.5861 -0.9769 -2.3317
16059TIP3   OH269591   3.095   5.928  11.886 -0.0953  0.5570  0.4606
16059TIP3    H169592   3.172   5.892  11.930 -1.3840 -2.3215  0.5791
16059TIP3    H269593   3.108   6.023  11.889  2.2860  0.2761  2.5212
16060TIP3   OH269594   3.080   3.176  14.193 -0.4712  0.7466  0.2521
16060TIP3    H169595   3.111   3.254  14.148  2.4217 -0.7404 -0.5411
16060TIP3    H269596   3.159   3.136  14.230 -1.7071 -2.1271  0.0835
16061TIP3   OH269597   1.740   6.301   3.610  0.0528 -0.1927  1.2258
16061TIP3    H169598   1.768   6.279   3.699  0.6688  0.0279  1.0932
16061TIP3    H269599   1.814   6.274   3.555  1.6007  3.5321  1.1802
16062TIP3   OH269600   5.951   4.459  11.740 -0.1112 -0.5376 -0.0206
16062TIP3    H169601   5.990   4.398  11.677  1.5183  0.9076 -0.4814
16062TIP3    H269602   5.975   4.423  11.825  1.0377 -0.4611 -0.2904
16063TIP3   OH269603   0.403   2.040   2.328  0.2720  0.1020 -0.3203
16063TIP3    H169604   0.384   2.045   2.235 -2.2230 -0.3823  0.1023
16063TIP3    H269605   0.450   1.958   2.340  1.5638  0.6651 -1.2346
16064TIP3   OH269606   2.511   1.254   4.745 -0.1079 -0.0295 -0.1034
16064TIP3    H169607   2.503   1.219   4.833  0.2323  0.4375  0.1154
16064TIP3    H269608   2.525   1.348   4.757 -2.1479  0.4041 -0.7150
16065TIP3   OH269609   2.013   2.288  12.246  0.0167  0.0703 -0.3257
16065TIP3    H169610   1.931   2.240  12.243  0.5407 -0.8829  0.2235
16065TIP3    H269611   1.988   2.378  12.265 -0.9503 -0.0496 -0.9831
16066TIP3   OH269612   6.407   0.479  13.839 -0.6289 -0.3057 -0.2204
16066TIP3    H169613   6.323   0.522  13.829 -1.3780 -1.4495  0.8152
16066TIP3    H269614   6.432   0.495  13.930  0.8936  1.0515 -0.8342
16067TIP3   OH269615   4.129   5.443  13.659 -0.6801 -0.3570  0.4046
16067TIP3    H169616   4.155   5.414  13.571 -0.1679 -1.6813  0.9720
16067TIP3    H269617   4.061   5.381  13.685 -0.0824 -0.6296  1.3628
16068TIP3   OH269618   6.648   3.550  11.054  0.1262  0.3164 -0.5109
16068TIP3    H169619   6.684   3.622  11.004 -0.5015  0.2745 -1.0298
16068TIP3    H269620   6.593   3.591  11.120  0.6796  0.3554 -0.0644
16069TIP3   OH269621   2.341   3.017   3.008  0.0490  0.0199 -0.0648
16069TIP3    H169622   2.263   2.973   2.973 -0.8214 -0.6301  2.4937
16069TIP3    H269623   2.408   2.949   3.011  0.0772  0.0369 -0.2627
16070TIP3   OH269624   5.950   4.379  13.953  0.4381 -0.0770  0.4862
16070TIP3    H169625   5.999   4.332  13.885  0.5057  2.0190 -1.0429
16070TIP3    H269626   5.900   4.445  13.904 -1.0471  0.2477  2.3451
16071TIP3   OH269627   3.764   1.443  17.156  0.2383 -0.0480  0.6873
16071TIP3    H169628   3.795   1.370  17.101 -0.8071  0.3060 -0.4173
16071TIP3    H269629   3.719   1.501  17.095  1.7147  1.9604  1.3765
16072TIP3   OH269630   2.916   3.760  15.656  0.5382 -0.1256 -0.2811
16072TIP3    H169631   2.822   3.762  15.639  0.0382 -1.7053  1.9362
16072TIP3    H269632   2.956   3.767  15.569 -1.5989  0.4478 -1.2859
16073TIP3   OH269633   1.131   6.463  16.923 -0.3794  0.1346  0.3290
16073TIP3    H169634   1.117   6.434  17.013 -0.0541 -1.1379 -0.0062
16073TIP3    H269635   1.223   6.488  16.920 -0.0209 -1.1464  0.0269
16074TIP3   OH269636   2.096   1.513   2.528 -0.0047 -0.4630 -0.8213
16074TIP3    H169637   2.001   1.513   2.536 -0.0269  0.1048 -1.0065
16074TIP3    H269638   2.128   1.500   2.617 -0.2526 -1.6049 -0.8910
16075TIP3   OH269639   1.894   6.608  14.180 -0.0505 -0.3137  0.6133
16075TIP3    H169640   1.950   6.643  14.111  0.5165 -0.3163  1.0593
16075TIP3    H269641   1.808   6.645  14.163  0.0700 -0.3687 -0.1291
16076TIP3   OH269642   1.669   1.802   2.850 -0.4499  0.1299  0.0062
16076TIP3    H169643   1.701   1.745   2.919 -2.0308 -0.5304  0.2308
16076TIP3    H269644   1.626   1.874   2.896  1.5137  1.5588 -0.2731
16077TIP3   OH269645   5.758   1.454   4.747 -0.0813 -1.3139  0.2046
16077TIP3    H169646   5.698   1.483   4.816 -1.2958  2.7444 -2.2039
16077TIP3    H269647   5.845   1.480   4.778 -0.6945  1.2343 -0.0084
16078TIP3   OH269648   1.251   5.226   5.260  0.2636 -0.3183  0.0038
16078TIP3    H169649   1.290   5.286   5.197  1.2040  0.4091  1.2302
16078TIP3    H269650   1.319   5.214   5.326 -1.0548 -0.2027  1.4389
16079TIP3   OH269651   0.947   4.745  15.505  0.0931 -0.2913  0.7642
16079TIP3    H169652   0.883   4.677  15.522 -1.1098  0.4992 -0.3978
16079TIP3    H269653   1.015   4.702  15.452  0.4487 -1.0746  1.8191
16080TIP3   OH269654   0.516   5.384  17.124 -0.1057 -0.2866 -0.2008
16080TIP3    H169655   0.430   5.410  17.092 -0.8365 -1.8040  0.3999
16080TIP3    H269656   0.550   5.325  17.057  0.7330  0.7326 -0.6969
16081TIP3   OH269657   2.725   2.259   1.511  0.4267  0.3723  0.1028
16081TIP3    H169658   2.683   2.193   1.567 -1.3606  0.4786 -1.0299
16081TIP3    H269659   2.789   2.209   1.460 -0.7512 -0.5104 -0.5852
16082TIP3   OH269660   1.692   1.410   1.753 -0.2453  0.6867 -0.0857
16082TIP3    H169661   1.624   1.357   1.794  1.3946 -0.6560  1.0439
16082TIP3    H269662   1.701   1.486   1.810  1.5383 -0.8343  1.8032
16083TIP3   OH269663   5.858   2.759   0.247  0.1161  0.0283 -0.3268
16083TIP3    H169664   5.847   2.664   0.239 -2.2406  0.2995 -1.0362
16083TIP3    H269665   5.808   2.782   0.326  1.5422  0.5842  0.4474
16084TIP3   OH269666   4.845   1.081  17.053 -0.2076 -0.2776 -0.3711
16084TIP3    H169667   4.752   1.085  17.076 -0.0840  0.5154  0.0265
16084TIP3    H269668   4.859   1.160  17.000 -0.2478 -1.5201 -2.3428
16085TIP3   OH269669   1.662   4.920   6.622 -0.1525 -0.1831  0.0460
16085TIP3    H169670   1.729   4.961   6.567  0.3137 -1.5194 -0.4358
16085TIP3    H269671   1.711   4.889   6.698 -0.3803 -0.3991  0.1027
16086TIP3   OH269672   2.579   5.617   6.240  0.4035 -0.4068 -0.1796
16086TIP3    H169673   2.623   5.644   6.321  1.4219  0.3454 -0.9569
16086TIP3    H269674   2.587   5.521   6.239  1.0119 -0.3692  0.2740
16087TIP3   OH269675   5.114   2.987   4.415 -0.2804 -0.2045  0.4518
16087TIP3    H169676   5.142   2.998   4.506  0.0784 -0.8126  0.4195
16087TIP3    H269677   5.034   3.039   4.408 -0.6965 -0.7069  1.2952
16088TIP3   OH269678   5.161   3.834  15.250  0.5036 -0.1418 -0.2517
16088TIP3    H169679   5.135   3.883  15.172  1.6062  1.8769  0.5535
16088TIP3    H269680   5.080   3.795  15.283 -0.3285  0.6482 -1.2965
16089TIP3   OH269681   2.525   6.133   6.493 -0.1031 -0.1386  0.5899
16089TIP3    H169682   2.434   6.158   6.478 -0.6629 -0.8988  2.4156
16089TIP3    H269683   2.573   6.216   6.491 -0.9836  0.3859  0.5132
16090TIP3   OH269684   6.314   6.290   4.068  0.5721  0.6474 -0.2980
16090TIP3    H169685   6.357   6.205   4.081 -0.4222  0.0017 -1.1041
16090TIP3    H269686   6.386   6.349   4.044  1.0211 -0.4557 -1.8564
16091TIP3   OH269687   4.612   0.891   0.463 -0.4102 -0.2271  0.1935
16091TIP3    H169688   4.690   0.911   0.514  0.5434  0.5269 -1.4870
16091TIP3    H269689   4.539   0.921   0.518  0.4203 -1.0557  1.8418
16092TIP3   OH269690   3.537   2.850  16.342  0.1626 -0.1313 -0.1265
16092TIP3    H169691   3.447   2.877  16.364 -0.1101 -1.6406  0.7331
16092TIP3    H269692   3.529   2.759  16.316  1.2455  0.1965 -1.7368
16093TIP3   OH269693   4.743   5.166  11.049  0.2134  0.0316 -0.8898
16093TIP3    H169694   4.804   5.092  11.049 -1.4018 -1.3772 -0.7397
16093TIP3    H269695   4.747   5.200  10.960  1.3466  0.0968 -0.8268
16094TIP3   OH269696   3.382   5.111  15.429 -0.0008  0.7052 -0.5458
16094TIP3    H169697   3.432   5.084  15.506 -2.2833 -0.2984  0.7040
16094TIP3    H269698   3.393   5.206  15.425  2.0847  0.5123 -0.4704
16095TIP3   OH269699   1.513   0.191  11.744 -0.4592 -0.2017  0.7079
16095TIP3    H169700   1.488   0.266  11.798 -1.3827  0.1811 -0.2262
16095TIP3    H269701   1.433   0.137  11.739 -0.2935 -0.3913 -0.0059
16096TIP3   OH269702   0.160   5.608   5.758 -0.6460  0.1672  0.8634
16096TIP3    H169703   0.209   5.530   5.784  0.6888  0.7261  0.1011
16096TIP3    H269704   0.170   5.613   5.663  0.8308  2.2242  1.0505
16097TIP3   OH269705   3.049   5.913   1.532  0.6207  0.1742 -0.0789
16097TIP3    H169706   3.024   5.907   1.440  0.5223  3.1427 -0.3555
16097TIP3    H269707   3.060   6.007   1.548 -0.4484 -0.1209  3.2468
16098TIP3   OH269708   2.232   2.997   0.442  0.2882 -0.1498 -0.2961
16098TIP3    H169709   2.185   3.016   0.524  0.4134  1.1289 -0.4927
16098TIP3    H269710   2.202   3.065   0.382  1.8111  0.2459 -0.6558
16099TIP3   OH269711   2.731   6.520   3.198  0.1526 -0.6377 -0.0033
16099TIP3    H169712   2.675   6.547   3.125  1.0971  1.6037  0.0251
16099TIP3    H269713   2.788   6.452   3.161 -0.4324 -0.6614 -0.8971
16100TIP3   OH269714   2.226   1.275   3.819  0.0124  0.3769  0.0615
16100TIP3    H169715   2.256   1.357   3.782  0.7298 -0.9273 -2.4389
16100TIP3    H269716   2.130   1.283   3.823  0.1655  2.0391  1.8093
16101TIP3   OH269717   0.669   1.380  11.651  0.1744 -0.2201  0.4670
16101TIP3    H169718   0.740   1.423  11.699  0.3357 -1.3031  1.2270
16101TIP3    H269719   0.672   1.420  11.564  0.2270  1.3884  1.1653
16102TIP3   OH269720   3.546   2.316  15.514  0.3772 -0.3262 -0.0969
16102TIP3    H169721   3.594   2.320  15.431  0.9813  0.6022  0.2803
16102TIP3    H269722   3.536   2.223  15.531  0.2300 -0.5367 -1.2226
16103TIP3   OH269723   5.439   2.618  14.966  0.3195 -0.2353  0.1959
16103TIP3    H169724   5.426   2.712  14.953  0.8808 -0.3325 -1.3039
16103TIP3    H269725   5.506   2.595  14.903  2.4685 -1.0913  2.6035
16104TIP3   OH269726   1.614   2.787   4.035 -0.7552 -0.2693 -0.0739
16104TIP3    H169727   1.565   2.745   3.965  0.7918 -0.9988 -0.7609
16104TIP3    H269728   1.646   2.868   3.997  0.3157 -0.7946 -0.3363
16105TIP3   OH269729   2.870   6.695  16.720 -0.4858 -0.4148  0.1122
16105TIP3    H169730   2.946   6.721  16.772  1.8225 -2.6046 -1.9170
16105TIP3    H269731   2.886   6.734  16.634 -2.1197 -0.2142 -0.1231
16106TIP3   OH269732   1.405   0.073  17.043  0.7619 -0.2778 -0.3051
16106TIP3    H169733   1.388   0.163  17.069  2.1927 -0.2163  0.5498
16106TIP3    H269734   1.497   0.073  17.016  0.5701 -1.3281 -0.9996
16107TIP3   OH269735   2.617   5.021  17.390  0.0940 -0.1849  0.1799
16107TIP3    H169736   2.559   5.009  17.465  0.3462  0.2090  0.4429
16107TIP3    H269737   2.629   5.116  17.384  1.6919 -0.3207  0.8937
16108TIP3   OH269738   5.058   3.552   4.210  0.4695 -0.3014  0.4394
16108TIP3    H169739   5.151   3.534   4.200  0.8363  1.3678  0.6954
16108TIP3    H269740   5.053   3.627   4.268 -1.0905 -0.9820  1.2805
16109TIP3   OH269741   0.709   6.298  16.962 -0.1878 -0.5383  0.2872
16109TIP3    H169742   0.671   6.211  16.957 -0.3049 -0.4663 -0.1170
16109TIP3    H269743   0.788   6.293  16.908 -0.6239 -0.1801 -0.4102
16110TIP3   OH269744   1.892   4.946  12.076  0.3967 -0.8797  0.2131
16110TIP3    H169745   1.892   5.038  12.052  2.0687 -0.4188  1.8451
16110TIP3    H269746   1.977   4.913  12.047 -0.8987 -2.4677 -2.1237
16111TIP3   OH269747   4.926   4.406  12.814  0.8393  0.3013 -0.1120
16111TIP3    H169748   4.855   4.355  12.774 -1.1342  2.4091  0.5074
16111TIP3    H269749   5.005   4.373  12.772 -0.5573 -1.6064 -1.4341
16112TIP3   OH269750   5.462   6.698   5.830 -0.8941  0.1221  0.2126
16112TIP3    H169751   5.518   6.626   5.859 -0.7082  0.2804  0.2494
16112TIP3    H269752   5.443   6.747   5.910  1.8295  2.1380 -0.2165
16113TIP3   OH269753   4.790   5.990  17.267 -0.6404 -0.4768  0.6782
16113TIP3    H169754   4.762   6.032  17.349 -0.3147 -0.1928  0.6417
16113TIP3    H269755   4.722   6.014  17.204  0.3825  1.4157  0.2236
16114TIP3   OH269756   3.970   2.838  16.514  0.0701 -0.0314  0.1597
16114TIP3    H169757   3.988   2.915  16.568  1.1058 -0.2802  0.1776
16114TIP3    H269758   3.993   2.763  16.569  1.0440 -0.2914 -0.5793
16115TIP3   OH269759   5.888   0.374   0.309  0.2838 -0.1526  0.5256
16115TIP3    H169760   5.892   0.380   0.214  0.2856 -0.7837  0.4821
16115TIP3    H269761   5.879   0.280   0.327  1.8366 -0.2022  1.2062
16116TIP3   OH269762   6.099   3.441  11.673 -0.5079  0.4726 -0.7276
16116TIP3    H169763   6.047   3.514  11.706  0.3699  0.7115  0.1751
16116TIP3    H269764   6.106   3.380  11.746 -1.3872 -0.6372 -1.5287
16117TIP3   OH269765   1.594   3.437   1.939  0.4744  0.4267 -0.2708
16117TIP3    H169766   1.639   3.354   1.956 -1.9144 -1.5265 -2.6105
16117TIP3    H269767   1.511   3.429   1.986  0.6064  1.9946  0.2914
16118TIP3   OH269768   3.335   5.735   6.612  0.0312  0.2260 -0.6641
16118TIP3    H169769   3.395   5.726   6.538  0.6759  2.1744 -0.4281
16118TIP3    H269770   3.387   5.707   6.688 -0.2486 -0.6340 -0.7781
16119TIP3   OH269771   0.195   4.723   1.911 -0.0517 -0.2448  0.1470
16119TIP3    H169772   0.235   4.803   1.946  1.4855 -1.6144  1.6929
16119TIP3    H269773   0.122   4.705   1.971  1.1311 -1.2971  1.3404
16120TIP3   OH269774   5.602   0.240   3.783  0.0455  0.3827  0.1684
16120TIP3    H169775   5.565   0.320   3.820 -1.5285 -0.9526  1.6454
16120TIP3    H269776   5.527   0.194   3.745  1.1308  0.2249 -1.9692
16121TIP3   OH269777   4.266   4.210  16.369  0.4940 -0.6368  0.6821
16121TIP3    H169778   4.255   4.259  16.287  2.3772  1.1065  1.3999
16121TIP3    H269779   4.276   4.119  16.341 -1.5111 -0.4539 -0.8099
16122TIP3   OH269780   0.515   5.036  12.467 -0.2975 -0.1847  0.1226
16122TIP3    H169781   0.517   5.005  12.558 -0.6513 -2.3444 -0.5530
16122TIP3    H269782   0.530   4.957  12.414  1.6923  1.2779 -1.6810
16123TIP3   OH269783   3.749   4.927  11.489 -0.5109  0.4936 -0.0036
16123TIP3    H169784   3.833   4.919  11.445 -0.8845 -2.2615 -0.3744
16123TIP3    H269785   3.768   4.914  11.582 -0.6391 -1.4452 -0.2209
16124TIP3   OH269786   2.475   5.150  16.245 -0.0727 -0.6066  0.1805
16124TIP3    H169787   2.524   5.080  16.288  1.3325  1.2493  1.7937
16124TIP3    H269788   2.391   5.152  16.291 -0.7835 -2.2119 -0.9600
16125TIP3   OH269789   3.489   5.383   5.364 -0.1722 -0.2172  0.3056
16125TIP3    H169790   3.521   5.401   5.275 -0.0372 -1.1707  0.1476
16125TIP3    H269791   3.438   5.460   5.387  0.2383  0.2792 -0.3954
16126TIP3   OH269792   4.580   4.385   1.822 -0.0350 -0.0080 -0.8244
16126TIP3    H169793   4.576   4.358   1.730  0.1764  0.8814 -1.1033
16126TIP3    H269794   4.489   4.393   1.849 -0.1104  0.5028 -1.2002
16127TIP3   OH269795   0.068   3.039  12.661  0.2591 -0.2138 -0.4121
16127TIP3    H169796   0.105   2.954  12.686 -0.7365 -0.3290  0.7833
16127TIP3    H269797   0.141   3.101  12.672  0.7363 -0.7724 -0.3794
16128TIP3   OH269798   0.115   0.615  14.153 -0.3684  0.0663  0.7316
16128TIP3    H169799   0.184   0.587  14.093  0.0467  0.5862  0.9550
16128TIP3    H269800   0.039   0.631  14.096 -0.2033 -0.1700  0.4416
16129TIP3   OH269801   3.731   0.051  12.923  0.3282  0.6534 -0.4142
16129TIP3    H169802   3.764   0.140  12.926  0.5181  0.5633  1.3634
16129TIP3    H269803   3.738   0.025  12.831  0.5653  2.3438 -0.8929
16130TIP3   OH269804   2.813   0.338   4.088  0.1892 -1.0408 -0.2285
16130TIP3    H169805   2.860   0.364   4.009  0.3046 -0.4597  0.0265
16130TIP3    H269806   2.873   0.280   4.134  0.8900  0.1444  0.3753
16131TIP3   OH269807   1.781   5.885  12.732 -0.1772 -0.2831  0.0725
16131TIP3    H169808   1.850   5.838  12.684  1.4416  2.0344 -0.0149
16131TIP3    H269809   1.812   5.887  12.822  0.4702  1.6582 -0.1418
16132TIP3   OH269810   2.578   6.072  13.090 -0.1684 -0.2122 -0.2717
16132TIP3    H169811   2.668   6.102  13.105  0.3480 -1.5761 -0.4766
16132TIP3    H269812   2.526   6.117  13.157  0.8483 -0.2589  0.5793
16133TIP3   OH269813   0.760   0.124  11.587 -0.0446 -0.1619  0.6474
16133TIP3    H169814   0.737   0.044  11.539  0.6236  0.9079 -1.6308
16133TIP3    H269815   0.813   0.174  11.524  1.9606  0.8375  2.9842
16134TIP3   OH269816   0.002   1.764   4.668  0.0226  0.1502  0.4755
16134TIP3    H169817   0.016   1.800   4.756 -1.5532  0.5490  0.6020
16134TIP3    H269818  -0.073   1.705   4.679  0.9170 -1.1632 -0.2689
16135TIP3   OH269819   2.380   2.656  12.662 -0.5322 -0.1462  0.2568
16135TIP3    H169820   2.377   2.719  12.734  0.8442 -0.9575  1.0831
16135TIP3    H269821   2.403   2.708  12.585  0.6594  0.3655  0.9357
16136TIP3   OH269822   5.172   5.867   2.084  0.1324 -0.0793 -0.1841
16136TIP3    H169823   5.123   5.861   2.167 -0.9013 -2.3927 -0.8832
16136TIP3    H269824   5.215   5.952   2.089 -3.0161  1.6451  1.0434
16137TIP3   OH269825   3.315   3.643   0.723 -0.1106 -0.0361  0.1654
16137TIP3    H169826   3.328   3.571   0.786 -1.1646  0.5337  1.0635
16137TIP3    H269827   3.358   3.718   0.764  0.0619  0.1072 -0.2774
16138TIP3   OH269828   1.109   6.051  16.693  0.1974  0.2306 -0.0938
16138TIP3    H169829   1.120   6.056  16.788 -0.5291  1.1802 -0.0532
16138TIP3    H269830   1.115   5.957  16.673  0.0794 -0.0002  0.9175
16139TIP3   OH269831   5.865   1.048   3.157 -0.3598  0.0573 -0.5004
16139TIP3    H169832   5.878   0.958   3.127  1.8163 -0.3349  1.3154
16139TIP3    H269833   5.829   1.039   3.245 -0.4061  0.9612 -0.4164
16140TIP3   OH269834   4.268   4.051  15.465  0.9501 -0.8878  0.4933
16140TIP3    H169835   4.179   4.038  15.498 -0.1521  1.5929 -1.2041
16140TIP3    H269836   4.315   4.089  15.539 -0.4197  1.0334  0.4442
16141TIP3   OH269837   4.071   2.183   4.484  0.2527  0.2371 -0.7147
16141TIP3    H169838   4.155   2.228   4.474 -0.8231  2.0080 -2.3349
16141TIP3    H269839   4.039   2.209   4.570  0.3965  1.3009 -0.9736
16142TIP3   OH269840   0.279   5.233   6.578 -0.2264  0.4031 -0.3325
16142TIP3    H169841   0.311   5.316   6.613 -1.3835 -0.1958  2.4252
16142TIP3    H269842   0.356   5.177   6.574  0.2083  0.9798 -0.1435
16143TIP3   OH269843   0.880   0.553  14.787  0.3231  0.0073 -0.1288
16143TIP3    H169844   0.855   0.522  14.874  1.8612 -2.2494 -0.3956
16143TIP3    H269845   0.968   0.588  14.799  1.4118 -2.2014 -1.0372
16144TIP3   OH269846   6.541   4.166  14.031 -0.0196 -0.6678  0.2925
16144TIP3    H169847   6.559   4.260  14.039  0.6159 -0.7305 -0.2685
16144TIP3    H269848   6.471   4.161  13.966  0.9632 -0.6460 -0.8019
16145TIP3   OH269849   6.289   5.048   0.251 -0.5451 -0.2194  0.6808
16145TIP3    H169850   6.256   5.110   0.186 -2.6181 -0.7068  1.2001
16145TIP3    H269851   6.363   5.005   0.208  0.9411  2.5349  0.2954
16146TIP3   OH269852   3.762   4.105  14.236 -0.4223  0.0992 -0.0406
16146TIP3    H169853   3.827   4.133  14.172  0.1084  0.7635  0.7539
16146TIP3    H269854   3.707   4.041  14.190 -0.0327  0.5260 -1.1242
16147TIP3   OH269855   3.308   0.883   5.171 -0.4032 -0.2702  0.6762
16147TIP3    H169856   3.221   0.857   5.202 -0.9794  0.6942 -0.0801
16147TIP3    H269857   3.328   0.962   5.221 -1.1994  1.1117 -1.0642
16148TIP3   OH269858   0.414   2.028  16.374 -0.2764  0.0488  0.2097
16148TIP3    H169859   0.468   1.960  16.334  0.5953 -0.4042  2.0437
16148TIP3    H269860   0.349   1.980  16.425 -0.3622  0.5933  0.6206
16149TIP3   OH269861   0.445   5.613   2.779  0.5914  0.2155  0.2081
16149TIP3    H169862   0.420   5.657   2.860  0.8324  0.2676  0.2555
16149TIP3    H269863   0.365   5.611   2.727  0.9292  2.1835 -0.4749
16150TIP3   OH269864   5.579   3.264  16.670  0.0850  0.4412 -0.5788
16150TIP3    H169865   5.629   3.333  16.714 -2.4869  1.8444  0.3709
16150TIP3    H269866   5.569   3.195  16.736 -0.5048  0.8515 -0.2254
16151TIP3   OH269867   0.220   4.900   0.624 -0.0035 -0.3681 -0.0250
16151TIP3    H169868   0.196   4.979   0.576  0.7866 -1.0731 -1.6504
16151TIP3    H269869   0.291   4.927   0.682 -1.0619  0.5233  0.9110
16152TIP3   OH269870   6.257   5.672  12.449  0.4034 -0.3942 -0.3166
16152TIP3    H169871   6.316   5.604  12.416 -0.2451 -0.0447 -2.3272
16152TIP3    H269872   6.174   5.656  12.403 -0.3792  0.5495  0.6992
16153TIP3   OH269873   2.694   0.194  14.292  0.8578 -0.3703 -0.6057
16153TIP3    H169874   2.729   0.282  14.308 -0.4724  0.3466 -1.4326
16153TIP3    H269875   2.700   0.150  14.377  0.8493  0.7777  0.0093
16154TIP3   OH269876   0.152   4.909   3.660  0.0205  0.3282  0.4458
16154TIP3    H169877   0.169   4.972   3.590 -0.2355  1.7398  1.6119
16154TIP3    H269878   0.108   4.836   3.616  0.5596  0.8204 -0.9803
16155TIP3   OH269879   0.121   1.685  11.427  0.3562 -0.3660  0.0269
16155TIP3    H169880   0.100   1.703  11.335 -0.0824 -0.3268  0.1319
16155TIP3    H269881   0.058   1.617  11.453  0.4215 -0.3161  0.3206
16156TIP3   OH269882   3.077   6.411   3.913 -0.1295 -0.9931  0.3022
16156TIP3    H169883   3.166   6.445   3.902 -0.3043 -0.4851  0.3967
16156TIP3    H269884   3.088   6.322   3.945  0.3440 -0.8944  0.4148
16157TIP3   OH269885   3.624   3.322  15.426  0.6825 -0.8721 -0.2342
16157TIP3    H169886   3.532   3.345  15.426  1.2004  1.3849 -0.4950
16157TIP3    H269887   3.659   3.359  15.507  1.7031 -0.1185 -0.9910
16158TIP3   OH269888   0.895   3.246   5.094 -0.0071  0.1180  0.3934
16158TIP3    H169889   0.906   3.319   5.156  0.4449 -0.6510  1.2516
16158TIP3    H269890   0.959   3.264   5.025 -1.9702  2.1251 -1.0465
16159TIP3   OH269891   3.665   2.307  13.890  0.0954 -0.0013 -0.3436
16159TIP3    H169892   3.667   2.228  13.837  1.8789  0.4389 -1.0052
16159TIP3    H269893   3.692   2.377  13.830 -0.3509  0.9312  0.5031
16160TIP3   OH269894   2.329   4.829   1.164 -0.8367 -0.4887 -0.0238
16160TIP3    H169895   2.375   4.883   1.101  0.4443 -1.6605 -0.1475
16160TIP3    H269896   2.302   4.889   1.234 -0.5417  0.4804 -0.7361
16161TIP3   OH269897   0.960   1.482  11.680 -0.9474 -0.7224 -0.1838
16161TIP3    H169898   0.985   1.453  11.592  0.4056 -0.8364  0.2196
16161TIP3    H269899   1.035   1.462  11.734 -1.7252 -0.5492  0.9975
16162TIP3   OH269900   4.858   5.790   5.325 -0.0927  0.3235 -0.4482
16162TIP3    H169901   4.838   5.809   5.233  0.2123  2.2982 -0.1529
16162TIP3    H269902   4.835   5.871   5.371 -0.8205 -0.8401  1.3211
16163TIP3   OH269903   2.943   3.966   6.493  0.1229  0.2222 -1.2995
16163TIP3    H169904   2.915   4.028   6.560 -0.4054 -1.0662 -0.2887
16163TIP3    H269905   2.919   4.008   6.410 -1.9186  0.5996 -0.5923
16164TIP3   OH269906   5.061   3.283  13.252  0.2063  0.2069  0.6640
16164TIP3    H169907   5.120   3.352  13.282  0.3120 -0.0434  1.0409
16164TIP3    H269908   5.068   3.215  13.319 -1.0787  0.4840  1.0968
16165TIP3   OH269909   2.599   2.041   2.910 -0.8196  0.2383  0.0853
16165TIP3    H169910   2.506   2.028   2.890 -1.3840  1.7173  1.4821
16165TIP3    H269911   2.617   1.981   2.983 -0.2696 -1.0549 -1.0707
16166TIP3   OH269912   4.535   1.680   3.501 -0.1906 -0.4979  0.0447
16166TIP3    H169913   4.592   1.756   3.515 -1.5712  0.3137  1.5204
16166TIP3    H269914   4.557   1.650   3.412  1.7908  0.3856  0.1897
16167TIP3   OH269915   2.111   1.759  13.790 -0.2448 -0.1030 -0.0465
16167TIP3    H169916   2.056   1.799  13.858  0.1240 -0.0871  0.2414
16167TIP3    H269917   2.052   1.749  13.715 -0.5372  0.2823  0.1308
16168TIP3   OH269918   6.000   4.273  13.374 -0.2513 -0.1370 -0.6184
16168TIP3    H169919   6.009   4.352  13.428 -1.8061  0.5075 -1.2407
16168TIP3    H269920   6.076   4.219  13.397 -2.5917 -1.7467  5.2823
16169TIP3   OH269921   5.819   2.414  17.391  0.1639 -0.2048 -0.0646
16169TIP3    H169922   5.858   2.480  17.333  1.9352 -0.4605  0.7817
16169TIP3    H269923   5.849   2.330  17.356 -3.0763 -0.7863 -1.8910
16170TIP3   OH269924   3.615   1.382   2.085  0.6430 -0.1097 -0.0084
16170TIP3    H169925   3.684   1.437   2.123  1.7118  0.2450 -2.2385
16170TIP3    H269926   3.629   1.296   2.123  1.5610  0.2418  0.4898
16171TIP3   OH269927   1.797   0.384  13.766  0.3395 -0.2755 -0.0163
16171TIP3    H169928   1.824   0.474  13.784 -1.7671  0.4419 -0.0577
16171TIP3    H269929   1.734   0.364  13.835 -0.0625 -1.2983 -0.6571
16172TIP3   OH269930   0.343   2.764  12.219 -0.0440  0.5078 -0.7997
16172TIP3    H169931   0.251   2.774  12.196  0.0350  2.5650 -0.4583
16172TIP3    H269932   0.360   2.834  12.282  1.6740 -0.0264 -0.5986
16173TIP3   OH269933   3.101   2.327  13.965  0.0394 -0.3852  0.2202
16173TIP3    H169934   3.127   2.392  13.900 -0.3964 -0.9213 -0.4975
16173TIP3    H269935   3.181   2.310  14.015  0.4927 -0.3050 -0.4694
16174TIP3   OH269936   6.268   6.145  15.710  0.7311  0.2000 -0.3213
16174TIP3    H169937   6.259   6.223  15.765 -2.9516  0.3786 -0.9115
16174TIP3    H269938   6.255   6.177  15.621 -0.4173 -0.9771 -0.6088
16175TIP3   OH269939   0.505   4.309   2.128 -0.4647  0.2046 -0.3647
16175TIP3    H169940   0.513   4.221   2.091  1.5412  0.0228  0.3832
16175TIP3    H269941   0.574   4.314   2.194  0.0838  2.6377 -1.0242
16176TIP3   OH269942   2.332   2.301   5.322 -0.1279 -0.4137  0.1899
16176TIP3    H169943   2.379   2.229   5.281 -0.5948 -0.8628  0.4400
16176TIP3    H269944   2.389   2.377   5.309  1.5504 -1.2775  2.0633
16177TIP3   OH269945   0.888   5.992   5.524 -0.1885 -0.3763  0.2843
16177TIP3    H169946   0.877   6.086   5.515  0.4770 -0.4021 -1.0458
16177TIP3    H269947   0.800   5.959   5.542 -0.7326  0.3279 -0.9864
16178TIP3   OH269948   0.088   2.427   6.063 -0.0081 -0.3414  0.1827
16178TIP3    H169949   0.053   2.451   6.149 -1.8306 -2.6367  0.1815
16178TIP3    H269950   0.182   2.419   6.077 -0.1799  0.0543  1.7800
16179TIP3   OH269951   4.747   3.707  16.933  0.3758  0.1245  0.1157
16179TIP3    H169952   4.826   3.750  16.902  0.1196 -0.1697 -0.9780
16179TIP3    H269953   4.778   3.627  16.975  0.6444 -0.1141 -0.5343
16180TIP3   OH269954   3.332   6.603   2.545 -0.0672  0.1334 -0.1457
16180TIP3    H169955   3.298   6.616   2.633 -2.0960 -0.3850 -0.7891
16180TIP3    H269956   3.408   6.545   2.556  0.0161  0.4886  1.2771
16181TIP3   OH269957   5.901   3.209   5.132  0.5689  0.3894 -0.3724
16181TIP3    H169958   5.927   3.191   5.041 -0.1948 -1.0971 -0.3387
16181TIP3    H269959   5.856   3.129   5.160  0.3161  1.0255  1.1506
16182TIP3   OH269960   1.665   2.181  15.414  0.2352  0.1783 -0.3114
16182TIP3    H169961   1.628   2.267  15.397  0.6834  0.4427  0.0330
16182TIP3    H269962   1.599   2.119  15.381 -0.1431  0.6481 -0.4376
16183TIP3   OH269963   3.548   3.360   0.568  0.1881 -0.0599 -0.3519
16183TIP3    H169964   3.580   3.442   0.603  1.8620 -0.1077 -1.6432
16183TIP3    H269965   3.547   3.300   0.643 -0.4945  0.9570  0.4719
16184TIP3   OH269966   4.465   6.577   0.604  0.0813 -0.3153 -0.0489
16184TIP3    H169967   4.547   6.599   0.647  0.5978 -1.4236 -0.4495
16184TIP3    H269968   4.405   6.647   0.631  1.1066  0.4345  0.3506
16185TIP3   OH269969   2.288   2.924   2.394 -0.1626 -0.3283 -0.3325
16185TIP3    H169970   2.272   2.895   2.483  0.5333  2.8971  0.9866
16185TIP3    H269971   2.380   2.903   2.378 -0.3711 -1.2002 -0.4653
16186TIP3   OH269972   5.236   0.757   4.827  0.4089  0.1450  0.0932
16186TIP3    H169973   5.292   0.807   4.767  1.3527  0.6139  1.3269
16186TIP3    H269974   5.297   0.710   4.884 -0.4633 -0.1005  0.8587
16187TIP3   OH269975   6.715   4.955  11.872  0.6611 -0.0488 -0.2062
16187TIP3    H169976   6.636   4.924  11.916  0.9549  1.0591  1.1624
16187TIP3    H269977   6.742   4.881  11.818 -0.4424 -0.9982  0.4859
16188TIP3   OH269978   5.611   2.187   0.272  0.0758  0.0014 -0.2814
16188TIP3    H169979   5.545   2.217   0.334 -0.8981  0.3874 -1.4476
16188TIP3    H269980   5.639   2.266   0.226  2.2805  0.0507  0.9705
16189TIP3   OH269981   0.045   3.144   1.589 -0.0919 -0.3262 -0.1511
16189TIP3    H169982   0.032   3.152   1.494 -0.6817  0.3626 -0.0175
16189TIP3    H269983  -0.032   3.096   1.620 -0.3345  0.2254  0.0987
16190TIP3   OH269984   0.359   5.026  15.229 -0.0633 -0.2600 -0.3573
16190TIP3    H169985   0.403   5.106  15.200 -0.7438  0.2196 -0.0896
16190TIP3    H269986   0.267   5.051  15.236 -0.1509 -0.8315  0.5922
16191TIP3   OH269987   0.371   1.701  12.872  0.0369 -0.1195  0.2077
16191TIP3    H169988   0.287   1.723  12.832  0.0679  0.2168  0.3280
16191TIP3    H269989   0.368   1.606  12.882  0.4636 -0.3577 -1.5746
16192TIP3   OH269990   5.183   1.411  16.249 -0.0910  0.1913 -0.3196
16192TIP3    H169991   5.225   1.344  16.303  1.1807  0.9859 -0.2535
16192TIP3    H269992   5.098   1.375  16.227  0.2632 -1.1176  0.3322
16193TIP3   OH269993   3.368   0.009  12.230  0.2556 -0.1191  0.2866
16193TIP3    H169994   3.372  -0.086  12.238  1.1273 -0.1230 -0.1356
16193TIP3    H269995   3.420   0.042  12.303  2.1826 -0.0338 -1.0609
16194TIP3   OH269996   5.787   6.544   0.231 -0.1846 -0.6128  0.3602
16194TIP3    H169997   5.789   6.479   0.161  1.2847 -0.9510  0.6861
16194TIP3    H269998   5.834   6.619   0.195  0.5283 -0.7678  0.9394
16195TIP3   OH269999   6.354   6.406   0.040 -0.1980  0.3939 -0.5376
16195TIP3    H170000   6.328   6.322   0.004 -1.3698  2.0720 -4.1101
16195TIP3    H270001   6.272   6.449   0.065  0.4030  0.4143  1.5641
16196TIP3   OH270002   0.902   5.765   1.664 -0.4737  0.2283 -0.0628
16196TIP3    H170003   0.843   5.825   1.619 -0.8443 -0.3385 -0.3392
16196TIP3    H270004   0.849   5.688   1.684 -0.1024  0.1342  0.6213
16197TIP3   OH270005   6.230   2.930   2.285 -0.1777 -0.4076 -0.2345
16197TIP3    H170006   6.143   2.957   2.257  0.0161  1.2360  0.6448
16197TIP3    H270007   6.264   2.879   2.212 -0.7556  1.3947 -1.8405
16198TIP3   OH270008   2.858   1.891   0.095  0.9968  0.6382  0.1218
16198TIP3    H170009   2.872   1.945   0.017  3.0850  0.4623  0.3309
16198TIP3    H270010   2.868   1.952   0.169  3.2953  0.0463  0.3565
16199TIP3   OH270011   3.382   5.941  11.136  0.0579 -0.1622 -0.1808
16199TIP3    H170012   3.363   5.996  11.060 -1.8959  0.1926  0.5116
16199TIP3    H270013   3.367   5.999  11.211  1.0900 -0.7592  0.5033
16200TIP3   OH270014   2.268   3.652  16.732  0.5815 -0.2396  0.0044
16200TIP3    H170015   2.330   3.610  16.672  0.4586 -0.4025 -0.0069
16200TIP3    H270016   2.273   3.600  16.812 -0.0752 -0.6924 -0.2414
16201TIP3   OH270017   0.197   0.708  12.298  0.1552 -0.0677 -0.7421
16201TIP3    H170018   0.173   0.663  12.217  1.1322 -0.5041 -0.8039
16201TIP3    H270019   0.259   0.649  12.341  0.4599  0.6358 -0.1874
16202TIP3   OH270020   3.401   1.731   4.342  0.1282  0.6704 -0.0030
16202TIP3    H170021   3.329   1.670   4.327 -0.6082  1.4357  0.3048
16202TIP3    H270022   3.366   1.817   4.316  0.2825  1.3389  1.8119
16203TIP3   OH270023   5.800   2.901  14.812  0.0018 -0.5223 -0.2998
16203TIP3    H170024   5.766   2.814  14.829 -2.2902  0.2805 -0.3970
16203TIP3    H270025   5.755   2.930  14.733 -0.2928  1.2243  0.4521
16204TIP3   OH270026   2.570   6.619   2.982 -0.0383  0.4953 -0.5012
16204TIP3    H170027   2.600   6.699   2.940 -0.5054  0.3994 -1.0315
16204TIP3    H270028   2.497   6.648   3.037 -0.0732  0.4636 -0.5311
16205TIP3   OH270029   4.475   4.804   2.201 -0.1477 -0.3013 -0.1799
16205TIP3    H170030   4.542   4.852   2.152 -1.0304  1.2148  0.0297
16205TIP3    H270031   4.499   4.814   2.293 -0.1373 -0.5913 -0.1482
16206TIP3   OH270032   1.462   4.421  13.246  0.2180 -0.1454 -0.1262
16206TIP3    H170033   1.468   4.413  13.341 -0.9944  1.2904  0.1224
16206TIP3    H270034   1.499   4.340  13.212 -0.1129 -1.0649  1.5918
16207TIP3   OH270035   2.574   4.393  11.658  0.1160 -0.0984  0.3394
16207TIP3    H170036   2.560   4.469  11.715 -0.5808  0.8998 -1.0831
16207TIP3    H270037   2.586   4.320  11.718  3.7552  1.5309  1.8528
16208TIP3   OH270038   2.968   5.752  11.254 -0.2759  0.3368  0.3181
16208TIP3    H170039   2.927   5.706  11.181 -0.1742 -0.3418  0.6769
16208TIP3    H270040   3.041   5.695  11.280 -0.7649  0.1964  1.4311
16209TIP3   OH270041   2.492   4.990   2.250  0.3355  0.0556 -0.4571
16209TIP3    H170042   2.512   4.913   2.303 -1.2471 -0.1003 -0.0412
16209TIP3    H270043   2.518   4.965   2.161 -0.3015 -1.0277 -0.3567
16210TIP3   OH270044   6.200   2.298  13.982 -0.2064 -0.1988  0.0936
16210TIP3    H170045   6.240   2.217  13.950  1.1000 -0.0790  1.3326
16210TIP3    H270046   6.185   2.350  13.902  1.8048 -0.4182 -0.4773
16211TIP3   OH270047   5.704   3.089   5.319 -0.4926 -0.5228 -0.1884
16211TIP3    H170048   5.658   3.018   5.274 -1.9602  1.0222 -1.2634
16211TIP3    H270049   5.635   3.151   5.342  0.4119 -0.4638  2.8362
16212TIP3   OH270050   0.361   4.210  15.624 -0.4618 -1.0578 -0.6780
16212TIP3    H170051   0.431   4.176  15.680  0.6679  0.8344 -0.8676
16212TIP3    H270052   0.368   4.305  15.631 -2.8197 -0.8057 -0.9908
16213TIP3   OH270053   5.199   3.026   5.252  0.2458  0.6672  0.0239
16213TIP3    H170054   5.269   3.082   5.219  0.2687  0.2847 -0.5916
16213TIP3    H270055   5.131   3.086   5.282  0.2675  1.0241 -0.6359
16214TIP3   OH270056   1.966   3.888   1.103  0.1847  0.4324  0.0273
16214TIP3    H170057   2.007   3.972   1.125 -1.8550  1.6784 -0.6095
16214TIP3    H270058   1.894   3.912   1.044 -3.2996 -1.2024  3.2128
16215TIP3   OH270059   5.765   3.861  12.597  0.5528 -0.5524 -0.3327
16215TIP3    H170060   5.744   3.834  12.508 -0.7192  1.7494 -0.8164
16215TIP3    H270061   5.708   3.807  12.652 -3.8160  2.3923 -1.3883
16216TIP3   OH270062   5.787   1.068  15.158 -0.2776  0.0682 -0.3215
16216TIP3    H170063   5.833   0.986  15.178 -0.5272 -0.1436 -0.6096
16216TIP3    H270064   5.804   1.124  15.234  1.4899  0.4533 -0.9357
16217TIP3   OH270065   3.001   4.338   5.529  0.2751  0.1561  0.2527
16217TIP3    H170066   3.039   4.259   5.567  0.4805  0.5055  0.7961
16217TIP3    H270067   2.907   4.319   5.523 -0.1179  0.8123  2.9067
16218TIP3   OH270068   4.293   0.270   4.396 -0.7900 -0.2447 -0.4843
16218TIP3    H170069   4.293   0.340   4.331  0.0067  1.1659  0.9536
16218TIP3    H270070   4.202   0.264   4.424 -1.0514 -0.5380 -1.3764
16219TIP3   OH270071   2.961   1.854   3.049  0.0614  0.5755  0.0208
16219TIP3    H170072   2.922   1.934   3.016 -2.2377 -0.2413  0.5458
16219TIP3    H270073   3.055   1.873   3.054 -0.5188  3.7384  1.5176
16220TIP3   OH270074   4.295   6.487   6.949  0.2821 -0.1622 -0.0937
16220TIP3    H170075   4.371   6.542   6.928 -0.7791  2.1299  1.6352
16220TIP3    H270076   4.302   6.413   6.888  2.2584  1.4334 -2.0026
16221TIP3   OH270077   5.536   0.639   5.970  0.2638  0.0195  0.4401
16221TIP3    H170078   5.446   0.667   5.989  0.3481  0.7881 -0.2625
16221TIP3    H270079   5.582   0.650   6.054 -0.6358 -1.8777  1.2383
16222TIP3   OH270080   1.311   5.182  16.972 -0.0658  0.4912 -0.1363
16222TIP3    H170081   1.258   5.178  16.892 -0.0366  0.3112 -0.1475
16222TIP3    H270082   1.400   5.199  16.942 -0.3427  2.3471 -0.0343
16223TIP3   OH270083   5.250   3.526  13.277  0.5985 -0.5295  0.1704
16223TIP3    H170084   5.232   3.617  13.301  0.7537 -0.9615  2.1095
16223TIP3    H270085   5.286   3.530  13.189  1.0409  1.3356  0.4128
16224TIP3   OH270086   6.579   0.775   5.650  0.0490 -0.3335  0.4966
16224TIP3    H170087   6.660   0.811   5.686 -1.1260  1.6406  1.3532
16224TIP3    H270088   6.510   0.818   5.700 -1.6241  0.5582 -2.3333
16225TIP3   OH270089   0.787   1.891   6.250  0.1540 -0.3395  0.1549
16225TIP3    H170090   0.735   1.867   6.326  0.1964 -0.9705 -0.0064
16225TIP3    H270091   0.739   1.963   6.209 -0.4815 -0.7715  0.1330
16226TIP3   OH270092   0.653   2.708   5.455  0.0830  0.4999  0.4486
16226TIP3    H170093   0.679   2.777   5.393  0.3846  0.8547  0.9664
16226TIP3    H270094   0.704   2.726   5.534  0.1277 -0.2954  0.6064
16227TIP3   OH270095   4.699   1.268   4.285 -0.2879  0.1307 -0.6789
16227TIP3    H170096   4.728   1.284   4.195  0.9722  1.2621 -0.1169
16227TIP3    H270097   4.711   1.174   4.297 -0.5240 -0.0420 -1.7079
16228TIP3   OH270098   4.623   6.526  12.479 -0.8027  0.0370 -0.3192
16228TIP3    H170099   4.564   6.529  12.553 -1.0894 -1.2335 -0.4605
16228TIP3    H270100   4.621   6.614  12.442 -0.0442  0.9259  1.6184
16229TIP3   OH270101   3.547   4.891   3.111  0.2382 -0.6058  0.3239
16229TIP3    H170102   3.465   4.888   3.061  2.0289 -0.5189 -2.8767
16229TIP3    H270103   3.564   4.984   3.123  0.4917 -0.5915 -0.1397
16230TIP3   OH270104   6.540   2.988  15.874 -0.0042 -0.3291  0.4061
16230TIP3    H170105   6.587   2.911  15.841 -0.2737  0.4383 -1.9466
16230TIP3    H270106   6.458   2.952  15.908 -1.2497 -0.9664 -2.9196
16231TIP3   OH270107   3.178   2.013  12.873  0.4860 -0.6000 -0.5395
16231TIP3    H170108   3.111   2.015  12.805 -0.1533  0.8547  0.1009
16231TIP3    H270109   3.133   2.040  12.952  1.9557  1.1239 -0.2296
16232TIP3   OH270110   2.030   3.880   6.816 -0.0053 -0.3428  0.6381
16232TIP3    H170111   2.012   3.806   6.874 -1.8646  0.1011  0.7001
16232TIP3    H270112   2.000   3.957   6.865 -2.0232  0.0118 -0.9946
16233TIP3   OH270113   6.299   3.262  12.320 -0.1638  0.2266  0.3509
16233TIP3    H170114   6.215   3.220  12.339 -0.3860  1.2650  1.8844
16233TIP3    H270115   6.344   3.265  12.404 -0.3561  3.3744  0.4807
16234TIP3   OH270116   2.651   1.956  12.508  0.0309  0.2956  0.1042
16234TIP3    H170117   2.556   1.950  12.516  0.0469  0.8795  0.9346
16234TIP3    H270118   2.679   1.869  12.480 -0.9012  0.6159 -2.0011
16235TIP3   OH270119   3.699   4.046  13.357 -0.7401 -0.9536  0.0997
16235TIP3    H170120   3.668   3.979  13.418 -0.7986 -1.6681 -0.7044
16235TIP3    H270121   3.636   4.045  13.285 -0.1874 -0.7326 -0.3978
16236TIP3   OH270122   2.920   1.296   0.496  0.3498 -0.0247  0.1662
16236TIP3    H170123   2.973   1.374   0.479 -0.8839  0.7272 -0.4486
16236TIP3    H270124   2.928   1.243   0.417 -2.8627  1.9696 -1.7024
16237TIP3   OH270125   2.844   2.353   4.782  0.0867 -0.0571  0.0838
16237TIP3    H170126   2.897   2.281   4.749  0.4146  0.1421  0.1673
16237TIP3    H270127   2.797   2.387   4.706 -0.3623 -0.5999  0.1113
16238TIP3   OH270128   3.779   2.784  13.608  0.5137 -0.1362 -0.3576
16238TIP3    H170129   3.704   2.828  13.570  2.1691  1.5133 -1.9247
16238TIP3    H270130   3.800   2.835  13.687  0.7378  0.2044 -0.6325
16239TIP3   OH270131   3.313   0.201  13.074 -0.1259 -0.5322 -0.1477
16239TIP3    H170132   3.407   0.191  13.055 -0.0318 -0.6704  0.3568
16239TIP3    H270133   3.309   0.201  13.170 -0.5773  0.1290 -0.1672
16240TIP3   OH270134   4.839   6.139  11.004  0.2206 -0.1045  0.2126
16240TIP3    H170135   4.861   6.119  10.913 -0.2111 -0.0251  0.0845
16240TIP3    H270136   4.768   6.203  10.997 -0.3076 -0.6363  0.6030
16241TIP3   OH270137   0.218   4.547  13.415 -0.8160  0.6810  0.6637
16241TIP3    H170138   0.230   4.481  13.483 -1.4860 -0.8909 -0.6653
16241TIP3    H270139   0.201   4.628  13.462 -1.3197 -0.3779  2.3621
16242TIP3   OH270140   0.690   3.762   2.313 -0.3910 -0.5634  0.1968
16242TIP3    H170141   0.730   3.675   2.300  0.0746 -0.1554 -1.3656
16242TIP3    H270142   0.720   3.813   2.238  0.4337  1.3863  1.7893
16243TIP3   OH270143   6.114   2.029   4.584 -0.7148 -0.0183  0.5742
16243TIP3    H170144   6.161   1.949   4.605 -2.5548 -1.4367 -0.3301
16243TIP3    H270145   6.104   2.075   4.668  1.8158  0.1710  0.8479
16244TIP3   OH270146   5.768   5.332  17.332 -0.0480  0.0957  0.0212
16244TIP3    H170147   5.720   5.401  17.285  0.0149  0.1396  0.0208
16244TIP3    H270148   5.818   5.379  17.398 -0.2680  0.0178  0.2440
16245TIP3   OH270149   5.889   4.856   1.810  0.0130 -0.1210 -0.7667
16245TIP3    H170150   5.929   4.915   1.874  1.4455 -0.3551 -1.4140
16245TIP3    H270151   5.813   4.904   1.777  0.3423  0.7728 -0.2496
16246TIP3   OH270152   6.520   4.416   3.366  0.7553  0.1549 -0.3339
16246TIP3    H170153   6.429   4.428   3.392  1.2273  1.4938  0.8629
16246TIP3    H270154   6.561   4.372   3.441  0.6303 -2.7131 -1.8228
16247TIP3   OH270155   4.751   2.494   1.016 -0.0375  0.0781  0.0052
16247TIP3    H170156   4.829   2.508   1.070 -0.1471  0.8102 -0.0190
16247TIP3    H270157   4.786   2.463   0.932  0.3722  2.0421 -0.5929
16248TIP3   OH270158   1.811   2.490  10.942 -0.0706  0.6609  0.0268
16248TIP3    H170159   1.756   2.417  10.915 -1.7576  2.2870 -1.1717
16248TIP3    H270160   1.840   2.530  10.860  1.4938  0.8890  0.6520
16249TIP3   OH270161   4.192   5.708   3.874 -0.0595 -0.3562  0.6122
16249TIP3    H170162   4.268   5.727   3.819  1.4882 -1.0450  2.4166
16249TIP3    H270163   4.131   5.780   3.857  0.9010  0.1191 -1.0107
16250TIP3   OH270164   4.235   4.074  13.381  0.2856  0.7297 -0.7973
16250TIP3    H170165   4.208   3.982  13.380  1.9201  0.1861 -0.1185
16250TIP3    H270166   4.295   4.082  13.307  1.0654  0.9248 -0.1592
16251TIP3   OH270167   3.784   1.184   2.369  0.1407 -0.1674  0.5310
16251TIP3    H170168   3.806   1.115   2.431 -1.1815  0.0576  1.2933
16251TIP3    H270169   3.688   1.187   2.369  0.0799 -0.3536 -1.7622
16252TIP3   OH270170   3.442   0.086  12.501  1.1201 -0.4389 -0.4794
16252TIP3    H170171   3.521   0.115  12.547  0.7796 -1.1875  0.6045
16252TIP3    H270172   3.398   0.167  12.475  1.5791 -0.0062  0.0730
16253TIP3   OH270173   6.087   5.088   4.743 -0.4300 -0.2645  0.2934
16253TIP3    H170174   6.071   5.157   4.809  0.4328  0.8952 -0.6633
16253TIP3    H270175   6.005   5.039   4.740 -0.5311 -0.2828  2.1480
16254TIP3   OH270176   1.711   1.912   5.207 -0.5600 -0.0248  0.4931
16254TIP3    H170177   1.678   1.826   5.234 -1.5072  0.2962  0.3842
16254TIP3    H270178   1.802   1.913   5.237 -0.2718 -1.3937 -0.2546
16255TIP3   OH270179   4.799   6.329  17.219 -0.4420  0.2569 -0.4269
16255TIP3    H170180   4.740   6.275  17.166  0.3033 -0.9981 -0.0344
16255TIP3    H270181   4.761   6.326  17.307  1.4138 -2.6757  0.4364
16256TIP3   OH270182   6.538   3.629   3.897  0.0974  0.2195  0.3927
16256TIP3    H170183   6.572   3.554   3.946  0.6428 -0.6800 -1.2771
16256TIP3    H270184   6.607   3.695   3.902 -0.3938  0.6695  1.8881
16257TIP3   OH270185   6.343   0.281   0.632  0.7865 -0.4279  0.3737
16257TIP3    H170186   6.310   0.339   0.700 -0.5425  0.6355 -1.0983
16257TIP3    H270187   6.338   0.193   0.670  2.7227  0.3139  2.6115
16258TIP3   OH270188   2.853   4.333  16.910 -0.7295 -0.0421  0.4141
16258TIP3    H170189   2.923   4.396  16.895 -0.7767 -0.0137  0.3214
16258TIP3    H270190   2.822   4.309  16.823 -0.3273 -0.6260  0.4230
16259TIP3   OH270191   5.989   5.032   3.510 -0.4897 -0.0173 -0.5479
16259TIP3    H170192   5.997   5.079   3.427 -0.1047  1.2131  0.1615
16259TIP3    H270193   6.058   4.966   3.507  1.1185  1.5720 -0.2475
16260TIP3   OH270194   4.872   5.863  10.134 -0.8785 -0.2370 -0.2166
16260TIP3    H170195   4.907   5.812  10.206 -2.2666  0.7587  1.2187
16260TIP3    H270196   4.925   5.942  10.132 -1.4623  0.1813  0.3856
16261TIP3   OH270197   6.246   1.114  16.312 -0.5664 -0.5390  0.6997
16261TIP3    H170198   6.273   1.049  16.247  1.0684 -0.4939  1.2717
16261TIP3    H270199   6.269   1.198  16.273 -0.1224 -0.4804  1.0721
16262TIP3   OH270200   5.008   0.099   3.619 -0.2958 -0.2318  0.3053
16262TIP3    H170201   5.023   0.005   3.613  1.4318 -0.0111  0.6423
16262TIP3    H270202   5.015   0.119   3.712  0.6696  0.4099  0.1088
16263TIP3   OH270203   3.432   2.229  11.355 -0.0676 -0.1939  0.7222
16263TIP3    H170204   3.435   2.192  11.267  1.9458 -0.8017  0.9825
16263TIP3    H270205   3.435   2.153  11.413 -2.1977  0.1589  1.3732
16264TIP3   OH270206   4.793   0.473  14.898 -0.4725  0.3010  0.0481
16264TIP3    H170207   4.803   0.420  14.819  0.3178  2.6516 -1.5483
16264TIP3    H270208   4.799   0.410  14.970  0.1231 -1.7826 -1.7009
16265TIP3   OH270209   2.455   1.306  15.428 -0.1771 -0.2384  0.0562
16265TIP3    H170210   2.477   1.376  15.490  0.3749  0.0430 -0.4547
16265TIP3    H270211   2.476   1.225  15.475  0.9868 -0.0066 -0.0427
16266TIP3   OH270212   2.469   6.258   6.803 -0.0976 -0.7407  0.0086
16266TIP3    H170213   2.507   6.340   6.772 -0.6643 -0.6400 -0.4358
16266TIP3    H270214   2.414   6.283   6.877  2.3507 -1.1488  2.1000
16267TIP3   OH270215   6.502   5.248  17.222 -0.0102 -0.1273  0.5683
16267TIP3    H170216   6.475   5.233  17.313 -1.2195 -2.4327 -0.0893
16267TIP3    H270217   6.421   5.270  17.176  0.5555  0.7954 -0.0245
16268TIP3   OH270218   0.615   4.863  17.066  0.6849  0.3109 -0.4193
16268TIP3    H170219   0.637   4.775  17.098  1.6706  0.2809 -1.1625
16268TIP3    H270220   0.698   4.901  17.040  0.0916  0.9181 -1.4895
16269TIP3   OH270221   0.575   3.825   3.385  0.3414 -0.5509 -0.0428
16269TIP3    H170222   0.622   3.743   3.371  0.3006 -0.5479 -0.1983
16269TIP3    H270223   0.483   3.799   3.392  0.0858 -0.3292 -2.0432
16270TIP3   OH270224   0.347   0.247   0.641 -0.1350  0.0182  0.1563
16270TIP3    H170225   0.337   0.159   0.679  0.6059 -0.0924  0.1175
16270TIP3    H270226   0.258   0.274   0.619 -0.2095 -1.8580 -2.3891
16271TIP3   OH270227   6.667   2.906  11.233  0.2269  0.3335  0.3088
16271TIP3    H170228   6.586   2.957  11.229  0.5135  0.8950  1.2172
16271TIP3    H270229   6.659   2.856  11.315  0.1546 -0.7471 -0.3396
16272TIP3   OH270230   2.083   1.688  17.170 -0.4277 -0.1664 -0.4657
16272TIP3    H170231   2.109   1.629  17.241  1.5792 -1.2744 -2.0260
16272TIP3    H270232   2.058   1.631  17.098 -1.6950  0.9357 -0.9383
16273TIP3   OH270233   6.304   2.246   5.256 -0.9492  0.2584 -0.1647
16273TIP3    H170234   6.237   2.217   5.318  0.4004  0.4201  1.4427
16273TIP3    H270235   6.379   2.191   5.274 -1.0811 -1.0481 -3.0702
16274TIP3   OH270236   2.391   3.605  16.319  0.6503  0.7309 -0.1519
16274TIP3    H170237   2.428   3.693  16.308  0.5753  0.8234  0.2840
16274TIP3    H270238   2.449   3.548  16.269 -0.7875  1.3391 -2.6810
16275TIP3   OH270239   6.522   2.260   1.674 -0.1595  0.5051 -0.8531
16275TIP3    H170240   6.592   2.297   1.620 -0.1764 -0.4260 -1.5483
16275TIP3    H270241   6.528   2.165   1.659  1.6633 -0.1649  2.9217
16276TIP3   OH270242   5.580   4.129   5.794 -0.1163  0.4563  0.1812
16276TIP3    H170243   5.501   4.156   5.843 -1.0257  0.9420 -1.4804
16276TIP3    H270244   5.597   4.202   5.735  0.0477 -0.7159 -1.2740
16277TIP3   OH270245   3.244   6.233  16.571 -0.0736  0.2749  0.2036
16277TIP3    H170246   3.188   6.156  16.575  0.7323 -0.3667 -0.4904
16277TIP3    H270247   3.277   6.235  16.481  1.1388  0.5297  0.6310
16278TIP3   OH270248   3.919   0.124   0.238 -0.6067 -0.2931  0.6757
16278TIP3    H170249   3.830   0.129   0.203 -0.4173  2.0174  0.4246
16278TIP3    H270250   3.907   0.130   0.333 -0.7075  0.5479  0.6171
16279TIP3   OH270251   2.259   1.378   1.850 -0.1057  0.3097 -0.5037
16279TIP3    H170252   2.310   1.298   1.864 -0.0138  0.2293 -1.2324
16279TIP3    H270253   2.307   1.446   1.898  0.6391  0.2135 -1.0963
16280TIP3   OH270254   3.185   1.517   1.256 -1.0758 -0.4897 -0.5542
16280TIP3    H170255   3.141   1.431   1.255 -3.4243  0.5437  1.4679
16280TIP3    H270256   3.189   1.543   1.164 -0.1922 -2.7739 -1.2320
16281TIP3   OH270257   5.425   1.803  12.309  0.1369  0.2922  0.0617
16281TIP3    H170258   5.421   1.707  12.319 -1.2012  0.2965 -0.1883
16281TIP3    H270259   5.499   1.818  12.250 -0.0575 -0.6436 -0.4490
16282TIP3   OH270260   3.032   6.039   0.791 -0.2821  0.2885 -0.5296
16282TIP3    H170261   3.046   6.133   0.778 -3.9731  0.7526 -2.6741
16282TIP3    H270262   3.030   6.003   0.703 -1.1360 -1.3867  0.1298
16283TIP3   OH270263   1.890   3.268   0.798  0.9818 -0.3330  0.0625
16283TIP3    H170264   1.963   3.266   0.735  2.0225  1.9071  1.1038
16283TIP3    H270265   1.904   3.348   0.848 -2.7596  0.7141 -0.3025
16284TIP3   OH270266   2.448   4.143   4.078 -0.2342  0.2417  0.0715
16284TIP3    H170267   2.521   4.119   4.020  0.7508  1.4839  0.7355
16284TIP3    H270268   2.387   4.191   4.021 -0.3791 -0.5013 -0.4124
16285TIP3   OH270269   6.183   5.389   1.477  0.2127 -0.2458 -0.1280
16285TIP3    H170270   6.197   5.379   1.383  0.0537  1.6760 -0.4060
16285TIP3    H270271   6.270   5.403   1.514  0.4668 -2.5504  0.2925
16286TIP3   OH270272   5.481   5.381   6.357  0.1956 -0.0085  0.7565
16286TIP3    H170273   5.387   5.396   6.349  0.2065 -0.7679 -4.0434
16286TIP3    H270274   5.489   5.290   6.386 -0.6079 -0.1895  0.4304
16287TIP3   OH270275   1.276   4.495  10.999 -0.0886  0.0504 -0.7476
16287TIP3    H170276   1.324   4.435  10.942 -0.3588  0.2368 -1.1755
16287TIP3    H270277   1.188   4.498  10.962 -0.4987 -0.4481  0.1472
16288TIP3   OH270278   5.056   2.503  11.561 -0.0088  0.0458  0.5327
16288TIP3    H170279   5.061   2.467  11.649  0.6797  0.2095  0.5627
16288TIP3    H270280   5.127   2.568  11.556  0.8425 -0.9093 -0.5595
16289TIP3   OH270281   0.403   1.045  13.791  0.1834  0.5243 -0.4410
16289TIP3    H170282   0.407   1.041  13.695 -2.0534 -0.8995 -0.5446
16289TIP3    H270283   0.435   0.959  13.820  0.2902  0.7353  0.0773
16290TIP3   OH270284   5.315   1.445   0.251 -0.3848 -0.0176  0.3048
16290TIP3    H170285   5.402   1.469   0.281 -0.2503  1.1940 -0.9815
16290TIP3    H270286   5.256   1.479   0.319  0.0254  0.8622  0.2299
16291TIP3   OH270287   3.431   0.592   0.231 -0.2465  0.4493 -0.4575
16291TIP3    H170288   3.444   0.659   0.163 -0.1380 -0.0617 -0.9441
16291TIP3    H270289   3.390   0.519   0.186 -0.8264  0.3715  0.1827
16292TIP3   OH270290   0.010   0.143  14.083  0.3878 -0.2191 -0.7078
16292TIP3    H170291  -0.056   0.210  14.071  1.3504  0.8193 -0.3688
16292TIP3    H270292   0.086   0.190  14.117  0.7124 -1.6503  0.6454
16293TIP3   OH270293   2.358   2.693   3.606 -0.0666  0.1950 -0.4941
16293TIP3    H170294   2.423   2.623   3.613 -0.5007 -0.0536  1.4620
16293TIP3    H270295   2.388   2.746   3.532  1.7496 -0.5182 -0.3055
16294TIP3   OH270296   0.070   3.327  16.763  0.4169  0.1170  0.0996
16294TIP3    H170297  -0.014   3.365  16.786  0.2290  1.2201 -2.1815
16294TIP3    H270298   0.048   3.246  16.717  0.7097 -0.6995  1.3361
16295TIP3   OH270299   0.468   3.466   2.361 -0.6494  0.0800  0.0245
16295TIP3    H170300   0.561   3.455   2.345 -0.7931  0.3312 -1.0689
16295TIP3    H270301   0.443   3.542   2.308 -1.5155 -0.0917  0.1638
16296TIP3   OH270302   2.471   0.465   3.261 -0.6375  0.1781 -0.4380
16296TIP3    H170303   2.514   0.483   3.344  0.9561  0.0183 -1.1805
16296TIP3    H270304   2.403   0.402   3.282 -1.1643  1.1646  0.9491
16297TIP3   OH270305   3.515   5.644  14.969  0.2206  0.4935  0.4118
16297TIP3    H170306   3.471   5.654  14.885  0.8120  0.0524  0.0382
16297TIP3    H270307   3.559   5.727  14.983 -0.6528  0.9081  0.7491
16298TIP3   OH270308   0.020   5.988   1.148 -0.2870  0.1261 -1.5924
16298TIP3    H170309   0.088   6.030   1.200 -1.3970 -0.5735  0.5279
16298TIP3    H270310   0.067   5.930   1.089  0.9984 -1.2308  0.6302
16299TIP3   OH270311   1.589   2.947  12.353 -0.0980 -0.3606  0.2375
16299TIP3    H170312   1.517   2.925  12.294  0.7909  0.0415 -1.0422
16299TIP3    H270313   1.633   2.863  12.369 -0.8551 -0.6163  1.0679
16300TIP3   OH270314   0.535   2.319  14.166 -0.1728 -0.3374  0.1830
16300TIP3    H170315   0.444   2.311  14.195 -0.9507  0.8439 -1.6821
16300TIP3    H270316   0.575   2.380  14.228 -0.1374 -2.1107  1.9883
16301TIP3   OH270317   6.559   1.650  15.452  0.2293 -0.2864  0.1872
16301TIP3    H170318   6.641   1.603  15.438  0.2877 -0.0683 -0.2026
16301TIP3    H270319   6.550   1.654  15.548 -0.9883 -3.1918  0.3016
16302TIP3   OH270320   0.655   6.729   5.396 -0.3249  0.1356 -0.0681
16302TIP3    H170321   0.708   6.804   5.424 -1.6040  2.0186 -2.2676
16302TIP3    H270322   0.711   6.681   5.336 -0.2425  0.6698 -0.4300
16303TIP3   OH270323   2.187   1.025   0.658 -0.0359  0.6009 -0.5781
16303TIP3    H170324   2.226   1.113   0.648 -1.2770  1.1380 -0.8081
16303TIP3    H270325   2.238   0.970   0.599  1.1546  1.0280  0.0070
16304TIP3   OH270326   4.044   5.416  14.825  0.9340  0.3081  0.3977
16304TIP3    H170327   3.991   5.384  14.898  0.1025  2.0233  0.5938
16304TIP3    H270328   4.081   5.337  14.786 -0.4951 -0.8316  1.2350
16305TIP3   OH270329   5.813   6.155  11.156 -0.8349  0.2729  0.2957
16305TIP3    H170330   5.730   6.120  11.124 -0.8038  0.4126  0.0565
16305TIP3    H270331   5.876   6.130  11.089 -0.2238 -1.8698  1.5670
16306TIP3   OH270332   3.972   4.983  13.754 -0.0040  0.5916 -0.3206
16306TIP3    H170333   3.902   4.968  13.690  0.7081  1.4161 -1.3309
16306TIP3    H270334   3.994   5.076  13.744  1.4243  0.2839 -0.2333
16307TIP3   OH270335   5.049   2.393   3.140 -0.3240  0.0331 -0.1326
16307TIP3    H170336   5.087   2.481   3.129  0.6021 -0.4149 -0.6557
16307TIP3    H270337   5.018   2.391   3.230 -0.4929  0.9526 -0.1588
16308TIP3   OH270338   4.890   3.608   3.651  0.3354  0.5752  0.3893
16308TIP3    H170339   4.916   3.544   3.585  1.0196 -2.0083  2.9485
16308TIP3    H270340   4.796   3.621   3.636 -0.0498 -1.8236  0.3031
16309TIP3   OH270341   6.761   6.236  14.568  0.5810 -0.0493  0.7795
16309TIP3    H170342   6.788   6.317  14.612  1.3273 -0.4103  0.9996
16309TIP3    H270343   6.803   6.241  14.482 -0.5362  0.4575  0.2341
16310TIP3   OH270344   5.445   1.961  12.938 -0.0096  0.5510  0.4288
16310TIP3    H170345   5.537   1.987  12.935 -0.2641  1.4522  0.0310
16310TIP3    H270346   5.397   2.043  12.953 -0.8688  0.3790 -1.1178
16311TIP3   OH270347   5.103   2.991  14.301  0.2154  0.6949  0.0158
16311TIP3    H170348   5.175   2.935  14.331  1.0731  2.2440  0.9840
16311TIP3    H270349   5.143   3.077  14.288 -0.8196  0.8965 -2.5284
16312TIP3   OH270350   3.453   3.963   4.917  0.0956  0.1825  0.3098
16312TIP3    H170351   3.485   4.044   4.876  0.4977  0.8485  1.8916
16312TIP3    H270352   3.397   3.924   4.850  0.1742  1.5863 -0.6317
16313TIP3   OH270353   5.059   1.924  11.604  0.2390  0.2374 -0.4085
16313TIP3    H170354   5.111   1.865  11.549 -1.9515 -1.7271 -0.5387
16313TIP3    H270355   4.977   1.877  11.619 -0.7976  2.3939  1.3049
16314TIP3   OH270356   0.288   4.573  12.735  0.0956 -0.0851  0.2620
16314TIP3    H170357   0.223   4.643  12.726  0.5339  0.2564 -0.3995
16314TIP3    H270358   0.240   4.500  12.774 -0.1194  0.9350  2.0230
16315TIP3   OH270359   2.153   0.303   3.475 -0.6644 -0.2743  0.4150
16315TIP3    H170360   2.119   0.244   3.542 -1.2581 -1.5541 -0.9382
16315TIP3    H270361   2.208   0.247   3.420 -0.7115  0.5912 -0.5430
16316TIP3   OH270362   5.092   2.435  16.905 -0.7137  0.2000  0.6456
16316TIP3    H170363   5.108   2.464  16.994  1.9692  2.5936 -0.4470
16316TIP3    H270364   5.162   2.371  16.888 -2.0672 -1.3514  0.6239
16317TIP3   OH270365   1.953   0.575   5.929 -0.1843  0.2183 -0.4645
16317TIP3    H170366   1.887   0.644   5.942  1.2356  1.4513  0.4414
16317TIP3    H270367   1.979   0.585   5.837 -2.4195 -1.4058 -1.3702
16318TIP3   OH270368   0.890   4.500  12.999  0.6916  0.3670 -0.7497
16318TIP3    H170369   0.916   4.590  12.981  0.2480  0.8517  0.8356
16318TIP3    H270370   0.878   4.497  13.094  2.9789 -1.9582 -0.4176
16319TIP3   OH270371   4.074   3.391  11.261  0.6116 -0.0706  0.2592
16319TIP3    H170372   4.041   3.396  11.172 -0.5835 -0.4925  0.6541
16319TIP3    H270373   4.093   3.298  11.274 -1.7793 -0.5011  1.2764
16320TIP3   OH270374   3.622   5.898  11.981 -0.2253 -0.0696 -0.6181
16320TIP3    H170375   3.606   5.877  12.073 -1.3662  0.6209 -0.6375
16320TIP3    H270376   3.699   5.956  11.982  0.2278 -0.6681 -0.1836
16321TIP3   OH270377   2.891   4.981   4.469 -0.4793  0.6058 -0.6643
16321TIP3    H170378   2.809   4.932   4.481 -1.1238  1.9864  0.9607
16321TIP3    H270379   2.916   5.007   4.558  2.1733 -0.4270 -1.0350
16322TIP3   OH270380   6.081   2.513   3.563  0.2354  0.2149 -0.0644
16322TIP3    H170381   6.172   2.533   3.586  0.4992 -1.2579  0.2858
16322TIP3    H270382   6.065   2.427   3.602 -1.0055  0.0275 -0.9312
16323TIP3   OH270383   5.309   4.905  12.963  0.0732  0.3889  0.1395
16323TIP3    H170384   5.372   4.976  12.965 -0.3142  0.7829 -1.0957
16323TIP3    H270385   5.286   4.891  13.055  1.8645  0.2913  0.6121
16324TIP3   OH270386   4.404   0.341   4.654 -0.0703  0.1309  0.4495
16324TIP3    H170387   4.337   0.287   4.613  0.6543 -2.2295  2.1324
16324TIP3    H270388   4.465   0.362   4.584 -0.2750 -1.4588 -0.2477
16325TIP3   OH270389   5.942   2.996   5.996  0.3254 -0.5287  0.7611
16325TIP3    H170390   5.906   2.916   5.957  2.8389 -0.4408 -2.1012
16325TIP3    H270391   5.955   2.974   6.089 -0.1898 -2.9924  0.3149
16326TIP3   OH270392   4.360   5.720  14.000 -0.3818 -0.7267  0.3797
16326TIP3    H170393   4.297   5.775  13.953  1.6866  0.7216 -0.8603
16326TIP3    H270394   4.359   5.637  13.951 -0.9302 -0.5342  0.0483
16327TIP3   OH270395   5.117   1.228  15.881  0.4523 -0.0951  0.0425
16327TIP3    H170396   5.144   1.138  15.901 -0.2407  0.3377  3.4760
16327TIP3    H270397   5.055   1.219  15.808 -1.0575 -2.6433  1.4971
16328TIP3   OH270398   2.544   2.442  16.091  0.3644  0.1785 -0.1890
16328TIP3    H170399   2.487   2.433  16.015  0.7708 -0.7962 -0.4032
16328TIP3    H270400   2.558   2.352  16.121 -0.7946  0.6063  1.8086
16329TIP3   OH270401   2.116   5.028   1.628  0.6089  0.1073  0.3029
16329TIP3    H170402   2.114   5.025   1.533 -0.5684  0.0207  0.3161
16329TIP3    H270403   2.203   4.995   1.651  1.3787  1.2917 -0.7688
16330TIP3   OH270404   5.295   0.629  13.630 -0.4649  0.1231  0.0533
16330TIP3    H170405   5.239   0.654  13.703  0.2916  1.1626  0.2988
16330TIP3    H270406   5.322   0.712  13.591  1.2367 -0.3150  0.2094
16331TIP3   OH270407   5.170   5.164  11.448  0.3507  0.1734  0.4300
16331TIP3    H170408   5.109   5.157  11.375 -0.6855 -0.4583  1.3297
16331TIP3    H270409   5.149   5.248  11.489  0.6935  0.3640  0.2208
16332TIP3   OH270410   2.251   6.677  17.325 -0.1667  0.1952  0.5007
16332TIP3    H170411   2.236   6.772  17.324  0.5994  0.3303 -0.7257
16332TIP3    H270412   2.320   6.663  17.260 -0.9319 -1.3128 -0.0354
16333TIP3   OH270413   1.816   0.216   2.541  0.9302  0.2345 -0.5936
16333TIP3    H170414   1.813   0.176   2.628 -0.4648 -0.8761 -1.1213
16333TIP3    H270415   1.835   0.143   2.482 -0.4486  0.5394 -1.4502
16334TIP3   OH270416   5.411   5.429  16.653 -0.0761  0.2370 -0.2846
16334TIP3    H170417   5.500   5.400  16.636 -0.0113 -0.3864  0.9885
16334TIP3    H270418   5.379   5.462  16.569  0.4532 -1.9276 -1.3837
16335TIP3   OH270419   3.834   5.969  10.613  0.0987  0.2004 -0.2222
16335TIP3    H170420   3.849   6.003  10.701  1.4849  0.6243 -0.5964
16335TIP3    H270421   3.889   6.024  10.557 -0.6420 -0.1665 -1.3363
16336TIP3   OH270422   5.301   4.242  13.528  0.1262 -1.3137 -0.7271
16336TIP3    H170423   5.375   4.295  13.559 -0.4973 -1.5665  1.4043
16336TIP3    H270424   5.253   4.300  13.469 -0.7769  0.7950  1.8747
16337TIP3   OH270425   4.290   3.226  17.262  0.1340  0.1356  0.2518
16337TIP3    H170426   4.221   3.292  17.254 -0.7981 -0.8896 -0.4549
16337TIP3    H270427   4.328   3.241  17.349 -3.0501 -1.1792  2.0610
16338TIP3   OH270428   3.705   4.382  16.206 -0.5529  0.1649 -0.0546
16338TIP3    H170429   3.710   4.361  16.113 -1.7934  1.0152 -0.3341
16338TIP3    H270430   3.794   4.409  16.229 -0.5365  1.3048 -1.3442
16339TIP3   OH270431   1.919   3.114  13.919 -0.3564  0.0080  0.0196
16339TIP3    H170432   1.945   3.054  13.989 -1.3778 -0.3208  0.1315
16339TIP3    H270433   1.843   3.161  13.955 -0.3493  0.4526 -0.5435
16340TIP3   OH270434   4.118   4.974   4.951  0.3422 -0.5820 -0.4563
16340TIP3    H170435   4.057   4.971   4.878 -0.5481 -0.7780  0.2822
16340TIP3    H270436   4.133   5.067   4.967  2.0347 -0.5150 -2.0777
16341TIP3   OH270437   4.867   4.059  11.204 -0.1578 -0.4811 -0.4082
16341TIP3    H170438   4.850   3.986  11.145  1.3695 -0.5836 -0.7815
16341TIP3    H270439   4.785   4.072  11.251 -0.4992 -2.3687 -0.3983
16342TIP3   OH270440   6.679   3.444  16.292  0.2957  0.0278 -0.1618
16342TIP3    H170441   6.690   3.528  16.246 -3.6197 -0.5860 -2.7084
16342TIP3    H270442   6.681   3.379  16.222  0.6266 -1.7556  1.4561
16343TIP3   OH270443   2.454   4.234   5.466  0.4561 -0.3664  0.8320
16343TIP3    H170444   2.462   4.215   5.372 -2.0403  1.9760  0.0247
16343TIP3    H270445   2.389   4.170   5.497 -0.9470  0.7011  0.2209
16344TIP3   OH270446   5.371   5.836  13.067 -0.0341  0.5410  0.3599
16344TIP3    H170447   5.360   5.913  13.122  1.7027  2.3916 -1.6566
16344TIP3    H270448   5.361   5.762  13.127 -1.6228  2.2934  2.4260
16345TIP3   OH270449   0.141   3.098  12.995 -0.4192 -0.1937  0.0991
16345TIP3    H170450   0.200   3.027  12.970 -0.7550 -0.3187 -0.3365
16345TIP3    H270451   0.084   3.060  13.061 -0.7939 -0.4115 -0.3525
16346TIP3   OH270452   3.899   2.991  15.725  0.1390  0.0212  0.0939
16346TIP3    H170453   3.887   3.028  15.638 -1.7578 -2.2663 -0.7459
16346TIP3    H270454   3.834   2.920  15.729  1.3076 -1.0052  2.7503
16347TIP3   OH270455   5.537   2.318  15.347  0.2831 -0.6168 -0.3581
16347TIP3    H170456   5.612   2.376  15.335  0.6493 -1.0143 -0.0337
16347TIP3    H270457   5.547   2.251  15.280 -0.0453 -0.4045 -0.6209
16348TIP3   OH270458   2.934   1.995  13.987 -0.4235 -0.0372 -0.0374
16348TIP3    H170459   2.902   1.920  13.936 -1.2817 -0.4152  1.0140
16348TIP3    H270460   3.012   2.025  13.939 -0.0828 -1.5685 -0.5073
16349TIP3   OH270461   3.351   6.607   4.070  0.1549 -0.0792 -0.0503
16349TIP3    H170462   3.274   6.619   4.127  0.3060  0.9776 -0.0429
16349TIP3    H270463   3.426   6.616   4.129  0.2967 -0.7558 -0.1205
16350TIP3   OH270464   1.570   5.777  12.445  0.0522  0.7451 -0.2656
16350TIP3    H170465   1.640   5.712  12.449  0.1197  0.7947 -0.6004
16350TIP3    H270466   1.506   5.747  12.510 -0.0497  0.1776 -0.6170
16351TIP3   OH270467   0.340   6.763  12.836  0.7434 -0.4309  0.6587
16351TIP3    H170468   0.273   6.697  12.853  0.9745 -0.6941  0.5601
16351TIP3    H270469   0.313   6.839  12.889 -0.4840  0.0437 -0.5785
16352TIP3   OH270470   5.338   3.593  15.268 -0.0277 -1.1012 -0.5260
16352TIP3    H170471   5.418   3.606  15.218 -0.8974 -2.7585 -2.5169
16352TIP3    H270472   5.280   3.663  15.239  0.6730  0.2137  1.0541
16353TIP3   OH270473   0.826   6.281   0.105 -0.2512 -0.4397 -0.1300
16353TIP3    H170474   0.794   6.367   0.079  0.6993  0.5301  1.6676
16353TIP3    H270475   0.920   6.293   0.116 -0.1164 -1.6934  0.2147
16354TIP3   OH270476   2.618   0.256   2.267  0.4784 -0.5041 -0.1892
16354TIP3    H170477   2.707   0.281   2.241  0.7179 -0.7085  0.4014
16354TIP3    H270478   2.588   0.330   2.320  0.6532 -0.8266  0.3772
16355TIP3   OH270479   2.512   6.503   6.718  0.3865 -0.0278  0.3028
16355TIP3    H170480   2.552   6.574   6.767  0.1914  0.2860  0.0102
16355TIP3    H270481   2.511   6.533   6.627  2.2369 -1.2627 -0.1903
16356TIP3   OH270482   4.952   3.638  13.468  0.0644  0.2996 -0.4582
16356TIP3    H170483   4.962   3.545  13.449  2.9753  0.5779 -0.7738
16356TIP3    H270484   4.961   3.681  13.383 -1.6241  0.9059 -0.3738
16357TIP3   OH270485   0.402   3.712   2.229 -0.3955  0.1288  0.1603
16357TIP3    H170486   0.481   3.760   2.252 -0.7982  0.0003  2.0060
16357TIP3    H270487   0.347   3.717   2.307 -0.7865 -2.6132  0.1728
16358TIP3   OH270488   6.409   0.360  12.942  0.1563  0.1761  0.2571
16358TIP3    H170489   6.402   0.299  12.869  1.3253 -0.2318  0.4656
16358TIP3    H270490   6.336   0.337  13.000 -0.8099  0.5318 -0.7775
16359TIP3   OH270491   3.500   2.067   0.442 -0.8880  0.5126 -0.4041
16359TIP3    H170492   3.562   2.016   0.390  0.1721  2.1831 -0.8312
16359TIP3    H270493   3.544   2.081   0.526 -1.4796  0.1274 -0.0157
16360TIP3   OH270494   2.652   3.493   1.956  0.3890 -0.1304 -0.0248
16360TIP3    H170495   2.699   3.514   2.036  1.8887 -0.2210 -0.8432
16360TIP3    H270496   2.721   3.477   1.891 -0.7420 -2.1071 -0.8153
16361TIP3   OH270497   2.535   2.499   3.612  0.2660  0.4277  0.1322
16361TIP3    H170498   2.629   2.511   3.628  1.0004 -2.7736 -1.0069
16361TIP3    H270499   2.507   2.437   3.680 -0.6311  0.0631 -0.5582
16362TIP3   OH270500   6.647   6.628  14.913 -0.4443 -0.4542  0.0527
16362TIP3    H170501   6.584   6.589  14.973 -0.8939  0.6999  0.3543
16362TIP3    H270502   6.605   6.707  14.882  0.8677  0.3712  0.2900
16363TIP3   OH270503   3.011   5.870  15.517 -0.5084  0.1853  0.1525
16363TIP3    H170504   2.957   5.794  15.539 -1.8506  1.2446  0.6454
16363TIP3    H270505   2.949   5.944  15.515  0.8919  1.4248  0.6476
16364TIP3   OH270506   1.017   3.544   1.852  0.7416 -0.5604  0.2871
16364TIP3    H170507   1.060   3.535   1.767 -0.2001  1.9767 -0.5520
16364TIP3    H270508   0.934   3.497   1.842  0.6529 -0.3103 -0.1964
16365TIP3   OH270509   1.618   5.272  17.203  0.0290  0.4805 -0.2439
16365TIP3    H170510   1.628   5.226  17.287  0.9732 -0.3841 -0.8079
16365TIP3    H270511   1.633   5.204  17.137 -1.7317  0.9241 -1.1415
16366TIP3   OH270512   6.527   2.636   0.321 -0.1436  0.1536  0.4702
16366TIP3    H170513   6.572   2.718   0.343 -0.0275  0.2860 -0.2417
16366TIP3    H270514   6.554   2.575   0.390  0.2814  0.5326  0.6479
16367TIP3   OH270515   1.750   5.909  17.377  0.2485  0.0095  0.3147
16367TIP3    H170516   1.788   5.856  17.307 -1.8501  1.6817 -2.2836
16367TIP3    H270517   1.822   5.965  17.407  1.1328 -0.5903 -0.6133
16368TIP3   OH270518   3.138   5.414  13.285  0.1647  0.3499  0.3082
16368TIP3    H170519   3.203   5.442  13.350  0.4999  1.7723 -0.5890
16368TIP3    H270520   3.121   5.322  13.306 -0.0105  0.8471  2.6055
16369TIP3   OH270521   2.497   6.052  11.488 -0.3225  0.0588 -0.2639
16369TIP3    H170522   2.525   5.975  11.538 -1.0156  0.6545  1.1015
16369TIP3    H270523   2.516   6.030  11.397  1.3138 -0.9290  0.2729
16370TIP3   OH270524   5.548   1.517  12.278 -0.2123  0.4526 -0.3828
16370TIP3    H170525   5.467   1.515  12.226  0.3406  0.2162 -1.2610
16370TIP3    H270526   5.588   1.431  12.263  1.0249  1.1527 -1.3151
16371TIP3   OH270527   5.959   6.487  13.980  0.0691 -0.1413 -0.1425
16371TIP3    H170528   6.016   6.534  13.919 -1.8122  0.9199 -1.1980
16371TIP3    H270529   6.016   6.459  14.051  2.3172 -1.0866 -2.1730
16372TIP3   OH270530   6.382   5.794  11.129 -0.5260 -0.0274 -0.4371
16372TIP3    H170531   6.370   5.857  11.200  1.3053  0.7190 -0.7591
16372TIP3    H270532   6.419   5.845  11.057  3.0949 -1.7549  0.0049
16373TIP3   OH270533   2.884   6.681  13.935 -0.5737  0.5869 -0.4007
16373TIP3    H170534   2.860   6.743  14.004 -1.7782  1.0972 -1.2372
16373TIP3    H270535   2.880   6.732  13.855  2.7660  0.5214 -0.7108
16374TIP3   OH270536   1.708   4.157  17.109  0.0508  0.0973 -0.2329
16374TIP3    H170537   1.694   4.066  17.135 -1.4804  0.6586  1.1250
16374TIP3    H270538   1.802   4.171  17.122  0.4458 -1.4483 -1.1299
16375TIP3   OH270539   4.906   1.263  16.862  0.4940 -0.4747 -0.2697
16375TIP3    H170540   4.906   1.225  16.774 -1.3927  1.7480 -1.3405
16375TIP3    H270541   4.950   1.347  16.852 -1.5452  0.7400  0.3730
16376TIP3   OH270542   4.904   6.599   5.992  0.2391  0.0274  0.8279
16376TIP3    H170543   4.811   6.598   6.016  0.2621 -0.3920  0.9131
16376TIP3    H270544   4.905   6.604   5.897  0.1412  1.2538  0.8775
16377TIP3   OH270545   1.340   3.295  14.339  0.4378  0.0115  0.0293
16377TIP3    H170546   1.384   3.318  14.257  0.7684  0.7264  0.3992
16377TIP3    H270547   1.412   3.271  14.398  0.1702 -0.9234 -0.0141
16378TIP3   OH270548   6.612   6.390   6.063 -0.0210  0.2132  0.7298
16378TIP3    H170549   6.566   6.313   6.028  1.6302 -1.3396  1.7971
16378TIP3    H270550   6.704   6.365   6.063  0.5302  2.0746  1.4626
16379TIP3   OH270551   2.549   5.558  13.414  0.1848 -0.7756  0.3661
16379TIP3    H170552   2.531   5.464  13.416  0.6571 -0.8569  1.6099
16379TIP3    H270553   2.633   5.567  13.459  0.0733  0.2607  0.3830
16380TIP3   OH270554   5.594   3.596   5.975  0.5516 -0.2371  0.1201
16380TIP3    H170555   5.594   3.618   6.068  3.2240  0.5286  0.0169
16380TIP3    H270556   5.569   3.678   5.931  0.9793 -0.1032  0.1187
16381TIP3   OH270557   2.260   4.405  15.515 -0.3428  0.3447  0.7729
16381TIP3    H170558   2.320   4.423  15.587  0.6576  0.7745 -0.1391
16381TIP3    H270559   2.174   4.401  15.556  0.5453 -3.4664  2.6108
16382TIP3   OH270560   1.261   6.572   0.621  0.1840  0.1596  0.4341
16382TIP3    H170561   1.182   6.518   0.612  1.1264 -1.4234  1.1782
16382TIP3    H270562   1.241   6.652   0.572 -1.7242 -0.3494  0.2795
16383TIP3   OH270563   4.534   2.711  13.358  0.0983  0.5712 -0.3705
16383TIP3    H170564   4.562   2.757  13.279 -1.1662 -0.0703 -1.2265
16383TIP3    H270565   4.447   2.746  13.377  0.7229  1.3385  1.2619
16384TIP3   OH270566   6.576   0.602  11.334 -0.0433  0.6553 -0.3146
16384TIP3    H170567   6.663   0.568  11.313 -0.3267  0.2805 -0.8907
16384TIP3    H270568   6.574   0.688  11.293  0.7161  1.4613  1.2400
16385TIP3   OH270569   2.543   4.731   4.239  0.5930 -0.4051 -0.2240
16385TIP3    H170570   2.466   4.683   4.270 -0.3645  1.0017 -0.3527
16385TIP3    H270571   2.564   4.791   4.311 -0.7094  1.7941 -1.5752
16386TIP3   OH270572   0.893   0.437   1.026 -0.4022 -0.4257 -0.3838
16386TIP3    H170573   0.953   0.511   1.018  0.2039 -0.9319 -0.5758
16386TIP3    H270574   0.937   0.377   1.087 -0.2164 -1.2741 -1.3203
16387TIP3   OH270575   2.834   4.767   0.296  0.5612 -0.5539  0.0866
16387TIP3    H170576   2.772   4.706   0.337  0.5075  0.1282  1.0295
16387TIP3    H270577   2.816   4.759   0.202 -1.7996  0.4846  0.3819
16388TIP3   OH270578   0.521   2.565  13.750  0.5395 -0.2469 -0.2487
16388TIP3    H170579   0.546   2.657  13.756  1.8276 -0.5930  0.0644
16388TIP3    H270580   0.519   2.546  13.657  1.8489 -0.2914 -0.2830
16389TIP3   OH270581   5.360   4.194   5.932  0.0526  0.0585 -0.4968
16389TIP3    H170582   5.309   4.265   5.893 -1.3860 -0.5239  0.2584
16389TIP3    H270583   5.330   4.190   6.022 -0.6481 -2.1539 -0.7774
16390TIP3   OH270584   0.590   1.631  14.920 -0.3470 -0.2257  0.2842
16390TIP3    H170585   0.678   1.620  14.957 -1.0610 -1.0031  1.8345
16390TIP3    H270586   0.572   1.549  14.875  0.1606  0.3822 -1.0877
16391TIP3   OH270587   4.674   2.782   3.701 -0.4094  0.2420 -0.0535
16391TIP3    H170588   4.730   2.846   3.744  0.8275 -0.3885 -0.6674
16391TIP3    H270589   4.699   2.698   3.740 -2.0537  0.1147  0.7954
16392TIP3   OH270590   5.116   4.874  16.064  0.0747 -0.1461  0.1747
16392TIP3    H170591   5.160   4.921  15.993 -0.6073  0.2043 -0.0219
16392TIP3    H270592   5.107   4.938  16.134 -0.6296 -0.0445  0.0001
16393TIP3   OH270593   2.554   0.157   2.897 -0.0809 -0.9932 -0.1263
16393TIP3    H170594   2.516   0.227   2.949  0.4161 -1.3029  0.6767
16393TIP3    H270595   2.648   0.178   2.893  0.1204 -1.7449  0.3606
16394TIP3   OH270596   5.953   2.457  14.334  0.4320 -0.8207  0.5399
16394TIP3    H170597   5.967   2.487  14.423 -1.4594 -0.6725  0.8250
16394TIP3    H270598   6.010   2.512  14.280 -0.8090  1.3217  1.3328
16395TIP3   OH270599   6.031   1.939  12.656  0.2087  0.2579  0.3204
16395TIP3    H170600   6.068   1.897  12.734  0.6266  0.5110  0.2625
16395TIP3    H270601   6.057   2.031  12.663 -0.4968  0.4620  0.3229
16396TIP3   OH270602   3.188   5.295   4.678 -0.3697  0.1564 -0.8890
16396TIP3    H170603   3.235   5.241   4.742 -0.9419 -0.5290 -1.0282
16396TIP3    H270604   3.192   5.384   4.714 -1.6327 -0.3699  0.7194
16397TIP3   OH270605   4.713   6.254   1.736 -0.2473 -0.0094  0.3538
16397TIP3    H170606   4.669   6.252   1.651 -0.2706  2.7830  0.1907
16397TIP3    H270607   4.784   6.317   1.724  0.5804 -0.5661  2.0559
16398TIP3   OH270608   5.532   3.969  14.337  0.5275  0.2417  0.1611
16398TIP3    H170609   5.481   4.031  14.390  1.4013 -0.9343  2.5637
16398TIP3    H270610   5.480   3.889  14.339  0.9612 -0.0478 -0.0947
16399TIP3   OH270611   0.357   0.308   3.874  0.1632  0.4156  0.5039
16399TIP3    H170612   0.318   0.225   3.904  1.4060 -0.6349 -0.6340
16399TIP3    H270613   0.295   0.340   3.808 -0.3761  0.4656  1.0218
16400TIP3   OH270614   4.340   3.588  14.535  0.1084 -0.0813 -0.3319
16400TIP3    H170615   4.289   3.519  14.494 -0.2984 -0.1954  0.3426
16400TIP3    H270616   4.292   3.669  14.517  1.0226  0.1555 -1.8336
16401TIP3   OH270617   4.980   0.626  11.203  0.6055 -0.0258  0.3986
16401TIP3    H170618   4.945   0.635  11.291  0.2214  0.2555  0.2184
16401TIP3    H270619   4.963   0.710  11.160  0.2487 -0.3607 -0.1332
16402TIP3   OH270620   2.653   4.058  14.083  0.2054 -0.1403  0.2948
16402TIP3    H170621   2.658   4.077  13.989 -1.4359  3.3098  0.7224
16402TIP3    H270622   2.559   4.042  14.099  0.5585 -1.3891  1.2750
16403TIP3   OH270623   2.679   2.054  11.128 -0.4894 -0.1031 -0.6393
16403TIP3    H170624   2.765   2.039  11.089 -0.1606 -1.1459  0.4136
16403TIP3    H270625   2.626   1.980  11.098 -0.6580 -0.1151 -0.3128
16404TIP3   OH270626   2.496   2.201   2.666  0.1434 -0.5157  0.3457
16404TIP3    H170627   2.572   2.247   2.631  0.8608 -0.4337  1.9292
16404TIP3    H270628   2.531   2.147   2.737 -1.3588  0.1958  1.6990
16405TIP3   OH270629   5.667   6.258   2.498  0.0913 -0.3324  0.1045
16405TIP3    H170630   5.723   6.210   2.437 -0.6856 -1.1346 -0.0028
16405TIP3    H270631   5.684   6.217   2.583 -0.1012 -0.3790  0.1218
16406TIP3   OH270632   1.235   0.849   5.584  0.1433 -0.0739 -0.3515
16406TIP3    H170633   1.280   0.773   5.547  2.1219  0.8799 -0.0155
16406TIP3    H270634   1.180   0.881   5.512 -0.1769 -1.3669 -0.7193
16407TIP3   OH270635   2.372   3.265   0.655 -0.1771 -0.3112  0.1134
16407TIP3    H170636   2.446   3.279   0.714  1.5420  2.3437 -2.3778
16407TIP3    H270637   2.398   3.190   0.602  0.5883  0.3017 -0.4145
16408TIP3   OH270638   3.930   5.604   5.425  0.0203 -0.1863  0.1400
16408TIP3    H170639   3.924   5.535   5.492  0.2250 -1.5484 -1.1865
16408TIP3    H270640   4.020   5.636   5.432 -0.1982  0.2771  1.0508
16409TIP3   OH270641   3.337   0.394  14.746  0.5244  0.0884 -0.3431
16409TIP3    H170642   3.327   0.309  14.703  1.2673 -0.2812  0.1813
16409TIP3    H270643   3.403   0.440  14.694 -0.6558  0.7926 -1.2629
16410TIP3   OH270644   0.795   0.299  11.368 -0.2999 -0.2983 -0.5603
16410TIP3    H170645   0.848   0.376  11.389 -1.1273  0.1871 -0.1943
16410TIP3    H270646   0.808   0.286  11.274 -0.1577  0.2861 -0.6245
16411TIP3   OH270647   0.291   4.745  17.340 -0.4546  0.4547  0.0886
16411TIP3    H170648   0.260   4.676  17.399  1.0564 -0.4667 -0.1222
16411TIP3    H270649   0.292   4.704  17.254 -0.4556  1.0582 -0.2028
16412TIP3   OH270650   5.295   6.393   5.119 -0.2968 -0.1675  0.3466
16412TIP3    H170651   5.250   6.314   5.090  1.8085 -0.6199 -2.0329
16412TIP3    H270652   5.375   6.361   5.161  0.0503  0.6801  0.3549
16413TIP3   OH270653   0.249   0.389   4.393  0.2259  0.0906 -0.6113
16413TIP3    H170654   0.330   0.440   4.392  1.8976 -2.3319  0.5030
16413TIP3    H270655   0.275   0.303   4.361 -1.9736 -0.7192 -0.3994
16414TIP3   OH270656   1.676   5.039  17.376 -0.7524  0.2073  0.3967
16414TIP3    H170657   1.642   4.994  17.299  1.1522 -0.7202  0.0297
16414TIP3    H270658   1.713   4.969  17.430 -0.5777  1.0269  1.3687
16415TIP3   OH270659   0.319   2.669  12.535 -0.0617  0.1749 -0.4783
16415TIP3    H170660   0.292   2.650  12.445  2.4194  0.6703 -1.4223
16415TIP3    H270661   0.349   2.760  12.532 -2.1374  1.0099  1.4707
16416TIP3   OH270662   3.793   0.919  12.368 -0.4506  0.0836 -0.2228
16416TIP3    H170663   3.762   0.918  12.278  0.3820  1.0722 -0.5394
16416TIP3    H270664   3.801   0.826  12.391 -0.5871 -0.1836 -1.1876
16417TIP3   OH270665   1.690   4.078   2.738  0.1723  0.3817 -0.0148
16417TIP3    H170666   1.703   4.169   2.764  2.3050 -0.0253  0.6186
16417TIP3    H270667   1.677   4.081   2.644 -0.5521  1.3847  0.1046
16418TIP3   OH270668   2.554   3.138  14.557  0.2203 -0.4478  0.1170
16418TIP3    H170669   2.549   3.186  14.639 -1.8725  0.8427 -0.6791
16418TIP3    H270670   2.487   3.178  14.501  1.7362 -1.0775 -2.3380
16419TIP3   OH270671   3.442   3.313  12.996  0.5220 -0.5393 -0.1452
16419TIP3    H170672   3.370   3.337  12.938  1.9281  0.8206 -1.3946
16419TIP3    H270673   3.500   3.260  12.942  1.9724  0.9427 -0.1034
16420TIP3   OH270674   5.613   4.102  10.491 -0.0936  0.4512 -0.4856
16420TIP3    H170675   5.702   4.066  10.496  0.6681  2.2711  0.1411
16420TIP3    H270676   5.571   4.072  10.572  0.1538  0.1129 -0.4795
16421TIP3   OH270677   1.203   3.224  13.540  0.3492  0.2488  0.0810
16421TIP3    H170678   1.200   3.261  13.452  1.6841 -2.0121 -0.9904
16421TIP3    H270679   1.295   3.204  13.556 -0.0202 -0.5452  1.4661
16422TIP3   OH270680   4.925   6.091   4.363  0.1230 -0.3993  0.0733
16422TIP3    H170681   4.930   6.094   4.459  1.1034 -0.4569  0.0340
16422TIP3    H270682   4.934   6.183   4.336  3.3778 -0.6690 -0.0762
16423TIP3   OH270683   0.643   6.200   4.877 -0.0943 -1.0855 -0.1441
16423TIP3    H170684   0.692   6.282   4.880 -2.2824  0.3649 -1.1698
16423TIP3    H270685   0.696   6.142   4.822 -0.1761  0.9158 -2.5059
16424TIP3   OH270686   4.065   4.425  12.385  0.0063  0.0425  0.0540
16424TIP3    H170687   4.123   4.487  12.430  0.5174  0.5743 -1.2596
16424TIP3    H270688   4.119   4.391  12.313 -0.6526 -1.0443  0.0564
16425TIP3   OH270689   3.767   5.854  15.942  0.0865  0.1334 -0.1184
16425TIP3    H170690   3.804   5.938  15.968 -0.7245  0.0674  1.3803
16425TIP3    H270691   3.698   5.838  16.006  0.0561 -1.5549 -0.5336
16426TIP3   OH270692   4.789   6.248  11.939  0.7166  0.1444 -0.6926
16426TIP3    H170693   4.706   6.265  11.895 -0.3503 -3.1692 -0.2395
16426TIP3    H270694   4.771   6.267  12.031  0.5670 -0.2133 -0.6469
16427TIP3   OH270695   4.640   1.042   3.533 -0.1653  0.5933  0.0054
16427TIP3    H170696   4.722   1.060   3.487  0.5576  0.1854  1.1011
16427TIP3    H270697   4.604   1.129   3.553  1.0201  0.8322  1.2667
16428TIP3   OH270698   5.660   3.397  16.259  0.1018 -0.1818  0.0513
16428TIP3    H170699   5.651   3.492  16.263  0.6570 -0.0094 -1.8561
16428TIP3    H270700   5.575   3.364  16.288  0.3902  0.8036  2.2374
16429TIP3   OH270701   1.795   6.398   5.768  0.0638  0.1621 -0.5367
16429TIP3    H170702   1.821   6.488   5.788  1.3758 -0.2323 -0.4085
16429TIP3    H270703   1.812   6.350   5.849  0.9064 -0.5096 -1.0960
16430TIP3   OH270704   5.727   1.739   0.644  0.1187 -0.3724 -0.4484
16430TIP3    H170705   5.760   1.687   0.571 -0.4166 -0.7889 -0.4020
16430TIP3    H270706   5.805   1.778   0.684  0.4648 -0.6360 -0.8674
16431TIP3   OH270707   4.763   1.281  10.996  0.4613 -0.0021 -0.1228
16431TIP3    H170708   4.850   1.309  11.026  0.1398 -0.8735  1.7576
16431TIP3    H270709   4.772   1.187  10.982 -0.0991 -0.0410 -0.2141
16432TIP3   OH270710   3.590   0.211   1.669 -0.5432  0.2784  0.3805
16432TIP3    H170711   3.535   0.286   1.647  2.1545  2.1337 -0.4262
16432TIP3    H270712   3.615   0.225   1.760  0.4413  0.7080  0.0540
16433TIP3   OH270713   5.122   5.733  12.102  0.2648 -0.8322  0.3970
16433TIP3    H170714   5.141   5.669  12.170  0.0778 -2.5029 -1.0533
16433TIP3    H270715   5.199   5.732  12.045  0.4798  0.6339  0.6029
16434TIP3   OH270716   2.841   2.390  16.603 -0.1839  0.5368 -0.3645
16434TIP3    H170717   2.792   2.462  16.642  1.8416  1.4080  0.7416
16434TIP3    H270718   2.931   2.421  16.601  0.4350 -1.1800 -1.8329
16435TIP3   OH270719   3.584   0.227  13.483 -0.5977 -0.3637  0.3079
16435TIP3    H170720   3.513   0.226  13.419 -1.8690 -0.1253  1.6470
16435TIP3    H270721   3.597   0.320  13.503 -0.8455 -0.4740  1.0272
16436TIP3   OH270722   1.024   5.734  15.489  0.2882  0.0175 -0.0835
16436TIP3    H170723   1.063   5.699  15.569 -0.1388  2.2235  1.1430
16436TIP3    H270724   0.936   5.696  15.486  0.4040 -0.2869  0.3308
16437TIP3   OH270725   2.912   5.564  15.929  0.3288 -0.0237 -0.3399
16437TIP3    H170726   2.999   5.558  15.968  0.8738  0.0845 -1.4720
16437TIP3    H270727   2.886   5.656  15.941  0.6403  0.0901 -0.5353
16438TIP3   OH270728   3.769   1.858  14.891  0.2766 -0.4517  0.5223
16438TIP3    H170729   3.824   1.926  14.931  0.5900 -0.2376 -0.2537
16438TIP3    H270730   3.767   1.881  14.798 -3.2993  1.0813  0.8311
16439TIP3   OH270731   1.827   3.319  11.392 -0.3322 -0.2465 -0.4999
16439TIP3    H170732   1.906   3.359  11.428 -0.2624  0.0965 -1.0272
16439TIP3    H270733   1.755   3.368  11.432 -0.3244 -1.2629  0.8277
16440TIP3   OH270734   1.114   2.304  10.864 -0.5115 -0.0098 -0.1344
16440TIP3    H170735   1.205   2.297  10.894 -1.1516 -1.3797  1.7761
16440TIP3    H270736   1.090   2.214  10.843 -1.6249  0.2250  0.0896
16441TIP3   OH270737   1.311   1.674  13.942  0.0232 -0.3399  0.3525
16441TIP3    H170738   1.319   1.743  13.876  0.8233 -1.1500 -0.4214
16441TIP3    H270739   1.222   1.639  13.930  0.2830 -0.7254 -0.5675
16442TIP3   OH270740   0.625   4.383   4.497  0.4028  0.3695 -0.4494
16442TIP3    H170741   0.652   4.429   4.577  0.5808 -0.0245 -0.2829
16442TIP3    H270742   0.529   4.392   4.496  0.0400 -2.1867  1.4268
16443TIP3   OH270743   4.405   1.409  17.031 -0.4385  0.1257 -0.0271
16443TIP3    H170744   4.350   1.419  17.109 -0.1971 -1.2684  0.3455
16443TIP3    H270745   4.494   1.416  17.064 -0.3577  1.0786 -0.4298
16444TIP3   OH270746   5.537   4.121  13.195 -0.0615  0.1814  0.1956
16444TIP3    H170747   5.576   4.142  13.280  0.6441  0.1272 -0.1020
16444TIP3    H270748   5.447   4.153  13.200  0.0893  0.5147  0.8309
16445TIP3   OH270749   3.539   5.696   0.339  0.2482  0.5596 -0.1551
16445TIP3    H170750   3.479   5.765   0.310 -0.5021  0.1863  0.4697
16445TIP3    H270751   3.493   5.654   0.412  2.5223  2.2237  2.4135
16446TIP3   OH270752   4.313   3.118  12.042 -0.7434 -0.6853  0.1391
16446TIP3    H170753   4.231   3.078  12.071 -0.0761 -1.5162  0.9527
16446TIP3    H270754   4.358   3.048  11.994 -1.1295  0.1975 -1.5600
16447TIP3   OH270755   4.065   5.160  17.013  0.4738 -0.2192  0.1898
16447TIP3    H170756   4.114   5.083  16.983  1.1054  0.2966 -0.1315
16447TIP3    H270757   4.131   5.217  17.052  0.0116  0.1787  0.4062
16448TIP3   OH270758   1.292   6.348  14.124  0.2771  0.5252  0.3224
16448TIP3    H170759   1.376   6.393  14.132  1.5226 -1.6078  0.0290
16448TIP3    H270760   1.293   6.313  14.035  0.9365 -2.8687  1.5400
16449TIP3   OH270761   1.800   5.411  15.936 -0.3442  0.1011 -0.2768
16449TIP3    H170762   1.800   5.477  16.005 -1.9975 -1.3215  1.1843
16449TIP3    H270763   1.832   5.457  15.859  0.4131  2.0686  1.1343
16450TIP3   OH270764   6.132   2.194  12.871 -0.1684 -0.3289 -0.1779
16450TIP3    H170765   6.062   2.232  12.924 -0.8063 -0.3699 -0.9636
16450TIP3    H270766   6.146   2.107  12.908  0.8004  0.3556  1.1782
16451TIP3   OH270767   6.070   3.903  15.146 -0.4619 -0.3152 -0.3818
16451TIP3    H170768   5.989   3.939  15.110  0.1992  0.4576 -1.1370
16451TIP3    H270769   6.085   3.954  15.226  0.7818  1.5864 -1.7498
16452TIP3   OH270770   0.716   3.755  12.088  0.1014  0.0940  0.0161
16452TIP3    H170771   0.755   3.674  12.055  0.5888  0.5338 -0.5118
16452TIP3    H270772   0.788   3.800  12.132  0.0383  0.6147 -0.4079
16453TIP3   OH270773   5.183   2.037   5.541 -0.0630 -0.2925 -0.0177
16453TIP3    H170774   5.108   2.096   5.540 -0.7137 -1.0377  1.8871
16453TIP3    H270775   5.146   1.951   5.558  0.8846 -1.3392 -2.6584
16454TIP3   OH270776   0.146   6.645   2.091 -0.5531  0.1233 -0.5174
16454TIP3    H170777   0.116   6.626   2.180  0.0781  1.8703  0.0963
16454TIP3    H270778   0.228   6.596   2.084  0.5677  1.7265  0.7040
16455TIP3   OH270779   1.002   3.809   0.715  0.3538  0.2335 -0.1592
16455TIP3    H170780   1.070   3.770   0.770 -0.3503  0.3625  0.8297
16455TIP3    H270781   0.961   3.875   0.771 -2.3573 -1.6281  0.2550
16456TIP3   OH270782   1.994   2.007  16.525 -0.6953 -0.0032  0.1714
16456TIP3    H170783   1.972   1.957  16.604  0.6361 -1.4966 -0.3362
16456TIP3    H270784   1.916   2.059  16.507 -2.2997 -2.1309  0.5748
16457TIP3   OH270785   4.651   3.872   4.713 -0.5123 -0.4671  0.0746
16457TIP3    H170786   4.568   3.892   4.756 -0.1813 -1.4463  1.2471
16457TIP3    H270787   4.661   3.939   4.646 -1.3287  0.8302  1.2017
16458TIP3   OH270788   2.707   2.607   5.397 -0.2673  0.1051  0.5447
16458TIP3    H170789   2.700   2.696   5.362  1.6360  0.6145  1.3554
16458TIP3    H270790   2.677   2.551   5.326  2.0825  1.1774 -1.4131
16459TIP3   OH270791   0.222   1.732  16.868  0.8165 -0.5673 -0.3304
16459TIP3    H170792   0.141   1.729  16.920  1.1479  0.8365  0.3273
16459TIP3    H270793   0.193   1.754  16.780  0.4255 -0.7782 -0.2583
16460TIP3   OH270794   5.179   4.172  17.243 -0.5748 -0.3413 -0.0141
16460TIP3    H170795   5.189   4.155  17.149  0.0086  0.4183 -0.1066
16460TIP3    H270796   5.099   4.225  17.249 -0.0967  0.4116 -0.1956
16461TIP3   OH270797   4.272   0.554  11.606 -0.1704  0.2159  0.1187
16461TIP3    H170798   4.207   0.493  11.641  1.5515  0.0505  3.3413
16461TIP3    H270799   4.333   0.498  11.557 -0.2990 -0.1908  0.4183
16462TIP3   OH270800   3.490   6.158   1.629  0.0384  0.2990  0.3074
16462TIP3    H170801   3.586   6.152   1.625  0.0499  1.1003 -1.7862
16462TIP3    H270802   3.461   6.067   1.628  0.7627  0.0489  0.8065
16463TIP3   OH270803   5.764   0.035  13.220  0.3006  0.0019  0.5275
16463TIP3    H170804   5.770  -0.060  13.209 -0.0226  0.0203  0.2047
16463TIP3    H270805   5.803   0.051  13.306  0.0982 -0.4553  0.7072
16464TIP3   OH270806   0.883   3.090   3.931 -0.6908  0.1570  0.0863
16464TIP3    H170807   0.856   3.182   3.931  2.6703  1.2883  0.6935
16464TIP3    H270808   0.910   3.073   3.841 -1.5538 -0.3348 -0.0835
16465TIP3   OH270809   0.433   5.932   2.525 -0.7212  0.5097 -0.4657
16465TIP3    H170810   0.467   5.845   2.543 -0.9160  0.0502 -2.1523
16465TIP3    H270811   0.362   5.944   2.589 -0.7533 -0.6098 -0.2751
16466TIP3   OH270812   3.166   4.559   1.541  0.2818  0.2572  0.1031
16466TIP3    H170813   3.221   4.538   1.617 -0.9971 -1.0281  0.7102
16466TIP3    H270814   3.131   4.475   1.513 -2.2319  1.1158  0.4088
16467TIP3   OH270815   1.066   4.205   1.655 -0.1849 -0.1152  0.0241
16467TIP3    H170816   0.984   4.233   1.616  0.1172 -0.0811 -0.6060
16467TIP3    H270817   1.041   4.159   1.736 -0.9526 -1.7370 -1.0839
16468TIP3   OH270818   2.117   4.400  13.251 -0.0919 -0.5515 -0.3048
16468TIP3    H170819   2.152   4.330  13.305 -0.1999 -0.4956 -0.1608
16468TIP3    H270820   2.137   4.373  13.161  0.0823 -0.6466 -0.2390
16469TIP3   OH270821   3.939   1.158   6.192  0.0637 -0.0615  0.2993
16469TIP3    H170822   3.966   1.122   6.277  0.3106 -0.9740 -0.1451
16469TIP3    H270823   3.858   1.205   6.210  0.2438 -0.0406  1.0872
16470TIP3   OH270824   6.673   2.881  14.146  0.0409 -0.3584  0.7490
16470TIP3    H170825   6.721   2.899  14.065  1.7805 -2.6218  1.1739
16470TIP3    H270826   6.659   2.967  14.185  0.6713  0.6459 -1.1254
16471TIP3   OH270827   4.765   0.608  12.999 -0.2751  0.3684  0.3915
16471TIP3    H170828   4.738   0.658  12.921  0.9585 -1.7143 -1.5130
16471TIP3    H270829   4.860   0.605  12.994 -0.2016 -0.2009  1.7288
16472TIP3   OH270830   5.836   0.649  15.537  0.2544  0.1817  0.0919
16472TIP3    H170831   5.743   0.666  15.551  0.0806 -0.7214  0.0921
16472TIP3    H270832   5.864   0.601  15.615 -0.1833 -2.8427 -1.4651
16473TIP3   OH270833   4.311   5.717  13.632 -0.0660  0.0694 -0.1120
16473TIP3    H170834   4.325   5.626  13.656 -0.7026  0.6511  2.8024
16473TIP3    H270835   4.397   5.758  13.642  0.2310 -0.1649 -1.4697
16474TIP3   OH270836   3.596   0.486  13.561 -0.1903 -0.4484 -0.1342
16474TIP3    H170837   3.590   0.530  13.646 -1.8616  0.3088 -0.6128
16474TIP3    H270838   3.547   0.542  13.501  0.9342 -0.9838 -1.6161
16475TIP3   OH270839   3.988   1.676  17.255  0.5223  0.3728  0.1425
16475TIP3    H170840   3.900   1.665  17.291  0.7456  0.1577  0.6370
16475TIP3    H270841   3.975   1.726  17.175  0.0598  1.2902  0.7641
16476TIP3   OH270842   0.920   4.790   3.658  0.9303 -0.0917 -0.4499
16476TIP3    H170843   0.834   4.755   3.677  0.0122  1.4886 -1.4528
16476TIP3    H270844   0.979   4.714   3.660 -0.4598 -1.1882  0.2504
16477TIP3   OH270845   4.979   2.798  13.831  0.3384 -0.2025 -0.4158
16477TIP3    H170846   4.902   2.850  13.809 -1.1300 -1.5351  1.2069
16477TIP3    H270847   5.000   2.750  13.751  0.1769  0.9867 -1.1867
16478TIP3   OH270848   6.726   2.691   5.159 -0.0822  0.0727 -0.0015
16478TIP3    H170849   6.815   2.720   5.178  0.0416  0.6003 -1.2661
16478TIP3    H270850   6.735   2.636   5.081 -0.9237  0.5380 -0.4380
16479TIP3   OH270851   5.859   5.849   3.042 -0.1716  0.4053  0.4006
16479TIP3    H170852   5.937   5.837   2.988 -0.1851  0.9370  0.2655
16479TIP3    H270853   5.834   5.760   3.067  0.9920  0.2915  1.1824
16480TIP3   OH270854   3.508   5.659   1.807 -0.0994 -0.0571 -0.1340
16480TIP3    H170855   3.585   5.695   1.762  0.4339 -1.2800 -0.2544
16480TIP3    H270856   3.455   5.622   1.737 -0.2453 -0.2171  0.0598
16481TIP3   OH270857   6.181   0.600  11.895  0.1041  0.8511 -0.1370
16481TIP3    H170858   6.119   0.579  11.826  0.6252  0.8077 -0.6001
16481TIP3    H270859   6.196   0.517  11.941 -0.3762  0.9178  0.1405
16482TIP3   OH270860   6.259   0.211   6.583  0.0934 -0.5671 -0.5772
16482TIP3    H170861   6.170   0.188   6.557 -0.4624  0.9489 -0.1352
16482TIP3    H270862   6.299   0.128   6.610 -1.3617 -1.1817 -0.2335
16483TIP3   OH270863   3.315   2.265   0.031 -0.2761  0.3944  0.3645
16483TIP3    H170864   3.287   2.289   0.120  0.3101 -0.3867  0.7664
16483TIP3    H270865   3.318   2.348  -0.016  0.6524  0.9881  1.4266
16484TIP3   OH270866   4.988   3.197  11.542 -0.1845 -0.6675 -0.2767
16484TIP3    H170867   4.954   3.232  11.460 -0.5808 -0.2295  0.0675
16484TIP3    H270868   4.920   3.137  11.573 -0.7748  0.3747  0.5221
16485TIP3   OH270869   5.831   5.160   4.550  0.1019  0.2481 -0.3212
16485TIP3    H170870   5.828   5.065   4.547  1.4673  0.1058  1.3637
16485TIP3    H270871   5.742   5.187   4.572 -0.4431 -0.5846 -1.4692
16486TIP3   OH270872   4.847   2.991  15.762 -0.0843 -0.1050  0.0815
16486TIP3    H170873   4.924   2.970  15.709 -0.8242 -2.2469 -0.2721
16486TIP3    H270874   4.876   3.061  15.821  1.4585  0.6652 -1.5126
16487TIP3   OH270875   3.528   3.735   0.043 -0.1263 -0.0442  0.1347
16487TIP3    H170876   3.501   3.702   0.128  0.3317 -0.2424  0.2011
16487TIP3    H270877   3.555   3.826   0.060 -0.8712  0.2067  0.0429
16488TIP3   OH270878   1.782   6.284   6.029 -0.2745 -0.6262  0.0173
16488TIP3    H170879   1.846   6.223   5.991 -0.1967  1.3814 -3.4823
16488TIP3    H270880   1.834   6.340   6.087  1.1358  0.5303 -2.2279
16489TIP3   OH270881   4.105   4.891   3.626  0.5576 -0.0734 -0.2954
16489TIP3    H170882   4.183   4.846   3.593  2.4203  2.2203  0.7429
16489TIP3    H270883   4.106   4.874   3.720 -0.0784  0.1762 -0.2413
16490TIP3   OH270884   3.161   5.799  14.208 -0.6235  0.5529 -0.4363
16490TIP3    H170885   3.078   5.774  14.248 -0.2182 -0.6594 -0.3095
16490TIP3    H270886   3.217   5.722  14.219  0.8801  1.7144  0.4372
16491TIP3   OH270887   2.072   3.527   1.894 -0.2332 -0.4130 -0.1791
16491TIP3    H170888   1.979   3.540   1.875 -0.2438 -0.2258 -0.0005
16491TIP3    H270889   2.082   3.432   1.900 -0.4137 -0.4334 -0.1956
16492TIP3   OH270890   2.098   1.415   5.598  0.1657 -0.6526 -0.6620
16492TIP3    H170891   2.176   1.420   5.544  1.0186  0.7776  0.6164
16492TIP3    H270892   2.049   1.494   5.577 -0.0879 -0.6877 -0.2114
16493TIP3   OH270893   1.238   1.438   4.169  0.8423  0.1368 -0.1071
16493TIP3    H170894   1.193   1.418   4.087  1.6113 -2.0390 -0.0841
16493TIP3    H270895   1.320   1.479   4.141  0.1994  1.3541 -0.2837
16494TIP3   OH270896   5.815   2.372   2.018 -0.1900 -0.0971  0.2539
16494TIP3    H170897   5.861   2.429   2.080  0.4119  0.6501 -0.8469
16494TIP3    H270898   5.881   2.347   1.954 -1.0017 -0.0584 -0.6303
16495TIP3   OH270899   2.517   2.966   3.573 -0.2520 -0.1391 -0.2544
16495TIP3    H170900   2.431   3.000   3.595 -0.7953 -0.7554 -1.3007
16495TIP3    H270901   2.545   2.917   3.650 -2.1565 -2.3950 -0.8846
16496TIP3   OH270902   1.119   0.605   4.664 -0.4621  0.1702 -0.7223
16496TIP3    H170903   1.206   0.565   4.666 -0.2881  0.3963 -2.3990
16496TIP3    H270904   1.068   0.555   4.728  0.2422 -1.5536 -1.4583
16497TIP3   OH270905   2.297   2.646  17.225 -0.7461  0.6469 -0.2627
16497TIP3    H170906   2.232   2.698  17.177 -1.0617  0.7196  0.2351
16497TIP3    H270907   2.244   2.590  17.283 -0.3502  2.4929  2.0355
16498TIP3   OH270908   1.671   3.415  15.233  0.0420  0.3656 -0.2775
16498TIP3    H170909   1.609   3.342  15.234  0.4511 -0.1984 -3.3479
16498TIP3    H270910   1.617   3.493  15.217 -0.2283  0.5002  1.2209
16499TIP3   OH270911   0.972   1.237  12.806  0.0740  0.3008  0.2873
16499TIP3    H170912   0.927   1.304  12.754 -0.9789  1.3938  2.4975
16499TIP3    H270913   0.910   1.215  12.876  1.2250 -1.5111  0.8080
16500TIP3   OH270914   1.092   2.023  13.081  0.2388 -0.9177  0.3156
16500TIP3    H170915   1.016   2.066  13.120  0.5507  0.6707 -0.7232
16500TIP3    H270916   1.061   1.936  13.057 -1.3610 -0.2075 -0.3355
16501TIP3   OH270917   5.073   1.098  17.187 -0.2365  0.1810  0.3398
16501TIP3    H170918   5.061   1.099  17.282  0.2449 -3.6217  0.6083
16501TIP3    H270919   4.984   1.089  17.152 -0.2944  0.0692  0.5183
16502TIP3   OH270920   5.155   5.117   3.875 -0.2784  0.4002 -0.5647
16502TIP3    H170921   5.211   5.056   3.923 -0.7434 -0.1380 -0.6904
16502TIP3    H270922   5.079   5.129   3.933 -0.1610  0.9119 -0.5126
16503TIP3   OH270923   4.667   6.624   1.906  0.2610 -0.1956 -0.5384
16503TIP3    H170924   4.646   6.711   1.938  1.3558  0.1997 -0.8642
16503TIP3    H270925   4.595   6.602   1.847  0.0918  0.5835 -0.6299
16504TIP3   OH270926   0.880   6.314  11.953 -0.3063 -0.5208 -0.0748
16504TIP3    H170927   0.825   6.238  11.937  0.3280 -0.7181 -1.4639
16504TIP3    H270928   0.824   6.389  11.935 -0.8364 -0.6557  0.9701
16505TIP3   OH270929   4.725   6.591  11.132 -0.3200 -0.2575  0.5256
16505TIP3    H170930   4.738   6.576  11.226 -0.1738 -0.3703  0.4866
16505TIP3    H270931   4.812   6.612  11.099  0.2555 -3.3673 -0.1813
16506TIP3   OH270932   6.719   1.483  13.175 -0.1594  0.2970 -0.1360
16506TIP3    H170933   6.745   1.457  13.087  0.1451  2.4162 -0.7173
16506TIP3    H270934   6.686   1.572  13.166 -0.3823  0.4755  1.8586
16507TIP3   OH270935   6.571   0.550   1.330 -0.2257  0.0396  0.2656
16507TIP3    H170936   6.653   0.526   1.372  0.3909  0.9619 -0.3760
16507TIP3    H270937   6.579   0.644   1.313 -0.7932 -0.1438 -1.1420
16508TIP3   OH270938   1.812   0.167   2.853  0.5877 -0.0982  0.5221
16508TIP3    H170939   1.815   0.094   2.915  1.3389 -1.0791 -0.6340
16508TIP3    H270940   1.903   0.180   2.827  0.2176 -0.1258 -0.8535
16509TIP3   OH270941   1.410   5.247   2.351 -0.4175 -0.7147  0.1700
16509TIP3    H170942   1.467   5.204   2.287 -0.8388  1.2456 -1.6609
16509TIP3    H270943   1.407   5.187   2.425  2.2969 -1.8623 -0.5295
16510TIP3   OH270944   1.428   0.692  13.788 -0.2276  0.3193 -0.0074
16510TIP3    H170945   1.500   0.694  13.725 -0.0862 -0.5122  0.1207
16510TIP3    H270946   1.366   0.757  13.755 -0.0585  0.0415 -0.8929
16511TIP3   OH270947   4.676   3.758  12.963  0.0691  0.9057  0.1415
16511TIP3    H170948   4.595   3.776  12.915 -1.1096 -0.5225  1.5032
16511TIP3    H270949   4.746   3.783  12.902 -1.3710  1.6561 -1.2763
16512TIP3   OH270950   4.773   0.089   0.249 -0.3467 -0.5574  0.8561
16512TIP3    H170951   4.727   0.173   0.250  1.1026  0.2650  0.8009
16512TIP3    H270952   4.810   0.082   0.161  0.4393 -0.7343  1.1921
16513TIP3   OH270953   6.104   6.001   0.360 -0.4769  0.0050  0.2352
16513TIP3    H170954   6.072   6.008   0.450 -1.1863 -0.4779  0.0260
16513TIP3    H270955   6.154   5.919   0.358 -0.9396 -0.2723  0.0448
16514TIP3   OH270956   1.780   1.015   2.903  0.3844 -0.2550  0.1721
16514TIP3    H170957   1.711   0.957   2.933 -0.3902  0.2399 -0.6137
16514TIP3    H270958   1.860   0.978   2.939  0.0049 -2.2295 -0.8804
16515TIP3   OH270959   1.786   4.204   5.127  0.5785 -0.4235  0.1710
16515TIP3    H170960   1.698   4.193   5.091  1.5157 -0.4146 -2.3029
16515TIP3    H270961   1.798   4.298   5.135  0.8681 -0.3540 -0.9297
16516TIP3   OH270962   6.645   5.380   3.401  0.0867  0.1694 -0.2193
16516TIP3    H170963   6.562   5.344   3.369  1.4622 -0.7255 -3.1408
16516TIP3    H270964   6.690   5.306   3.442 -0.2450  0.5039  0.7870
16517TIP3   OH270965   4.690   2.061   1.605  0.0032 -0.0414 -0.1597
16517TIP3    H170966   4.762   2.057   1.669 -1.9201 -1.2865  2.1164
16517TIP3    H270967   4.678   1.970   1.578  1.7127  0.6012 -3.6189
16518TIP3   OH270968   4.512   2.047  15.189 -0.5929  0.5525  0.0186
16518TIP3    H170969   4.587   2.107  15.193 -2.2005  2.7568 -0.8492
16518TIP3    H270970   4.533   1.988  15.116  0.1655  1.3135 -0.4003
16519TIP3   OH270971   0.969   4.867  13.517 -0.1763  0.3234 -0.0749
16519TIP3    H170972   0.985   4.774  13.499 -4.0317 -0.3908 -0.7566
16519TIP3    H270973   0.915   4.867  13.596 -0.4846  1.9732 -0.2482
16520TIP3   OH270974   4.585   5.457  14.123  0.1366  0.3613 -0.2451
16520TIP3    H170975   4.613   5.387  14.183  0.0485 -0.0154 -0.6368
16520TIP3    H270976   4.571   5.533  14.180  1.6520  0.4776  0.0053
16521TIP3   OH270977   3.812   1.893   2.787 -0.1207 -0.5985  0.6739
16521TIP3    H170978   3.812   1.912   2.881 -0.8144  1.2070  0.3555
16521TIP3    H270979   3.838   1.976   2.746 -0.1897 -1.2502 -0.7552
16522TIP3   OH270980   1.649   0.108  13.658 -0.6163 -0.1795 -0.6532
16522TIP3    H170981   1.634   0.177  13.722  2.3258 -1.0662  1.2003
16522TIP3    H270982   1.698   0.151  13.588 -0.7567  0.0602 -0.6076
16523TIP3   OH270983   2.443   4.720  13.870 -0.4432  0.1942  0.1068
16523TIP3    H170984   2.378   4.782  13.902 -2.3166 -1.7455  0.3146
16523TIP3    H270985   2.444   4.650  13.935  0.8284 -0.5093 -0.6223
16524TIP3   OH270986   1.494   4.968  10.375 -0.3676  1.1197  0.6878
16524TIP3    H170987   1.469   5.018  10.453  0.6300  1.8712  0.5509
16524TIP3    H270988   1.590   4.959  10.382 -0.3599  0.5315 -0.0639
16525TIP3   OH270989   2.596   1.735   2.776  0.1669 -0.5785  0.2313
16525TIP3    H170990   2.546   1.770   2.702 -0.1903  1.4105  1.3434
16525TIP3    H270991   2.531   1.695   2.833  0.0479  0.4858  0.8555
16526TIP3   OH270992   3.332   2.684  15.279  0.0184 -0.5104  0.4455
16526TIP3    H170993   3.422   2.704  15.305 -0.5087  0.7983  1.4075
16526TIP3    H270994   3.330   2.702  15.185  0.5136  0.5060  0.6127
16527TIP3   OH270995   0.474   4.188   1.402 -0.0387  0.3636 -0.4571
16527TIP3    H170996   0.425   4.157   1.478  0.4439  0.8676  0.0705
16527TIP3    H270997   0.407   4.208   1.337 -0.3838 -1.6609 -0.7897
16528TIP3   OH270998   3.733   5.414  16.899 -0.0966  0.0492 -0.3917
16528TIP3    H170999   3.755   5.347  16.835  0.7809  0.9696 -1.0787
16528TIP3    H271000   3.753   5.374  16.983 -0.5583 -0.9063 -0.7135
16529TIP3   OH271001   2.829   6.067  15.492  0.4588  0.0218  0.2107
16529TIP3    H171002   2.756   6.019  15.454  0.1715  0.6657 -0.0623
16529TIP3    H271003   2.794   6.108  15.571  0.3800  0.7612 -0.2033
16530TIP3   OH271004   3.439   1.907  13.804  0.0782  0.1063  0.3173
16530TIP3    H171005   3.465   1.830  13.855 -0.2849 -0.2256  0.0125
16530TIP3    H271006   3.399   1.871  13.725 -2.1946  0.5376  1.1759
16531TIP3   OH271007   4.077   6.431   5.109  0.2138 -0.4756 -0.1320
16531TIP3    H171008   3.982   6.434   5.108  0.2123 -0.1865 -1.3698
16531TIP3    H271009   4.103   6.504   5.165 -0.2889 -1.1095  0.9513
16532TIP3   OH271010   5.872   3.814   4.541  0.2599  0.3312  0.6488
16532TIP3    H171011   5.913   3.848   4.620 -0.8676  0.6830  1.0946
16532TIP3    H271012   5.856   3.722   4.560  0.5586  0.2624  0.5816
16533TIP3   OH271013   3.328   1.244   4.975 -0.6297 -0.0561 -0.5290
16533TIP3    H171014   3.357   1.171   4.920  1.0251  0.6141 -0.5835
16533TIP3    H271015   3.235   1.227   4.989 -0.1026 -2.8106  0.3837
16534TIP3   OH271016   2.988   1.880   4.090 -0.0691 -0.4258 -0.2327
16534TIP3    H171017   3.020   1.836   4.169  2.1038  1.0043 -0.2268
16534TIP3    H271018   3.003   1.817   4.020 -3.5555 -2.3922  0.5610
16535TIP3   OH271019   5.912   6.113   2.023 -0.4330  0.3927  0.1515
16535TIP3    H171020   5.835   6.057   2.013 -0.0953  0.0757 -0.8270
16535TIP3    H271021   5.894   6.189   1.968  0.2432 -0.0182 -0.6680
16536TIP3   OH271022   3.286   2.212   5.312 -0.4012 -0.6151 -0.3551
16536TIP3    H171023   3.325   2.244   5.393 -0.1814 -0.0713 -0.6750
16536TIP3    H271024   3.309   2.277   5.246 -1.8152 -0.2824 -0.5632
16537TIP3   OH271025   4.404   0.741   1.060  0.1490 -0.3328  0.4938
16537TIP3    H171026   4.427   0.818   1.008 -1.5177 -0.3785 -0.3839
16537TIP3    H271027   4.452   0.669   1.019  0.8724  0.0522  0.6497
16538TIP3   OH271028   5.520   3.221  12.174 -0.0089 -0.1069 -0.0387
16538TIP3    H171029   5.569   3.294  12.210 -1.4071 -0.1795  2.2251
16538TIP3    H271030   5.429   3.238  12.200 -0.3724 -2.6240  0.6410
16539TIP3   OH271031   0.123   4.728  11.265  0.0264 -0.4275 -0.3445
16539TIP3    H171032   0.177   4.725  11.345 -2.3935  0.2741  1.4258
16539TIP3    H271033   0.143   4.813  11.226 -0.2372  0.0827  0.6145
16540TIP3   OH271034   4.278   1.282   2.031  0.2424  0.2005  0.4277
16540TIP3    H171035   4.297   1.254   2.121  0.2404  1.3126  0.7904
16540TIP3    H271036   4.216   1.354   2.041  0.1209  0.2286 -0.4783
16541TIP3   OH271037   0.068   2.573  15.527  0.1172  0.3685  0.4800
16541TIP3    H171038  -0.008   2.596  15.474 -0.7681  0.3106  1.6798
16541TIP3    H271039   0.132   2.539  15.464 -1.6967 -1.8022 -0.3295
16542TIP3   OH271040   4.234   0.865   0.705  0.0615 -0.0213  0.2687
16542TIP3    H171041   4.213   0.771   0.703  1.7965 -0.4579  0.5296
16542TIP3    H271042   4.268   0.884   0.618  0.2081  0.2275  0.3775
16543TIP3   OH271043   4.240   2.665   4.501  0.5230 -0.4146  0.4563
16543TIP3    H171044   4.290   2.616   4.567 -0.2934 -1.1999  0.5143
16543TIP3    H271045   4.150   2.660   4.531  0.4601  1.5243  0.6830
16544TIP3   OH271046   6.700   5.628  12.401 -0.1436 -0.0977  0.1189
16544TIP3    H171047   6.662   5.664  12.321  0.2189  1.2051  0.5031
16544TIP3    H271048   6.630   5.633  12.466 -0.6924 -1.8955 -0.2806
16545TIP3   OH271049   2.028   1.883   2.976  0.1223 -0.2504  0.3409
16545TIP3    H171050   1.950   1.857   3.025  0.5970 -0.6277  0.9178
16545TIP3    H271051   2.041   1.975   2.999 -0.1830 -0.1689  0.1960
16546TIP3   OH271052   4.567   1.923  11.267  0.0681 -0.2714  0.4071
16546TIP3    H171053   4.648   1.926  11.217 -0.2474 -0.4211 -0.1185
16546TIP3    H271054   4.587   1.968  11.349  0.6292 -0.1558  0.2070
16547TIP3   OH271055   0.169   2.936  15.687  0.6277 -0.5152 -0.0345
16547TIP3    H171056   0.155   3.026  15.717  1.7310 -0.3594  0.0793
16547TIP3    H271057   0.161   2.941  15.592  1.3791 -0.1457 -0.0864
16548TIP3   OH271058   4.805   5.467  13.332  0.2165 -0.4770  0.2826
16548TIP3    H171059   4.800   5.444  13.425  2.3114 -0.2051  0.5149
16548TIP3    H271060   4.791   5.561  13.330  0.6927 -0.4058  0.3760
16549TIP3   OH271061   6.367   4.753   0.487  0.4734  0.1574 -0.1239
16549TIP3    H171062   6.375   4.661   0.461  2.0019  0.3504 -0.4198
16549TIP3    H271063   6.274   4.773   0.476  0.4252 -0.8133 -1.8866
16550TIP3   OH271064   3.065   2.355   3.535 -0.1841 -0.0552 -0.4101
16550TIP3    H171065   3.084   2.374   3.443  0.8246 -1.5382 -0.5481
16550TIP3    H271066   3.134   2.400   3.583 -1.3374  1.6396 -0.2538
16551TIP3   OH271067   0.625   0.920  15.032 -0.0980  0.5581 -0.0989
16551TIP3    H171068   0.675   0.924  14.951 -0.3653  0.9040 -0.2463
16551TIP3    H271069   0.690   0.895  15.099  0.1603  0.4737 -0.3800
16552TIP3   OH271070   5.242   1.877  13.577  0.0727  0.1415  0.1859
16552TIP3    H171071   5.178   1.835  13.634  0.9465 -0.1377  0.9834
16552TIP3    H271072   5.199   1.957  13.547 -0.6190 -0.0142  0.7467
16553TIP3   OH271073   5.583   5.273   4.567 -0.7347 -0.1369 -0.5302
16553TIP3    H171074   5.547   5.196   4.522 -1.3555 -1.4279  2.0210
16553TIP3    H271075   5.532   5.347   4.531 -0.8369 -0.9952 -2.2717
16554TIP3   OH271076   4.405   3.803  15.460  0.1138  0.0037 -0.1460
16554TIP3    H171077   4.327   3.753  15.436  2.1621 -2.1589 -3.0134
16554TIP3    H271078   4.379   3.895  15.449 -2.0391 -0.6086 -0.7683
16555TIP3   OH271079   1.079   5.638   5.709  0.0202 -0.0029  0.4276
16555TIP3    H171080   1.108   5.636   5.800  1.3196  1.8703  0.1100
16555TIP3    H271081   0.999   5.587   5.709  0.5417 -0.9464  2.4090
16556TIP3   OH271082   3.933   2.746   1.957  0.2685  0.3021  0.2062
16556TIP3    H171083   3.876   2.670   1.943 -0.5190  0.6913  1.1536
16556TIP3    H271084   3.888   2.797   2.024 -0.3955  2.7627 -1.9343
16557TIP3   OH271085   3.011   4.539   3.234  0.0075 -0.1403 -0.1175
16557TIP3    H171086   2.975   4.547   3.322 -1.2177 -0.3772 -0.5826
16557TIP3    H271087   3.025   4.629   3.204 -0.0074 -0.0544  0.1349
16558TIP3   OH271088   5.481   2.626   5.148  0.6359  0.5033 -0.0475
16558TIP3    H171089   5.477   2.599   5.240 -0.3925  1.0782  0.0987
16558TIP3    H271090   5.486   2.721   5.151 -1.8016  0.7190 -0.5640
16559TIP3   OH271091   0.631   5.825  11.969  0.6399  0.3434 -0.1865
16559TIP3    H171092   0.538   5.849  11.964  1.0039  1.9850  0.2602
16559TIP3    H271093   0.633   5.750  12.028 -0.6054 -1.1551 -1.9255
16560TIP3   OH271094   5.266   0.624  14.907  0.4200  0.5508 -0.2483
16560TIP3    H171095   5.202   0.553  14.916  0.0539  1.1492  2.7697
16560TIP3    H271096   5.324   0.614  14.982  2.1085  1.7973 -1.3133
16561TIP3   OH271097   3.641   3.606   0.648  0.0469 -0.2642  0.4703
16561TIP3    H171098   3.703   3.653   0.704  2.3558  0.6126 -2.5357
16561TIP3    H271099   3.565   3.664   0.641  0.5910  0.5309  1.0596
16562TIP3   OH271100   1.228   2.692   5.921 -0.1232 -0.4254  0.3299
16562TIP3    H171101   1.295   2.748   5.961 -2.5465  1.0920  2.5774
16562TIP3    H271102   1.257   2.682   5.830  1.9281  2.1349  0.5739
16563TIP3   OH271103   4.906   5.448  11.237  0.7698 -0.6569  0.1745
16563TIP3    H171104   4.950   5.532  11.249 -0.4521  0.0485 -0.0763
16563TIP3    H271105   4.814   5.471  11.223  0.7514 -1.8753 -2.3013
16564TIP3   OH271106   0.412   1.790  11.387  0.4295  0.5189 -0.5800
16564TIP3    H171107   0.428   1.722  11.322  1.2412 -0.5703  0.7206
16564TIP3    H271108   0.467   1.767  11.461 -1.1592  1.2042  0.8856
16565TIP3   OH271109   3.212   6.133  14.459  0.8370 -0.4701 -0.1958
16565TIP3    H171110   3.156   6.114  14.535  0.0721 -0.9792 -0.8698
16565TIP3    H271111   3.165   6.202  14.412  0.7347 -0.9546 -0.8090
16566TIP3   OH271112   1.403   2.922  11.364  0.0316 -0.2650 -0.1543
16566TIP3    H171113   1.445   2.938  11.280 -3.0385 -0.6249 -1.9304
16566TIP3    H271114   1.458   2.855  11.406  3.6329  2.4206 -0.0993
16567TIP3   OH271115   2.162   0.385   2.399 -0.6209  0.0038  0.2581
16567TIP3    H171116   2.253   0.388   2.371 -1.2311  1.2824 -1.8190
16567TIP3    H271117   2.142   0.291   2.404 -0.2558 -0.4156 -3.3037
16568TIP3   OH271118   6.243   1.166  17.064 -0.7079  0.4217  0.0266
16568TIP3    H171119   6.259   1.260  17.055 -0.7796  0.4311 -0.0002
16568TIP3    H271120   6.290   1.127  16.991 -1.1330  0.4820 -0.2805
16569TIP3   OH271121   6.538   0.826   1.295  0.1464  0.2396  0.1268
16569TIP3    H171122   6.584   0.910   1.295 -0.8309  0.7996 -0.5180
16569TIP3    H271123   6.451   0.847   1.330  0.0646 -0.6086  0.4415
16570TIP3   OH271124   4.170   2.646   2.924  0.2009  0.2028  0.5734
16570TIP3    H171125   4.187   2.665   3.016 -0.3071  2.3648  0.2757
16570TIP3    H271126   4.246   2.681   2.877  0.1617 -0.3095  0.1194
16571TIP3   OH271127   5.661   1.121   2.015  0.3982  0.1803  0.4009
16571TIP3    H171128   5.614   1.064   2.076  2.8548 -1.3304  1.0738
16571TIP3    H271129   5.665   1.206   2.059 -2.3395  0.6552 -0.0999
16572TIP3   OH271130   3.100   2.757  12.458  0.0315 -0.2110  0.2211
16572TIP3    H171131   3.090   2.843  12.417  2.4591  0.0610  0.0507
16572TIP3    H271132   3.044   2.762  12.536 -0.7755  1.0785 -0.3973
16573TIP3   OH271133   0.027   0.883  13.879  0.9488 -0.4232 -0.3500
16573TIP3    H171134  -0.045   0.930  13.837  1.6690  0.8558 -0.2207
16573TIP3    H271135   0.000   0.792  13.878 -1.2432  0.1495  0.8792
16574TIP3   OH271136   6.195   2.583  13.155  0.2154 -0.0878 -0.6178
16574TIP3    H171137   6.282   2.605  13.121  0.1258 -0.5486 -1.1658
16574TIP3    H271138   6.142   2.568  13.077 -0.3491  0.1543 -0.2834
16575TIP3   OH271139   2.186   0.917   5.272  0.0642 -0.1241 -0.2041
16575TIP3    H171140   2.149   1.004   5.257 -1.5808 -0.8106 -0.2188
16575TIP3    H271141   2.125   0.857   5.232  0.7977 -1.3541  0.4637
16576TIP3   OH271142   1.580   2.144  15.702  0.1826  0.3694  0.0540
16576TIP3    H171143   1.553   2.209  15.637 -0.2872  1.2009  1.0704
16576TIP3    H271144   1.506   2.136  15.761  1.8785  2.3567  2.6444
16577TIP3   OH271145   5.192   4.911  17.195 -0.8241  0.3226 -0.1874
16577TIP3    H171146   5.144   4.861  17.261  0.1772 -1.1950 -0.5541
16577TIP3    H271147   5.276   4.867  17.188  0.2270  2.2553 -0.3531
16578TIP3   OH271148   1.861   5.792  16.305  0.0429 -0.1108  0.8265
16578TIP3    H171149   1.885   5.878  16.270  0.8719 -0.2416  1.0564
16578TIP3    H271150   1.936   5.736  16.287  0.9383  0.0310  3.5847
16579TIP3   OH271151   0.527   4.671   3.188 -0.1916 -0.1847 -0.1815
16579TIP3    H171152   0.452   4.619   3.218 -0.2114 -0.4410 -0.6667
16579TIP3    H271153   0.572   4.697   3.269 -0.6233 -0.2950  0.0990
16580TIP3   OH271154   4.411   1.874   5.483  0.1340 -0.2027 -0.0938
16580TIP3    H171155   4.495   1.882   5.528 -0.0463 -1.0546  0.4154
16580TIP3    H271156   4.353   1.933   5.532  0.0539 -0.7846  0.5327
16581TIP3   OH271157   4.586   4.811  13.998 -0.1304 -0.3994  0.6126
16581TIP3    H171158   4.552   4.812  13.908  0.6968  0.0968  0.3024
16581TIP3    H271159   4.627   4.725  14.006  1.1765  0.1473 -0.0158
16582TIP3   OH271160   0.609   6.547   0.444  0.3720  0.4104  0.2872
16582TIP3    H171161   0.515   6.560   0.436  0.4421 -0.2180 -2.8863
16582TIP3    H271162   0.647   6.630   0.415  0.8069  0.1987  0.2520
16583TIP3   OH271163   3.586   3.295   3.936 -0.0268  0.0871  0.4082
16583TIP3    H171164   3.586   3.200   3.949 -0.5039 -0.1024 -0.8080
16583TIP3    H271165   3.499   3.323   3.964  0.0604  0.1446  0.6234
16584TIP3   OH271166   3.768   3.310   2.750  0.1021 -0.2289  0.1015
16584TIP3    H171167   3.676   3.317   2.727  0.3528 -0.8167 -1.1190
16584TIP3    H271168   3.808   3.261   2.679  1.2786 -0.3984  0.8433
16585TIP3   OH271169   0.168   6.257   2.567  0.1379  0.4034 -0.2684
16585TIP3    H171170   0.223   6.306   2.505 -0.5987  1.0845 -0.4020
16585TIP3    H271171   0.114   6.324   2.609  1.0706  0.0532  1.6084
16586TIP3   OH271172   4.793   0.079  16.396 -0.7753  0.0437  0.2716
16586TIP3    H171173   4.770   0.169  16.416 -1.0382  0.2170 -0.7600
16586TIP3    H271174   4.773   0.069  16.303 -0.0352 -0.8500  0.1925
16587TIP3   OH271175   3.634   0.286   4.276  0.3092  0.6014  0.0416
16587TIP3    H171176   3.729   0.298   4.287  0.5630 -0.4619 -0.8208
16587TIP3    H271177   3.616   0.201   4.316  0.4427 -1.0662 -3.0952
16588TIP3   OH271178   6.280   3.090  12.656 -0.0093 -0.2465  0.3956
16588TIP3    H171179   6.328   3.166  12.686 -0.3231 -0.3534  1.1837
16588TIP3    H271180   6.207   3.126  12.605  0.7396 -0.0792 -0.5966
16589TIP3   OH271181   4.972   0.684  14.752  0.2042 -0.0892 -0.4250
16589TIP3    H171182   4.902   0.619  14.764  0.9004 -0.8518 -0.3960
16589TIP3    H271183   4.926   0.764  14.728 -0.7243 -0.4285  0.1516
16590TIP3   OH271184   2.209   5.157  11.084 -0.4536  0.5352  0.0219
16590TIP3    H171185   2.268   5.096  11.041 -0.5240 -0.3066  1.1023
16590TIP3    H271186   2.121   5.124  11.064 -0.5113  0.6270  0.1208
16591TIP3   OH271187   0.775   5.283   4.022 -0.3666  0.1955 -0.1871
16591TIP3    H171188   0.709   5.259   3.957 -0.2163 -1.1047  0.1079
16591TIP3    H271189   0.858   5.258   3.982 -0.1919  0.2721  0.1256
16592TIP3   OH271190   5.162   5.823  14.085  0.5884 -0.1308  0.0284
16592TIP3    H171191   5.169   5.757  14.154 -0.5099  0.1624  0.4482
16592TIP3    H271192   5.081   5.870  14.105  1.2965  1.2910 -0.3243
16593TIP3   OH271193   4.535   4.338   2.791  0.0198  0.0124  0.0615
16593TIP3    H171194   4.608   4.348   2.730  0.3211 -2.2765 -0.0446
16593TIP3    H271195   4.460   4.375   2.743  0.5775 -0.1549 -0.9823
16594TIP3   OH271196   6.246   6.519  11.760 -0.4389  0.4041 -0.0803
16594TIP3    H171197   6.215   6.584  11.697 -1.7546 -2.5502 -2.8034
16594TIP3    H271198   6.167   6.490  11.805 -0.0715 -0.1505  0.2210
16595TIP3   OH271199   2.979   4.191  11.342  0.6039 -0.8808 -0.5148
16595TIP3    H171200   3.010   4.279  11.319 -1.5689 -0.0745 -0.5700
16595TIP3    H271201   3.010   4.135  11.272  0.1764  0.2574 -1.6456
16596TIP3   OH271202   4.444   1.075   0.146 -0.3810 -0.2167  0.0221
16596TIP3    H171203   4.485   1.128   0.077 -2.5514  0.2491 -1.0024
16596TIP3    H271204   4.426   1.137   0.216  0.3442 -0.3587  0.3418
16597TIP3   OH271205   1.206   1.138   3.202 -0.5671  0.3916  0.0909
16597TIP3    H171206   1.275   1.130   3.137 -0.1183  1.6653  0.3854
16597TIP3    H271207   1.232   1.079   3.273 -0.7545 -0.5426 -0.6020
16598TIP3   OH271208   0.321   2.812  14.833  0.4250 -0.2826  0.1335
16598TIP3    H171209   0.364   2.771  14.758 -1.3617 -0.4204 -0.8725
16598TIP3    H271210   0.253   2.868  14.795 -0.0795  0.1919  1.6342
16599TIP3   OH271211   1.966   2.630   5.297 -0.3349  0.6363  0.3067
16599TIP3    H171212   1.980   2.704   5.238  2.1670 -0.9185 -1.2278
16599TIP3    H271213   1.985   2.664   5.384  2.6373  1.4330 -0.5640
16600TIP3   OH271214   5.762   1.864  16.069  0.3935 -0.6277  0.4603
16600TIP3    H171215   5.709   1.919  16.128  1.2336 -0.4905  1.1183
16600TIP3    H271216   5.785   1.922  15.996  1.9696  0.2074  1.5548
16601TIP3   OH271217   0.549   5.422   3.631 -0.4561 -0.1027 -0.4120
16601TIP3    H171218   0.570   5.513   3.653 -3.4633  0.2354  1.6735
16601TIP3    H271219   0.486   5.428   3.559 -0.2174 -0.6043 -0.6744
16602TIP3   OH271220   5.147   1.332   1.424  0.0604  0.2136 -0.4413
16602TIP3    H171221   5.067   1.297   1.385  1.3169 -2.1556 -1.0552
16602TIP3    H271222   5.148   1.424   1.399 -1.9801  0.0711 -1.2058
16603TIP3   OH271223   2.410   1.544   3.873 -0.2421 -0.1329 -0.0546
16603TIP3    H171224   2.379   1.611   3.812 -0.4109 -0.7400 -0.6414
16603TIP3    H271225   2.463   1.485   3.819  1.4108  0.5109  0.8015
16604TIP3   OH271226   0.628   5.997   4.510 -0.2809  0.6156  0.3541
16604TIP3    H171227   0.557   6.051   4.544 -0.5996 -0.1475  0.9153
16604TIP3    H271228   0.588   5.912   4.495 -0.1281  0.8828 -1.8467
16605TIP3   OH271229   1.823   2.514  14.389 -0.1080  0.3551 -0.3393
16605TIP3    H171230   1.789   2.481  14.472  0.4750 -0.9873 -0.6115
16605TIP3    H271231   1.783   2.601  14.380 -0.2078  0.5199  1.3177
16606TIP3   OH271232   2.738   6.035  13.615  0.4636  0.3290  0.5202
16606TIP3    H171233   2.726   6.111  13.558 -0.9171 -0.6203 -0.5318
16606TIP3    H271234   2.822   6.050  13.657  1.4794  1.1889 -1.6381
16607TIP3   OH271235   5.314   5.685   0.024  0.4374  0.4476  0.4818
16607TIP3    H171236   5.305   5.594  -0.006  2.7261 -0.1648  1.4572
16607TIP3    H271237   5.235   5.728  -0.007  0.0630 -1.4730 -1.4611
16608TIP3   OH271238   2.001   2.686  12.365  0.0045  0.0036 -0.0687
16608TIP3    H171239   2.080   2.739  12.378 -1.2420  2.0646 -0.5436
16608TIP3    H271240   2.026   2.598  12.395  1.5818  1.2392  2.5122
16609TIP3   OH271241   0.742   5.637  15.464 -0.7422 -0.3751  0.6202
16609TIP3    H171242   0.705   5.718  15.429 -0.1422  0.0863  1.0300
16609TIP3    H271243   0.708   5.632  15.554  0.7809  0.4806  1.2902
16610TIP3   OH271244   6.756   2.170  16.135  0.1045 -0.4219 -0.2793
16610TIP3    H171245   6.841   2.173  16.092  0.3108  1.9125  0.1550
16610TIP3    H271246   6.726   2.260  16.135 -2.4136 -1.1795 -0.4237
16611TIP3   OH271247   5.213   5.126   0.451 -0.4490  0.0614 -0.3053
16611TIP3    H171248   5.127   5.161   0.474 -0.5243  0.0612 -0.5823
16611TIP3    H271249   5.209   5.114   0.356 -0.3893 -0.6040 -0.2283
16612TIP3   OH271250   2.177   5.060  12.355 -0.2822  0.5410 -0.2293
16612TIP3    H171251   2.109   5.006  12.315 -0.6844  1.6408 -1.0963
16612TIP3    H271252   2.258   5.029  12.315 -0.4963  0.4848 -0.6263
16613TIP3   OH271253   6.400   5.167   1.116 -0.6145  0.0298 -0.2107
16613TIP3    H171254   6.438   5.145   1.201  0.9524 -0.0171 -0.8859
16613TIP3    H271255   6.372   5.258   1.124 -1.4497 -0.2819  0.6557
16614TIP3   OH271256   0.806   3.191   0.811  0.1533  0.2258  0.4240
16614TIP3    H171257   0.740   3.249   0.848 -0.5916  0.1534 -0.7137
16614TIP3    H271258   0.884   3.204   0.865 -0.1641  1.8710  0.5451
16615TIP3   OH271259   4.409   3.232  10.759 -0.0332  0.1494  0.1388
16615TIP3    H171260   4.325   3.272  10.737  0.0557  0.6678  0.7022
16615TIP3    H271261   4.387   3.145  10.792 -0.3220  0.1691  0.0005
16616TIP3   OH271262   4.308   3.678   3.239 -0.3717  0.7045 -0.3840
16616TIP3    H171263   4.246   3.730   3.188 -1.7754  0.2940  0.8221
16616TIP3    H271264   4.391   3.724   3.230 -0.6810  0.9465 -2.5414
16617TIP3   OH271265   4.551   2.620  14.494 -0.1173 -0.3365 -0.3010
16617TIP3    H171266   4.546   2.599  14.401 -0.7208 -2.3238  0.1459
16617TIP3    H271267   4.638   2.658  14.504 -0.2818  0.5277 -1.7685
16618TIP3   OH271268   2.604   1.924  10.695  0.0071 -0.8826  0.1805
16618TIP3    H171269   2.556   1.910  10.614 -0.0199 -0.7597  0.1759
16618TIP3    H271270   2.536   1.946  10.759  0.1282  0.0510  0.0016
16619TIP3   OH271271   3.943   6.600   2.130  0.3498 -0.2692  0.4356
16619TIP3    H171272   3.974   6.602   2.221 -0.2087  0.7235  0.6193
16619TIP3    H271273   4.014   6.641   2.080  0.5840 -0.6640  0.4348
16620TIP3   OH271274   4.113   4.176   2.624 -0.2001 -0.3789 -0.4779
16620TIP3    H171275   4.139   4.228   2.548 -3.3621  0.5148 -1.1101
16620TIP3    H271276   4.185   4.186   2.686  0.7031  2.2679 -1.7923
16621TIP3   OH271277   4.851   6.062  11.759 -0.0182 -0.0945  0.0676
16621TIP3    H171278   4.839   6.120  11.834  0.7071 -1.8277  1.5741
16621TIP3    H271279   4.764   6.026  11.741 -0.0657 -0.2007  0.5133
16622TIP3   OH271280   2.364   6.756  13.883 -0.6593 -0.4235 -0.2599
16622TIP3    H171281   2.376   6.814  13.807 -0.5314  0.4940  0.4419
16622TIP3    H271282   2.319   6.679  13.848 -1.7807  0.5517 -1.0369
16623TIP3   OH271283   5.340   3.966   2.860 -0.1987 -0.2175 -0.3225
16623TIP3    H171284   5.327   4.061   2.865  0.2577 -0.1438 -0.4197
16623TIP3    H271285   5.433   3.956   2.839  0.0495 -0.7116  0.9158
16624TIP3   OH271286   1.591   0.381   2.582 -0.1548 -0.0268 -0.2463
16624TIP3    H171287   1.644   0.454   2.615  0.7505  0.5416 -2.7647
16624TIP3    H271288   1.654   0.316   2.552 -0.9541 -1.5636  1.2166
16625TIP3   OH271289   6.491   1.706   1.484  0.2504 -0.1713 -0.2601
16625TIP3    H171290   6.553   1.771   1.453 -1.0406  1.2124 -0.0275
16625TIP3    H271291   6.542   1.652   1.545  1.4377  0.3551 -0.7633
16626TIP3   OH271292   1.536   2.995  11.123 -0.0493  0.0177  0.6476
16626TIP3    H171293   1.526   2.905  11.094 -0.6574 -0.3461  1.9309
16626TIP3    H271294   1.469   3.043  11.075 -2.4980 -0.9435  2.8809
16627TIP3   OH271295   1.349   0.806  12.667  0.8767 -0.0178  0.0738
16627TIP3    H171296   1.320   0.896  12.652  1.4117  0.1431  0.0220
16627TIP3    H271297   1.388   0.779  12.585 -0.5422 -0.7904 -0.3877
16628TIP3   OH271298   5.149   1.085   1.154 -0.2974 -0.2086 -0.1867
16628TIP3    H171299   5.093   1.053   1.083 -1.5213  0.0488  0.6281
16628TIP3    H271300   5.090   1.133   1.212  0.3288 -1.7571  1.8556
16629TIP3   OH271301   5.138   2.296   0.812 -0.3614 -0.0570  0.1487
16629TIP3    H171302   5.214   2.339   0.849 -0.4128  0.1306  0.0375
16629TIP3    H271303   5.076   2.290   0.884  0.0889 -0.9991  0.4691
16630TIP3   OH271304   6.181   3.685  13.398 -0.3956 -0.1010 -0.2373
16630TIP3    H171305   6.148   3.595  13.402  1.4163 -0.9026 -1.7609
16630TIP3    H271306   6.208   3.705  13.488  0.7292 -1.7371 -0.1737
16631TIP3   OH271307   0.558   6.415  11.529 -0.4494 -0.4066  0.5618
16631TIP3    H171308   0.570   6.403  11.623 -1.1965 -1.3589  0.5443
16631TIP3    H271309   0.466   6.394  11.513  0.1187 -2.2653 -0.6577
16632TIP3   OH271310   2.858   3.698   5.820  0.0170  0.3183 -0.0619
16632TIP3    H171311   2.824   3.625   5.768  1.2931  0.6726 -1.4828
16632TIP3    H271312   2.829   3.679   5.909 -3.2896  0.2817 -0.9988
16633TIP3   OH271313   4.175   5.318  17.226 -0.2864 -0.3561 -0.2460
16633TIP3    H171314   4.218   5.399  17.255 -0.5721  0.3880 -1.7677
16633TIP3    H271315   4.209   5.250  17.284  1.1958  0.5989  0.0641
16634TIP3   OH271316   4.613   5.952   2.972 -0.6378  0.2755 -0.8162
16634TIP3    H171317   4.549   6.010   2.931  0.4685  0.8277 -1.8148
16634TIP3    H271318   4.632   5.992   3.056 -0.9665  0.5652 -0.8785
16635TIP3   OH271319   4.282   3.855   1.332  0.2571  0.2249  0.0635
16635TIP3    H171320   4.251   3.920   1.394 -1.4925 -0.3139 -0.1810
16635TIP3    H271321   4.217   3.785   1.336  1.6465 -1.1553 -0.2726
16636TIP3   OH271322   3.610   3.038  15.415 -0.5301  0.1170  0.0751
16636TIP3    H171323   3.516   3.020  15.406 -0.4215 -0.8607  0.7633
16636TIP3    H271324   3.614   3.132  15.432 -1.3582  0.2445 -0.3682
16637TIP3   OH271325   0.222   3.942  15.517  0.3415  0.1367 -0.2233
16637TIP3    H171326   0.235   4.021  15.571  0.1693  1.4923 -2.0634
16637TIP3    H271327   0.130   3.946  15.491  0.5389 -0.2176 -0.9913
16638TIP3   OH271328   4.020   6.414  13.342  0.3299 -0.3637  0.3695
16638TIP3    H171329   4.043   6.360  13.417  2.2444 -1.0103 -0.6078
16638TIP3    H271330   4.096   6.407  13.284 -0.1443  1.9107 -0.6178
16639TIP3   OH271331   3.157   1.436  13.390 -0.0089  0.1104  0.7899
16639TIP3    H171332   3.213   1.392  13.325 -1.7945  1.8099 -2.1065
16639TIP3    H271333   3.115   1.364  13.437  1.7051 -1.2068  0.4206
16640TIP3   OH271334   0.709   3.704  16.969  1.0253 -0.1281 -0.8651
16640TIP3    H171335   0.737   3.615  16.988  0.0912 -0.2942 -0.1994
16640TIP3    H271336   0.614   3.697  16.958  1.1571  0.4647 -2.6974
16641TIP3   OH271337   1.064   0.375   0.694  0.0647 -0.2739 -0.2233
16641TIP3    H171338   0.990   0.318   0.716 -0.1769  0.4289  0.9043
16641TIP3    H271339   1.138   0.339   0.744  1.0945 -2.2499 -2.9681
16642TIP3   OH271340   5.169   2.645   6.463  0.1144 -0.0873 -0.2063
16642TIP3    H171341   5.168   2.733   6.425 -0.3916 -0.0231 -0.0518
16642TIP3    H271342   5.261   2.628   6.482  0.0673  0.9996  1.1343
16643TIP3   OH271343   1.224   4.526  11.544 -0.0481  0.2262 -1.0350
16643TIP3    H171344   1.165   4.451  11.554  0.3420  0.0799  0.2524
16643TIP3    H271345   1.185   4.577  11.472  0.0400 -1.5109 -2.3834
16644TIP3   OH271346   1.596   4.675  14.407  0.0274  0.0824  0.5059
16644TIP3    H171347   1.543   4.627  14.471 -0.2498  0.2646  0.4143
16644TIP3    H271348   1.533   4.717  14.349  0.2798 -0.1311  0.0716
16645TIP3   OH271349   1.201   6.028   5.016 -0.5970 -0.6078  0.0183
16645TIP3    H171350   1.274   6.011   4.957  0.1571 -0.9343  1.0348
16645TIP3    H271351   1.230   6.102   5.070 -1.4524 -0.0288 -0.2838
16646TIP3   OH271352   0.699   3.082  16.658 -0.1265 -0.6440  0.5040
16646TIP3    H171353   0.794   3.090  16.643 -0.3377 -1.1675 -1.3478
16646TIP3    H271354   0.670   3.172  16.675  0.3373 -0.0652 -1.5198
16647TIP3   OH271355   4.063   5.630  14.530 -0.3617  0.4399  0.0407
16647TIP3    H171356   4.137   5.596  14.580 -0.4316 -0.8700 -0.7033
16647TIP3    H271357   4.103   5.692  14.468  0.3533 -1.3040 -1.3218
16648TIP3   OH271358   3.079   4.955  16.456 -0.1974 -0.6052 -0.3975
16648TIP3    H171359   3.097   4.982  16.546  0.5933 -0.2813 -0.6420
16648TIP3    H271360   3.164   4.963  16.412  0.1078 -3.4226 -0.5067
16649TIP3   OH271361   6.642   0.665   3.651  0.7086  0.3351 -0.2627
16649TIP3    H171362   6.618   0.610   3.577 -2.5973  0.6821  0.4114
16649TIP3    H271363   6.637   0.607   3.727  0.4236  0.8220  0.0942
16650TIP3   OH271364   4.780   3.850  11.401  0.5427 -0.6457 -0.3747
16650TIP3    H171365   4.788   3.846  11.305 -1.4012 -0.4008 -0.5900
16650TIP3    H271366   4.750   3.940  11.419 -1.1658 -1.2976  0.2400
16651TIP3   OH271367   4.810   1.443  15.164 -0.0440 -0.1560 -0.3711
16651TIP3    H171368   4.797   1.480  15.252 -0.4293  0.8061 -0.8210
16651TIP3    H271369   4.902   1.414  15.164 -0.2759 -0.9860  0.6339
16652TIP3   OH271370   5.849   2.875  13.743  0.6906  0.6142  0.4688
16652TIP3    H171371   5.834   2.865  13.649  0.7815  2.2127  0.2450
16652TIP3    H271372   5.924   2.819  13.762 -0.4283 -1.1349 -0.0217
16653TIP3   OH271373   6.389   4.952  11.244 -0.0854 -0.1128  0.1367
16653TIP3    H171374   6.455   5.004  11.291  0.2648  0.1075 -0.5826
16653TIP3    H271375   6.326   4.927  11.312  0.4626  0.1101  0.7427
16654TIP3   OH271376   2.910   4.720   2.616  0.2912  0.0574 -0.3777
16654TIP3    H171377   2.993   4.685   2.583 -0.2802 -2.3772  0.6106
16654TIP3    H271378   2.924   4.728   2.710 -0.7802 -0.9396 -0.1256
16655TIP3   OH271379   2.732   0.841  17.352 -0.3086 -0.3571 -0.4735
16655TIP3    H171380   2.683   0.861  17.431 -2.0536 -1.5444 -1.2049
16655TIP3    H271381   2.797   0.776  17.378 -0.5270 -0.3568  0.0641
16656TIP3   OH271382   2.179   5.496   0.107 -0.5976 -0.1335 -0.1938
16656TIP3    H171383   2.136   5.444   0.175  0.4983  0.3876  0.9511
16656TIP3    H271384   2.267   5.511   0.141  0.3940 -0.8469 -2.2872
16657TIP3   OH271385   2.800   6.267  13.829 -0.4713 -0.6632  0.0806
16657TIP3    H171386   2.878   6.297  13.782 -0.6719 -0.3923 -0.0776
16657TIP3    H271387   2.764   6.345  13.870  1.3436 -1.2793  3.2148
16658TIP3   OH271388   4.830   5.978   4.120  0.0169 -0.2529  0.3539
16658TIP3    H171389   4.869   6.006   4.203 -0.7154  0.9197  0.3200
16658TIP3    H271390   4.742   6.015   4.121 -0.3003 -0.9312 -0.5865
16659TIP3   OH271391   3.305   6.558  15.789  0.2035  0.0264  0.6072
16659TIP3    H171392   3.251   6.600  15.857  0.7002  0.9705  0.4427
16659TIP3    H271393   3.302   6.465  15.810 -0.6247  0.1755  1.2193
16660TIP3   OH271394   3.906   3.369   5.382  0.2740  0.1780  0.3397
16660TIP3    H171395   3.906   3.419   5.301  2.1721  1.3699  0.9983
16660TIP3    H271396   3.819   3.383   5.419  0.0522  1.2591 -0.5324
16661TIP3   OH271397   5.960   6.542   5.766 -0.1554 -0.1306 -0.0372
16661TIP3    H171398   5.881   6.564   5.815 -0.9799  0.2112 -1.4740
16661TIP3    H271399   5.985   6.623   5.723  1.6893  0.0786  1.2999
16662TIP3   OH271400   5.139   1.669   1.777 -0.3562 -0.6211  0.5396
16662TIP3    H171401   5.202   1.728   1.736 -0.3311 -1.3069 -0.4532
16662TIP3    H271402   5.189   1.589   1.795 -0.8915 -1.1231 -0.1335
16663TIP3   OH271403   3.859   0.299  10.721  0.4762  0.3925 -0.4159
16663TIP3    H171404   3.939   0.318  10.770 -1.1265 -0.2110  2.7436
16663TIP3    H271405   3.875   0.214  10.680  1.3169  0.0355  0.6040
16664TIP3   OH271406   4.392   1.637   2.834  0.2492 -0.8593 -0.3001
16664TIP3    H171407   4.337   1.566   2.801  0.2482 -0.6505 -0.7537
16664TIP3    H271408   4.335   1.714   2.835  0.2006 -0.8999  0.3558
16665TIP3   OH271409   1.643   2.230   4.480 -0.1334  0.1485  0.1307
16665TIP3    H171410   1.648   2.248   4.386 -1.9377  1.6325  0.2502
16665TIP3    H271411   1.733   2.215   4.507  0.5493  0.8651 -1.6304
16666TIP3   OH271412   6.414   2.189   4.816 -0.0741 -0.4325 -0.0426
16666TIP3    H171413   6.440   2.224   4.731  0.2379  0.6411  0.4733
16666TIP3    H271414   6.357   2.115   4.795  0.3829 -0.4805 -1.1787
16667TIP3   OH271415   2.900   3.482  14.851  0.2574 -0.2069  0.2576
16667TIP3    H171416   2.884   3.490  14.945  1.4077 -0.5669  0.4904
16667TIP3    H271417   2.862   3.397  14.828  0.9606 -0.6184  0.6140
16668TIP3   OH271418   4.885   5.348  12.511  0.1022 -0.5297  0.2016
16668TIP3    H171419   4.946   5.343  12.437  0.4998  0.5686  0.4238
16668TIP3    H271420   4.808   5.298  12.483 -0.0647  0.4912 -1.2812
16669TIP3   OH271421   2.252   3.094   3.838  1.2433  0.0331  0.0768
16669TIP3    H171422   2.344   3.119   3.848  1.9275 -1.5705 -1.6375
16669TIP3    H271423   2.255   3.011   3.790 -1.0137 -1.4333  2.2446
16670TIP3   OH271424   6.693   5.814   6.017  0.1163 -0.2596 -1.0963
16670TIP3    H171425   6.718   5.729   6.054  0.7826 -0.2321 -1.4630
16670TIP3    H271426   6.759   5.832   5.951  0.5556  0.9986 -0.3687
16671TIP3   OH271427   3.323   1.379  12.138 -0.2692 -0.0057  0.0875
16671TIP3    H171428   3.247   1.377  12.079  0.0698  0.4920 -0.3781
16671TIP3    H271429   3.318   1.297  12.187 -0.2556 -0.6886 -1.0161
16672TIP3   OH271430   2.312   1.629   1.937 -0.1929 -0.3552 -0.5031
16672TIP3    H171431   2.315   1.678   1.855 -0.3947 -0.5454 -0.6241
16672TIP3    H271432   2.267   1.688   1.998  1.7943  0.6786  0.0798
16673TIP3   OH271433   4.273   0.818  13.534 -0.1315  0.1693  0.1517
16673TIP3    H171434   4.338   0.748  13.533 -0.5659 -0.2991  1.8849
16673TIP3    H271435   4.324   0.897  13.550  0.2293  0.0877 -0.5674
16674TIP3   OH271436   4.193   0.545  15.723 -0.6099  0.2396  0.0130
16674TIP3    H171437   4.108   0.541  15.767 -1.3100 -2.9941 -1.3322
16674TIP3    H271438   4.180   0.610  15.653 -1.0397  1.7580  1.4377
16675TIP3   OH271439   4.311   1.406  14.341 -0.3210  0.1154  0.1893
16675TIP3    H171440   4.229   1.357  14.328  0.9284 -1.9493 -0.4484
16675TIP3    H271441   4.358   1.396  14.259  0.5246  1.3867  0.4968
16676TIP3   OH271442   2.479   4.631  13.378  0.0965 -0.7005 -0.2024
16676TIP3    H171443   2.555   4.675  13.415 -0.9390  1.2546 -0.2475
16676TIP3    H271444   2.440   4.583  13.451 -0.6317  1.2613  0.7875
16677TIP3   OH271445   0.679   5.206   6.248 -0.2710  0.1010  0.6329
16677TIP3    H171446   0.628   5.267   6.302  0.1883  0.7551  0.3356
16677TIP3    H271447   0.614   5.167   6.189 -0.3944  1.0988  0.1008
16678TIP3   OH271448   4.045   5.280   2.836 -0.1475  0.1758  0.0521
16678TIP3    H171449   4.051   5.357   2.780 -0.4407  1.8165  2.1693
16678TIP3    H271450   4.112   5.293   2.903 -1.6907 -0.2474  1.7704
16679TIP3   OH271451   2.826   1.146   4.018  0.5282  0.5857 -0.1585
16679TIP3    H171452   2.883   1.096   3.959 -1.0100  1.0095 -2.1101
16679TIP3    H271453   2.877   1.225   4.039  1.4780 -0.0171 -0.1327
16680TIP3   OH271454   2.834   5.427  14.083 -0.3184  0.3475  0.5486
16680TIP3    H171455   2.913   5.380  14.056 -0.0459  0.9224  0.3428
16680TIP3    H271456   2.828   5.412  14.178 -0.2942 -0.1815  0.4723
16681TIP3   OH271457   4.151   5.393  12.600  0.0320 -0.0230 -0.2305
16681TIP3    H171458   4.123   5.323  12.541  3.6058 -1.8993  0.0294
16681TIP3    H271459   4.188   5.460  12.542  0.8798 -0.5405 -0.3050
16682TIP3   OH271460   5.499   6.476   2.432  0.0674 -0.2399  0.5176
16682TIP3    H171461   5.520   6.553   2.485 -1.9729 -0.9769  2.5324
16682TIP3    H271462   5.571   6.415   2.449  0.9454  0.6470  0.0632
16683TIP3   OH271463   2.244   4.561  10.810 -0.0805  0.4176  0.6085
16683TIP3    H171464   2.207   4.650  10.809 -1.4573 -0.1181  0.4023
16683TIP3    H271465   2.338   4.574  10.821 -0.4234  1.8440  2.5615
16684TIP3   OH271466   4.563   6.171   3.670  0.7705  0.2663 -0.1943
16684TIP3    H171467   4.590   6.104   3.732  1.3155 -0.4856 -1.2091
16684TIP3    H271468   4.509   6.232   3.721  0.0943 -1.0532  0.7005
16685TIP3   OH271469   2.008   0.070   0.295  0.2045 -0.1783 -0.5026
16685TIP3    H171470   2.089   0.066   0.244  0.1123  1.2338 -0.7985
16685TIP3    H271471   2.015   0.153   0.344 -0.7513 -0.3808  0.0010
16686TIP3   OH271472   6.462   0.890  14.116 -0.2257  0.1011  0.1761
16686TIP3    H171473   6.385   0.835  14.129  0.7752 -1.9588 -1.7939
16686TIP3    H271474   6.533   0.842  14.159  0.2484  1.0956  0.5198
16687TIP3   OH271475   4.761   1.704  11.030  0.1615 -0.2968 -0.1545
16687TIP3    H171476   4.842   1.655  11.015  1.5842  2.0459 -0.4937
16687TIP3    H271477   4.737   1.681  11.120  1.1817 -1.0369 -0.0453
16688TIP3   OH271478   6.163   3.974   1.276  1.0097 -0.4885 -0.2528
16688TIP3    H171479   6.245   3.961   1.325  0.7345  2.1464  1.1464
16688TIP3    H271480   6.167   4.066   1.249 -1.8049 -0.0478  0.5467
16689TIP3   OH271481   4.621   0.791  11.718  0.7572  0.4552  0.3082
16689TIP3    H171482   4.692   0.798  11.781  0.2393 -2.2475  1.3422
16689TIP3    H271483   4.658   0.824  11.636  1.9312  2.6382  1.6449
16690TIP3   OH271484   1.436   0.548   0.378  0.5460  0.5003  0.4650
16690TIP3    H171485   1.434   0.467   0.327  2.2577  2.2791 -2.8146
16690TIP3    H271486   1.514   0.541   0.433 -1.3903 -1.5021  3.2074
16691TIP3   OH271487   5.384   5.829   5.097  0.0473 -0.1763  0.2249
16691TIP3    H171488   5.391   5.800   5.188 -1.2764 -0.2659  0.3244
16691TIP3    H271489   5.406   5.922   5.100  0.4519 -0.2775  0.5598
16692TIP3   OH271490   5.730   3.176   3.827  1.4168 -0.9887  0.0491
16692TIP3    H171491   5.673   3.168   3.904  1.6284 -0.4202  0.2723
16692TIP3    H271492   5.819   3.175   3.864  1.5253 -0.9593 -0.2135
16693TIP3   OH271493   5.230   1.246   3.962 -0.0243 -0.3302 -0.3608
16693TIP3    H171494   5.158   1.283   3.911  0.4726  0.3224 -0.6110
16693TIP3    H271495   5.273   1.322   4.001  1.2462 -0.5905 -1.1916
16694TIP3   OH271496   5.377   4.467   0.047 -0.0500 -0.3544 -0.4455
16694TIP3    H171497   5.433   4.400   0.010  1.8020  0.2574  1.1000
16694TIP3    H271498   5.298   4.465  -0.007 -0.4698 -4.3358  0.0704
16695TIP3   OH271499   3.874   5.131  13.320  0.4515 -0.8660 -0.6527
16695TIP3    H171500   3.846   5.051  13.274 -0.6515 -0.5284 -0.5863
16695TIP3    H271501   3.899   5.191  13.250 -1.2421 -0.3471 -0.8431
16696TIP3   OH271502   2.263   4.899  13.955  0.1532 -0.3223 -0.3470
16696TIP3    H171503   2.187   4.861  13.999  0.1262  1.8661  1.6947
16696TIP3    H271504   2.226   4.951  13.884 -0.5619  2.3300  1.8184
16697TIP3   OH271505   5.585   3.045  12.363 -0.2618 -0.1020  0.3856
16697TIP3    H171506   5.650   2.996  12.314  3.6270  2.6617  2.2843
16697TIP3    H271507   5.546   3.104  12.298  3.0444  1.8212 -0.0672
16698TIP3   OH271508   2.160   2.969  15.501 -0.5952  0.6689 -0.1032
16698TIP3    H171509   2.203   2.957  15.417  1.8046  1.2881  0.9703
16698TIP3    H271510   2.067   2.976  15.479 -0.2669 -1.0454 -2.4937
16699TIP3   OH271511   1.501   6.761  12.003 -0.0376  0.3829 -0.1823
16699TIP3    H171512   1.433   6.701  11.973 -2.3050  2.0421  1.3514
16699TIP3    H271513   1.520   6.817  11.927 -1.5565  0.8951 -0.2057
16700TIP3   OH271514   3.729   1.918   2.105 -0.2208  0.6345  0.1003
16700TIP3    H171515   3.643   1.881   2.090  0.1068 -0.3748  0.6273
16700TIP3    H271516   3.765   1.933   2.017  0.2964 -1.9075 -0.2122
16701TIP3   OH271517   6.190   4.628  14.648 -0.0817  0.1008 -0.0227
16701TIP3    H171518   6.127   4.608  14.578 -1.3380 -1.6726  1.5002
16701TIP3    H271519   6.250   4.691  14.609  0.3027 -2.0106 -3.2534
16702TIP3   OH271520   3.304   5.045  11.474 -0.2693 -0.2613 -0.2215
16702TIP3    H171521   3.247   5.077  11.404  1.3328  0.0081 -1.4683
16702TIP3    H271522   3.389   5.086  11.457  0.0493  0.2366  2.2256
16703TIP3   OH271523   4.473   2.371   0.424  0.2859  0.2284 -0.1097
16703TIP3    H171524   4.382   2.398   0.410 -0.0584 -1.1714 -0.7770
16703TIP3    H271525   4.472   2.276   0.406  1.9485  0.2651 -0.4980
16704TIP3   OH271526   5.164   2.294   6.332  0.0713  0.1126 -0.1668
16704TIP3    H171527   5.077   2.330   6.345 -0.0781  0.0085 -0.8713
16704TIP3    H271528   5.169   2.220   6.393 -0.8132 -0.6987 -1.0427
16705TIP3   OH271529   3.959   6.677   6.626  0.3513  0.5553 -0.5604
16705TIP3    H171530   3.966   6.752   6.685  1.9572  1.0121 -1.2567
16705TIP3    H271531   4.049   6.648   6.613 -0.0569 -0.2462 -1.8665
16706TIP3   OH271532   0.281   6.059   6.698 -0.0052  0.6822 -0.1389
16706TIP3    H171533   0.353   6.003   6.670 -1.8908 -1.2708 -1.3618
16706TIP3    H271534   0.258   6.028   6.785 -0.0578  0.5914 -0.1854
16707TIP3   OH271535   2.814   0.652   5.561 -0.7746  0.0387 -0.4074
16707TIP3    H171536   2.756   0.604   5.620 -2.7096  1.8414 -0.7059
16707TIP3    H271537   2.838   0.588   5.494 -0.0650 -1.5202  1.2443
16708TIP3   OH271538   0.973   5.183   0.906  0.0770 -0.1280 -0.5942
16708TIP3    H171539   1.004   5.274   0.905  3.4748 -1.1793 -1.3463
16708TIP3    H271540   0.920   5.175   0.826 -0.5437  1.2569 -0.3443
16709TIP3   OH271541   1.153   3.105   2.944  0.1716  0.4400 -0.4263
16709TIP3    H171542   1.143   3.012   2.967  0.2044  0.3358 -0.8222
16709TIP3    H271543   1.132   3.152   3.025  2.0096  0.0344  0.3456
16710TIP3   OH271544   0.732   1.433  12.997 -0.4167 -0.1484  0.4717
16710TIP3    H171545   0.759   1.438  13.089  0.1961  0.8218  0.2490
16710TIP3    H271546   0.651   1.381  12.999  0.7452 -2.0432  1.3059
16711TIP3   OH271547   2.562   2.153   5.604 -0.1415 -0.0182 -0.5551
16711TIP3    H171548   2.605   2.238   5.594 -0.1010 -0.1334 -1.4100
16711TIP3    H271549   2.613   2.109   5.672  0.4454  0.2637 -0.8013
16712TIP3   OH271550   6.502   4.797   2.588  0.0414  0.5206  0.1825
16712TIP3    H171551   6.526   4.754   2.505  0.0953  1.3157 -0.2188
16712TIP3    H271552   6.466   4.882   2.562  0.6770  1.0603  1.0128
16713TIP3   OH271553   0.346   1.815   3.222 -0.3633 -0.0823  0.4982
16713TIP3    H171554   0.438   1.802   3.248 -0.3360 -1.5973 -0.2651
16713TIP3    H271555   0.342   1.783   3.132 -1.8675 -1.0019  0.8694
16714TIP3   OH271556   1.308   6.515   3.018  0.6963 -0.4960  0.6177
16714TIP3    H171557   1.265   6.467   2.947  0.2228 -0.8680  1.1478
16714TIP3    H271558   1.250   6.505   3.093  1.2352 -0.1850  1.0881
16715TIP3   OH271559   0.870   5.615  17.020  0.3225 -0.3829 -0.0251
16715TIP3    H171560   0.955   5.658  17.022  0.1199  0.0933 -0.9872
16715TIP3    H271561   0.852   5.603  16.926 -0.9632  0.1272  0.1467
16716TIP3   OH271562   1.530   5.936   4.203 -0.0738  0.0803 -0.0372
16716TIP3    H171563   1.607   5.941   4.146  0.7516  1.1222  1.1316
16716TIP3    H271564   1.504   6.027   4.216 -1.8124 -0.2650 -0.7718
16717TIP3   OH271565   5.219   6.206   0.519 -0.2625  0.3316 -0.2695
16717TIP3    H171566   5.269   6.263   0.578 -1.6668  0.7540  0.5675
16717TIP3    H271567   5.133   6.198   0.561 -0.9168 -0.3466 -1.6692
16718TIP3   OH271568   4.260   0.528  17.104  0.2369  0.6210  0.3042
16718TIP3    H171569   4.206   0.502  17.179 -0.8367  1.5251 -0.1232
16718TIP3    H271570   4.273   0.622  17.114  3.0398  0.2322  1.1788
16719TIP3   OH271571   0.813   4.535  14.352  0.1435 -0.6574 -0.0934
16719TIP3    H171572   0.842   4.624  14.373  0.4483 -1.0313  1.1569
16719TIP3    H271573   0.727   4.528  14.392 -0.0993 -0.7667 -0.6275
16720TIP3   OH271574   3.437   3.402   5.469 -0.3793  0.0153 -0.5468
16720TIP3    H171575   3.364   3.426   5.413 -0.2284  0.8461 -0.3882
16720TIP3    H271576   3.426   3.453   5.549 -0.9744 -1.6673  0.4993
16721TIP3   OH271577   6.107   5.704   2.946  0.3451  0.3195 -0.3627
16721TIP3    H171578   6.190   5.734   2.910  0.2965  2.8750  1.3582
16721TIP3    H271579   6.127   5.682   3.037 -1.0089  1.9586  0.3755
16722TIP3   OH271580   3.918   2.354   4.257  0.0317  0.1309  0.4658
16722TIP3    H171581   4.002   2.358   4.210  1.2886  2.3457  2.6810
16722TIP3    H271582   3.939   2.310   4.339 -1.9243 -2.8005 -0.4636
16723TIP3   OH271583   6.627   4.350  12.733  0.2961 -0.0920  0.2574
16723TIP3    H171584   6.630   4.257  12.712  1.0653  0.1405 -0.7240
16723TIP3    H271585   6.538   4.364  12.765 -1.4992 -0.2857 -3.9388
16724TIP3   OH271586   6.047   5.040  10.700 -0.4021 -0.0040  0.6725
16724TIP3    H171587   5.999   4.997  10.630  1.5391  2.0229 -2.1629
16724TIP3    H271588   5.981   5.092  10.746 -1.6764 -1.0679  0.1122
16725TIP3   OH271589   5.503   5.646  12.707  0.0645 -0.3769 -0.4701
16725TIP3    H171590   5.419   5.691  12.720  0.5988  0.5943 -0.2980
16725TIP3    H271591   5.519   5.653  12.613  0.5527  0.5614 -0.3295
16726TIP3   OH271592   3.632   2.439  13.492 -0.3882 -0.1893 -0.0412
16726TIP3    H171593   3.548   2.411  13.529  0.2531 -1.0819  0.7733
16726TIP3    H271594   3.659   2.368  13.434 -0.4806  0.3733 -0.7903
16727TIP3   OH271595   5.199   5.431  12.814 -0.0832 -0.3483 -0.6607
16727TIP3    H171596   5.153   5.458  12.735 -0.5428  0.6376 -0.0768
16727TIP3    H271597   5.169   5.492  12.882  3.3622  1.5364 -0.5936
16728TIP3   OH271598   1.544   6.755  15.593  0.9331 -0.5465 -0.2217
16728TIP3    H171599   1.609   6.702  15.547  0.6284 -1.6058  0.5161
16728TIP3    H271600   1.479   6.776  15.526  1.8133  0.1843 -0.8677
16729TIP3   OH271601   5.377   3.605   4.254  0.0017 -0.0521 -0.2502
16729TIP3    H171602   5.336   3.522   4.279 -1.0691  0.8286  1.0669
16729TIP3    H271603   5.345   3.623   4.166  0.2717 -1.0293 -0.5631
16730TIP3   OH271604   2.539   5.156   5.468  0.0570  0.1022 -0.4534
16730TIP3    H171605   2.541   5.118   5.381  0.3030 -2.2156  0.4974
16730TIP3    H271606   2.540   5.251   5.453  2.0715 -0.2100 -2.8931
16731TIP3   OH271607   5.576   2.515   5.370 -0.0685  0.2876  0.0226
16731TIP3    H171608   5.649   2.454   5.381 -1.0536 -1.1010 -0.7766
16731TIP3    H271609   5.498   2.459   5.371 -1.0345  1.5760 -0.4157
16732TIP3   OH271610   0.774   1.863   5.294  0.3494  0.9028 -0.1157
16732TIP3    H171611   0.716   1.935   5.321 -2.1442 -0.2436 -2.0292
16732TIP3    H271612   0.754   1.849   5.202  1.9738 -1.1750 -0.2249
16733TIP3   OH271613   0.004   5.108   4.322 -0.6137  0.4264  0.0894
16733TIP3    H171614   0.070   5.056   4.367 -0.6076  1.2140  1.0197
16733TIP3    H271615  -0.043   5.045   4.267  0.6461 -0.2091 -0.3001
16734TIP3   OH271616   1.762   0.027  16.222  0.1660  0.3037  0.1290
16734TIP3    H171617   1.798   0.043  16.135  1.6816 -0.5699  0.5589
16734TIP3    H271618   1.760  -0.068  16.230  1.9259  0.3397  1.7482
16735TIP3   OH271619   3.780   0.582   5.536 -0.5089 -0.4576  0.7945
16735TIP3    H171620   3.874   0.591   5.549 -0.4429 -0.2186  0.2130
16735TIP3    H271621   3.770   0.576   5.441 -1.0633 -0.6927  0.8624
16736TIP3   OH271622   4.393   5.341   5.116  0.1190 -0.0389  0.5812
16736TIP3    H171623   4.444   5.364   5.038 -0.1508  1.7028  0.8814
16736TIP3    H271624   4.449   5.280   5.163  0.6801 -0.4011 -0.5146
16737TIP3   OH271625   2.294   5.122  11.896 -0.6814 -0.2206  0.6064
16737TIP3    H171626   2.300   5.174  11.815  0.4446  0.4168  1.0658
16737TIP3    H271627   2.233   5.171  11.951 -0.3357  0.1421  0.6799
16738TIP3   OH271628   3.902   1.576  15.808 -0.1698  0.5979  0.3529
16738TIP3    H171629   3.885   1.619  15.724 -0.5103  0.5673  0.4040
16738TIP3    H271630   3.966   1.508  15.788 -1.2528 -0.3164 -0.1603
16739TIP3   OH271631   6.103   2.347  11.881 -0.1915  0.4770  0.4508
16739TIP3    H171632   6.028   2.330  11.823 -0.6183  0.0865  1.1039
16739TIP3    H271633   6.180   2.330  11.827 -0.5698 -2.5454  0.7032
16740TIP3   OH271634   0.726   6.383   6.396 -0.1130 -0.0902  0.6920
16740TIP3    H171635   0.658   6.394   6.330 -2.2611  0.6791  2.8683
16740TIP3    H271636   0.699   6.306   6.446  1.2488 -0.4469  0.9094
16741TIP3   OH271637   4.714   3.572   4.440 -0.5746 -0.0296  0.4477
16741TIP3    H171638   4.730   3.553   4.348 -0.8697 -1.0635  0.6007
16741TIP3    H271639   4.686   3.664   4.440  0.4285  0.2977 -0.3609
16742TIP3   OH271640   0.185   4.317   2.711  0.2516  0.1882 -0.0177
16742TIP3    H171641   0.174   4.229   2.674 -0.7136  0.4681 -0.4216
16742TIP3    H271642   0.241   4.362   2.647 -0.5188  0.3326 -0.6075
16743TIP3   OH271643   2.754   1.952   0.934 -0.1024  0.1135  0.0795
16743TIP3    H171644   2.771   1.961   1.028 -2.8462  2.9907  0.4607
16743TIP3    H271645   2.808   2.020   0.894 -0.3215  0.0983 -0.2401
16744TIP3   OH271646   2.771   3.149   5.954 -0.3055 -0.2443 -0.3973
16744TIP3    H171647   2.793   3.229   6.002  0.0556 -0.2319 -0.5790
16744TIP3    H271648   2.692   3.117   5.996 -0.5220  0.2753 -0.3996
16745TIP3   OH271649   6.635   5.435  16.963 -0.3252  0.5810  0.4345
16745TIP3    H171650   6.539   5.436  16.964 -0.4095  0.7703 -1.8737
16745TIP3    H271651   6.658   5.350  16.999 -1.2850  1.0566  2.2748
16746TIP3   OH271652   1.566   0.295   0.363 -0.4511 -0.0179 -0.5623
16746TIP3    H171653   1.581   0.207   0.398 -2.2970 -0.1882 -0.1128
16746TIP3    H271654   1.609   0.353   0.426 -2.2559 -0.4248  1.1434
16747TIP3   OH271655   3.555   0.633  13.832  0.4507 -0.4165  0.2487
16747TIP3    H171656   3.513   0.710  13.795  0.8573 -0.9589 -1.4180
16747TIP3    H271657   3.590   0.663  13.916  2.4263  1.8257 -1.2440
16748TIP3   OH271658   3.627   5.899  15.663  0.1017 -0.0944  0.4489
16748TIP3    H171659   3.585   5.939  15.587  1.3111  1.7024  0.6728
16748TIP3    H271660   3.708   5.862  15.629 -0.9179 -2.3204  0.2802
16749TIP3   OH271661   0.305   2.340   3.340 -0.2118 -0.2263  0.0613
16749TIP3    H171662   0.307   2.253   3.301  2.3681 -0.4451  0.4994
16749TIP3    H271663   0.304   2.400   3.266  0.7967 -0.6349 -0.2911
16750TIP3   OH271664   3.374   6.260  16.802 -0.1552 -0.0492  0.1970
16750TIP3    H171665   3.354   6.348  16.834  0.1682 -0.4695  1.6363
16750TIP3    H271666   3.308   6.244  16.735  0.1299  1.4976 -0.5125
16751TIP3   OH271667   3.531   4.539  11.463  0.9542 -0.0859 -0.5601
16751TIP3    H171668   3.608   4.558  11.516  0.1244 -1.3031  1.1863
16751TIP3    H271669   3.474   4.488  11.521  0.1279 -1.8083 -2.7493
16752TIP3   OH271670   1.289   4.780   4.029 -0.3933 -0.8469  0.2048
16752TIP3    H171671   1.350   4.844   4.067 -1.7436  0.1295  0.8004
16752TIP3    H271672   1.330   4.756   3.945  0.8220 -0.2554  0.5926
16753TIP3   OH271673   2.206   5.742   4.884 -0.6322  0.5408 -0.6008
16753TIP3    H171674   2.226   5.829   4.847 -0.7953  0.5139 -0.7546
16753TIP3    H271675   2.115   5.726   4.859  0.3195 -1.1124 -3.4789
16754TIP3   OH271676   4.113   1.344   5.403  0.4969  0.2962 -0.2659
16754TIP3    H171677   4.195   1.352   5.355  1.5857  0.5783  1.5644
16754TIP3    H271678   4.086   1.434   5.420  1.2424  0.2520  1.3979
16755TIP3   OH271679   1.714   0.450   0.133  0.9681  0.2660  0.2487
16755TIP3    H171680   1.723   0.543   0.111  1.5411 -0.0441 -0.9461
16755TIP3    H271681   1.782   0.434   0.198  0.7193  0.7271  0.6293
16756TIP3   OH271682   5.997   4.443  11.182 -0.1716  0.1938 -0.0998
16756TIP3    H171683   6.037   4.379  11.124 -0.3013 -0.0790  0.1105
16756TIP3    H271684   5.910   4.457  11.146  0.1651  0.9342 -0.6712
16757TIP3   OH271685   0.266   4.371   3.480 -0.1794 -0.1158 -0.2843
16757TIP3    H171686   0.191   4.322   3.447 -0.8666  0.1897  0.7742
16757TIP3    H271687   0.259   4.365   3.575  2.0383 -1.4415 -0.1282
16758TIP3   OH271688   2.725   0.565   0.607  0.2324  0.2266 -0.2033
16758TIP3    H171689   2.770   0.524   0.533 -1.5892 -0.7758 -0.8279
16758TIP3    H271690   2.637   0.529   0.604 -0.3671  1.4195  1.5018
16759TIP3   OH271691   0.857   1.962   1.790  0.3522 -0.8945 -0.3162
16759TIP3    H171692   0.792   1.898   1.760 -0.7295 -0.3306  0.7496
16759TIP3    H271693   0.891   1.926   1.871 -0.5882  0.0612  0.5270
16760TIP3   OH271694   4.647   4.469   6.157 -0.6269  0.3801 -0.0841
16760TIP3    H171695   4.603   4.500   6.078 -2.9330  1.7726  1.6168
16760TIP3    H271696   4.659   4.548   6.210  2.4129 -0.2549  0.3230
16761TIP3   OH271697   4.933   4.934  12.543  0.4274 -0.3030  0.2729
16761TIP3    H171698   5.012   4.953  12.492  0.5285  0.1724  0.5944
16761TIP3    H271699   4.935   4.840  12.556  1.4988 -0.1863  1.1479
16762TIP3   OH271700   0.578   4.120  15.782  0.3203 -0.2045  0.2036
16762TIP3    H171701   0.591   4.035  15.739  1.1302 -0.4322  0.8701
16762TIP3    H271702   0.580   4.100  15.876 -0.0065  0.4795  0.3588
16763TIP3   OH271703   6.032   2.240   4.421  0.7439 -0.8649  0.2605
16763TIP3    H171704   6.051   2.150   4.448  0.2327 -0.9752  0.2486
16763TIP3    H271705   6.072   2.294   4.490  1.7292 -1.0651 -0.1285
16764TIP3   OH271706   2.320   3.858  16.953  0.2243  0.0358  0.4708
16764TIP3    H171707   2.225   3.844  16.952 -0.0274  1.5370  0.3643
16764TIP3    H271708   2.355   3.780  16.996 -1.0597 -0.5114  0.5846
16765TIP3   OH271709   6.262   6.206  13.101 -0.0065  0.8872  0.0952
16765TIP3    H171710   6.349   6.220  13.139 -0.0714  4.2668 -0.6843
16765TIP3    H271711   6.212   6.166  13.172  2.4362 -2.6066  0.1100
16766TIP3   OH271712   5.491   6.619   0.059  0.4890 -0.1180  0.4365
16766TIP3    H171713   5.557   6.551   0.066  0.1266 -0.7195 -1.3659
16766TIP3    H271714   5.412   6.572   0.031  0.3827  1.0766 -1.4251
16767TIP3   OH271715   3.606   4.254  13.537  0.0555 -0.4182  0.4470
16767TIP3    H171716   3.579   4.328  13.482 -2.7958 -1.9810 -0.4909
16767TIP3    H271717   3.637   4.188  13.474 -0.8347 -1.2966  0.9028
16768TIP3   OH271718   3.185   2.055   3.245  0.6301 -0.2208  0.5908
16768TIP3    H171719   3.112   2.038   3.185  1.3583  1.9502 -1.0490
16768TIP3    H271720   3.143   2.086   3.325 -0.3007  0.2377 -0.0493
16769TIP3   OH271721   4.439   6.137   2.886  0.6468  0.4826  0.5898
16769TIP3    H171722   4.395   6.146   2.801 -0.5879 -0.2905  1.1159
16769TIP3    H271723   4.460   6.227   2.912  0.5060  0.7706 -0.2599
16770TIP3   OH271724   5.278   5.672  14.773  0.0152 -0.0388 -0.1825
16770TIP3    H171725   5.252   5.630  14.691 -1.8992  0.8088 -0.0645
16770TIP3    H271726   5.347   5.734  14.748  0.2951 -0.6380 -0.9284
16771TIP3   OH271727   2.207   0.245   3.025  0.3650  0.0587 -0.3074
16771TIP3    H171728   2.133   0.216   3.078  0.1630 -1.4827 -1.3747
16771TIP3    H271729   2.197   0.340   3.019 -0.1020  0.1586  1.6299
16772TIP3   OH271730   6.400   3.869  14.866  0.0113  0.6651 -0.2773
16772TIP3    H171731   6.337   3.831  14.927  2.8096 -0.7886  1.9542
16772TIP3    H271732   6.434   3.946  14.912 -0.6061  1.8994 -1.7911
16773TIP3   OH271733   5.827   2.968  11.143 -0.1944 -0.3408 -0.2741
16773TIP3    H171734   5.832   2.902  11.073  0.8277 -0.4330 -0.1235
16773TIP3    H271735   5.906   3.021  11.131 -0.3945  0.1053  0.3635
16774TIP3   OH271736   4.916   1.117   4.533  0.1517 -0.4928  0.7817
16774TIP3    H171737   4.838   1.114   4.588  0.4294 -1.5141  1.1493
16774TIP3    H271738   4.965   1.192   4.564 -1.2932  0.9921 -0.3284
16775TIP3   OH271739   2.022   0.536  12.655  0.1986  0.1586 -0.1058
16775TIP3    H171740   1.931   0.567  12.647 -0.8767 -2.9316 -1.4790
16775TIP3    H271741   2.049   0.520  12.564  1.8588  0.3079  0.3404
16776TIP3   OH271742   2.521   3.389  16.215 -0.3844  0.0855 -0.1932
16776TIP3    H171743   2.475   3.310  16.187  0.5745 -0.4436 -0.3291
16776TIP3    H271744   2.589   3.403  16.148 -1.9230  2.3326 -1.4360
16777TIP3   OH271745   1.275   1.700  13.335 -0.4894 -0.0319  1.0606
16777TIP3    H171746   1.304   1.791  13.334 -1.1365  0.1758  0.0289
16777TIP3    H271747   1.245   1.686  13.425  1.4387  0.1512  1.7971
16778TIP3   OH271748   4.284   4.158   2.832 -0.2116 -0.3215  0.0782
16778TIP3    H171749   4.376   4.176   2.815 -0.9863  1.6378 -2.8642
16778TIP3    H271750   4.261   4.217   2.904  0.9455 -1.3436  1.3241
16779TIP3   OH271751   3.014   3.285  12.406  0.2214 -0.0696  0.3415
16779TIP3    H171752   3.100   3.322  12.385 -1.4726  2.3445 -3.5155
16779TIP3    H271753   2.956   3.361  12.410 -2.5206 -1.7620 -2.3040
16780TIP3   OH271754   4.521   5.249  13.883  0.6768 -0.1335 -0.1288
16780TIP3    H171755   4.548   5.259  13.974 -0.2273 -0.1444  0.1508
16780TIP3    H271756   4.598   5.211  13.839  1.1141 -0.1400  0.6267
16781TIP3   OH271757   3.902   0.511   0.148  0.6753 -0.4602 -0.2177
16781TIP3    H171758   3.974   0.523   0.087  1.4205  0.1525  0.7564
16781TIP3    H271759   3.866   0.599   0.161  0.4726 -0.5972  0.1628
16782TIP3   OH271760   2.505   6.516   0.091 -0.0748 -0.7637 -0.4818
16782TIP3    H171761   2.484   6.528   0.183  0.9512  0.1704 -0.3452
16782TIP3    H271762   2.437   6.457   0.058 -2.3277  1.2981  0.1352
16783TIP3   OH271763   6.359   5.262   2.647 -0.0945 -0.1126 -0.9875
16783TIP3    H171764   6.434   5.285   2.592 -0.4578 -2.1188 -2.4345
16783TIP3    H271765   6.343   5.170   2.628 -3.6544  0.4995 -1.6147
16784TIP3   OH271766   6.098   5.284  11.843  0.0865  0.3749 -0.0084
16784TIP3    H171767   6.136   5.336  11.772  0.0231 -1.6088 -1.6090
16784TIP3    H271768   6.020   5.332  11.869 -0.2159  0.8940 -1.7285
16785TIP3   OH271769   1.725   4.633   4.898 -0.5075 -0.3832 -0.5372
16785TIP3    H171770   1.676   4.709   4.929 -4.8567 -2.2681 -2.0374
16785TIP3    H271771   1.753   4.658   4.809  0.3427  0.2748 -0.1074
16786TIP3   OH271772   6.308   2.085  15.342 -0.0519  0.2985 -0.4720
16786TIP3    H171773   6.325   1.991  15.338  0.1443  0.3478 -0.9226
16786TIP3    H271774   6.284   2.102  15.433 -0.7135 -0.2952 -0.5305
16787TIP3   OH271775   2.398   1.474  11.603 -0.1077 -0.1989  0.6422
16787TIP3    H171776   2.385   1.536  11.674 -2.9273  1.6972 -1.3261
16787TIP3    H271777   2.326   1.412  11.611  0.1722 -0.6150  0.0653
16788TIP3   OH271778   0.885   2.260   2.761  0.3278 -0.1441 -0.3512
16788TIP3    H171779   0.887   2.340   2.708  0.7057  0.9601  1.2333
16788TIP3    H271780   0.952   2.204   2.722 -2.3881 -1.3780 -3.8231
16789TIP3   OH271781   0.699   5.647   1.344 -0.1577  0.6146  1.0606
16789TIP3    H171782   0.762   5.717   1.358  1.0237  0.1638 -1.3605
16789TIP3    H271783   0.750   5.567   1.354 -0.9101  0.1680  1.4194
16790TIP3   OH271784   1.541   6.199   4.263 -0.6062  0.1468 -0.0923
16790TIP3    H171785   1.584   6.224   4.345 -0.8371  2.1334 -0.5260
16790TIP3    H271786   1.488   6.275   4.239 -2.3407 -1.2552 -0.9334
16791TIP3   OH271787   2.822   5.073   3.945  0.0958  0.4309  0.1197
16791TIP3    H171788   2.913   5.045   3.952 -0.3056 -0.8747  0.3452
16791TIP3    H271789   2.820   5.130   3.868  0.8778 -0.5066 -0.6234
16792TIP3   OH271790   2.309   2.269  13.363 -0.2709 -0.3741 -0.0224
16792TIP3    H171791   2.333   2.304  13.449 -0.9199 -2.1995  0.9609
16792TIP3    H271792   2.235   2.210  13.381 -0.9016 -0.2492 -1.9481
16793TIP3   OH271793   0.347   1.354  17.125  0.6574  0.4652  0.2187
16793TIP3    H171794   0.389   1.439  17.112  1.8411 -0.0371  0.5398
16793TIP3    H271795   0.395   1.295  17.066 -1.4408  0.3736 -1.4953
16794TIP3   OH271796   6.157   4.929   1.216 -0.1813  0.2507  0.0231
16794TIP3    H171797   6.124   4.986   1.147  0.4967  0.2328 -0.3289
16794TIP3    H271798   6.114   4.959   1.295 -0.4140  0.7526 -0.2901
16795TIP3   OH271799   6.493   3.929  15.799 -0.1730  0.2102 -0.1883
16795TIP3    H171800   6.531   3.867  15.737 -0.6744 -0.0331 -0.2565
16795TIP3    H271801   6.477   4.008  15.748  0.8102  0.5350 -0.0171
16796TIP3   OH271802   0.650   5.943   0.513 -0.1954  0.0937  0.4017
16796TIP3    H171803   0.630   5.863   0.466  1.4347 -0.2365  0.2223
16796TIP3    H271804   0.682   6.004   0.446  2.9336 -0.6467  1.0565
16797TIP3   OH271805   6.248   1.804   1.190  0.2742  0.4633  0.4786
16797TIP3    H171806   6.218   1.754   1.114  0.1802 -0.0053  0.8185
16797TIP3    H271807   6.167   1.831   1.234  0.3355 -0.0818  0.9336
16798TIP3   OH271808   3.114   3.924   3.133  0.1323  0.1507 -0.4538
16798TIP3    H171809   3.039   3.949   3.188  2.5881 -0.9573  3.8720
16798TIP3    H271810   3.177   3.994   3.146  2.5553 -2.2925  2.1612
16799TIP3   OH271811   2.224   2.828  15.735  0.3633 -0.1563 -0.7635
16799TIP3    H171812   2.133   2.811  15.762  0.9736 -1.8616  0.4048
16799TIP3    H271813   2.216   2.869  15.649 -1.5192 -0.1260 -0.6203
16800TIP3   OH271814   2.243   2.628   5.763 -0.0809  0.7488 -0.4762
16800TIP3    H171815   2.207   2.614   5.850  0.4792 -0.7539 -0.4466
16800TIP3    H271816   2.306   2.556   5.751  0.3901  1.3434 -1.8277
16801TIP3   OH271817   3.303   5.500  13.477 -0.1471 -0.1802 -0.1851
16801TIP3    H171818   3.323   5.566  13.543 -0.6594 -0.1031 -0.1039
16801TIP3    H271819   3.388   5.471  13.445  0.0824  0.8299 -0.5226
16802TIP3   OH271820   0.258   6.184  11.575  0.2273 -0.1763  0.0221
16802TIP3    H171821   0.170   6.180  11.613  0.3502  0.2509  0.3496
16802TIP3    H271822   0.261   6.268  11.529  0.5947 -0.0142  0.3370
16803TIP3   OH271823   2.784   3.082   2.520  0.2578  0.6020 -0.1147
16803TIP3    H171824   2.722   3.145   2.555  0.9133  0.9362  0.4751
16803TIP3    H271825   2.735   3.034   2.453 -0.5782  0.9599  0.2329
16804TIP3   OH271826   1.309   0.438   3.456  0.5642  0.5884  0.2382
16804TIP3    H171827   1.387   0.469   3.502  3.1731 -1.5041 -2.4057
16804TIP3    H271828   1.306   0.344   3.475 -0.1012  0.2669 -1.2909
16805TIP3   OH271829   0.928   5.155  13.703 -0.4570  0.4017 -0.2746
16805TIP3    H171830   0.945   5.199  13.619  0.5831 -0.3618 -0.4788
16805TIP3    H271831   0.862   5.089  13.682 -0.0760  0.1002 -0.5295
16806TIP3   OH271832   5.741   1.839  14.013 -0.1124  0.2106 -0.0064
16806TIP3    H171833   5.762   1.756  14.056 -1.3953  0.6886  1.6520
16806TIP3    H271834   5.683   1.884  14.075 -0.0977  1.9989 -1.2212
16807TIP3   OH271835   6.360   4.698  15.666  0.0674  0.1351 -0.1573
16807TIP3    H171836   6.306   4.772  15.636 -0.4162 -0.7588 -1.5749
16807TIP3    H271837   6.447   4.716  15.629  0.1298  0.3394  0.0842
16808TIP3   OH271838   5.631   1.328   4.105  0.6188 -0.3093 -0.2719
16808TIP3    H171839   5.725   1.344   4.097  0.8855 -0.9234  1.2742
16808TIP3    H271840   5.625   1.234   4.122 -0.1925 -0.0698  0.7971
16809TIP3   OH271841   5.403   4.862   2.110 -0.1440  0.1409 -0.0173
16809TIP3    H171842   5.451   4.827   2.185 -1.1264  0.1813  0.6419
16809TIP3    H271843   5.387   4.786   2.054  1.0286  0.1920 -0.4599
16810TIP3   OH271844   6.334   5.603   0.692 -0.5536  0.0822  0.0451
16810TIP3    H171845   6.351   5.557   0.610 -0.0793 -0.6851  0.5654
16810TIP3    H271846   6.406   5.666   0.699 -0.0027 -0.5671  0.3743
16811TIP3   OH271847   5.477   6.085  11.843  0.1529  0.6103 -0.2527
16811TIP3    H171848   5.552   6.103  11.899 -0.5984 -0.6383  1.2338
16811TIP3    H271849   5.428   6.168  11.842 -0.2850  0.4201  1.7352
16812TIP3   OH271850   1.159   1.364   5.642  0.1863 -0.0364  0.0445
16812TIP3    H171851   1.227   1.429   5.662 -0.3885  0.5163  0.2275
16812TIP3    H271852   1.183   1.330   5.555  1.4954 -0.8970  0.7041
16813TIP3   OH271853   3.800   5.242   5.946  0.3349  0.0346  0.0430
16813TIP3    H171854   3.835   5.323   5.911 -0.5110  0.6458  0.5666
16813TIP3    H271855   3.788   5.186   5.870  1.2283  0.2728 -0.2825
16814TIP3   OH271856   5.711   2.952  13.255 -0.8712  0.5226 -0.1871
16814TIP3    H171857   5.758   3.036  13.253  1.2568 -0.5554  0.7845
16814TIP3    H271858   5.735   2.910  13.172 -0.0363 -0.0520  0.3334
16815TIP3   OH271859   2.306   6.696  11.886 -0.0082  0.1113 -0.3684
16815TIP3    H171860   2.357   6.762  11.840 -1.6302  0.1678 -2.2189
16815TIP3    H271861   2.354   6.614  11.872  1.5148  0.6795  1.1550
16816TIP3   OH271862   3.782   2.855   5.796  0.3525  0.5117  0.1057
16816TIP3    H171863   3.846   2.840   5.865  1.6644  0.4311 -1.0752
16816TIP3    H271864   3.750   2.944   5.812  0.2199  0.2890  1.1256
16817TIP3   OH271865   0.671   0.758   0.879 -0.3238 -0.2301  0.7041
16817TIP3    H171866   0.762   0.729   0.881  0.0468  0.7703 -0.3305
16817TIP3    H271867   0.676   0.850   0.854 -1.6969 -0.8416 -2.3750
16818TIP3   OH271868   4.243   4.182  11.985 -0.2737 -0.6554 -0.0313
16818TIP3    H171869   4.207   4.147  11.904  0.9788 -2.3122  0.0828
16818TIP3    H271870   4.335   4.198  11.966 -0.0370 -0.7652  0.9463
16819TIP3   OH271871   1.337   4.375  11.773 -0.0407  0.4773 -0.1548
16819TIP3    H171872   1.327   4.351  11.681  0.5012  1.3200 -0.4561
16819TIP3    H271873   1.392   4.454  11.771  0.7584 -0.0262  0.9448
16820TIP3   OH271874   6.481   6.349   0.858  0.2844  0.2210  0.3374
16820TIP3    H171875   6.541   6.415   0.890  0.9784  0.0802 -0.6202
16820TIP3    H271876   6.482   6.360   0.762 -1.2754  0.2780  0.2965
16821TIP3   OH271877   0.208   5.211   3.250 -0.0236 -0.5063  0.5003
16821TIP3    H171878   0.247   5.284   3.202 -1.1356 -0.0674  0.2260
16821TIP3    H271879   0.212   5.137   3.189 -1.2742  0.0052 -0.2255
16822TIP3   OH271880   6.456   1.740  13.052 -0.3807  0.0431  0.4454
16822TIP3    H171881   6.458   1.794  13.131  2.2805 -0.4164  0.7669
16822TIP3    H271882   6.539   1.759  13.008 -0.2578 -2.2764 -0.4616
16823TIP3   OH271883   5.429   3.121   4.351  0.2611  0.3916 -0.7052
16823TIP3    H171884   5.463   3.131   4.440 -2.9509 -2.0344  0.9986
16823TIP3    H271885   5.474   3.043   4.318 -0.9296 -0.7033  0.1672
16824TIP3   OH271886   1.631   4.350   2.237  0.1090  0.6314 -0.1231
16824TIP3    H171887   1.652   4.428   2.289 -0.5728 -0.6030  2.1342
16824TIP3    H271888   1.536   4.341   2.246 -0.3955  1.5022 -3.3738
16825TIP3   OH271889   1.949   5.777   4.449 -0.1969 -0.3756  0.2369
16825TIP3    H171890   1.899   5.711   4.496  1.1528  0.3945  2.9332
16825TIP3    H271891   1.922   5.861   4.486  0.5275  0.3256 -0.7443
16826TIP3   OH271892   3.293   5.558   5.476 -0.3827  0.2115 -0.2049
16826TIP3    H171893   3.270   5.625   5.411 -0.9124 -0.7730 -1.0694
16826TIP3    H271894   3.219   5.497   5.474 -0.2365 -0.0232  1.0869
16827TIP3   OH271895   1.767   0.400  11.662 -0.2045 -1.0380 -0.0131
16827TIP3    H171896   1.845   0.376  11.710 -0.4600 -1.6146  0.1222
16827TIP3    H271897   1.722   0.463  11.718  0.6598  0.0806 -0.5385
16828TIP3   OH271898   4.446   1.421  15.690  0.1821 -0.0424  0.3786
16828TIP3    H171899   4.376   1.394  15.631 -0.1856  0.4897  0.5668
16828TIP3    H271900   4.401   1.461  15.764  0.7526  3.3424 -0.9536
16829TIP3   OH271901   0.921   1.258  14.138  0.1382  0.1360 -0.3388
16829TIP3    H171902   0.988   1.199  14.172  0.4775  0.9747  0.4990
16829TIP3    H271903   0.960   1.345  14.145 -0.3398  0.4744 -1.5677
16830TIP3   OH271904   5.306   6.677   3.304  0.4775  0.0517  0.6315
16830TIP3    H171905   5.318   6.639   3.391 -0.9061  1.2496  1.3894
16830TIP3    H271906   5.215   6.659   3.282  1.1470 -1.4025 -1.1898
16831TIP3   OH271907   3.319   3.948  12.057 -0.3657 -0.3552 -1.1098
16831TIP3    H171908   3.251   3.901  12.009 -0.4596 -2.6348  1.0531
16831TIP3    H271909   3.398   3.940  12.004 -0.7702 -1.5684 -1.5445
16832TIP3   OH271910   3.474   1.288  17.290  0.0436  0.4008 -0.2279
16832TIP3    H171911   3.502   1.340  17.365  0.4299  0.5010 -0.4402
16832TIP3    H271912   3.523   1.206  17.297 -1.1280 -0.2609  0.5289
16833TIP3   OH271913   4.871   5.232   6.138  0.3048  0.2732 -0.2279
16833TIP3    H171914   4.957   5.239   6.178  0.6365  1.0759 -1.0530
16833TIP3    H271915   4.855   5.318   6.098  0.1382 -0.5710 -2.0833
16834TIP3   OH271916   2.177   6.465  15.943  0.4835  0.0024 -0.0634
16834TIP3    H171917   2.237   6.390  15.940 -0.3754 -0.6958 -0.3237
16834TIP3    H271918   2.204   6.520  15.869  0.9294 -0.2011 -0.0533
16835TIP3   OH271919   1.412   4.274   4.687  0.4225 -0.3632  0.5773
16835TIP3    H171920   1.481   4.327   4.727 -1.3927  1.0974  1.9205
16835TIP3    H271921   1.361   4.336   4.635 -0.4820 -1.2268  0.4044
16836TIP3   OH271922   1.637   1.139   1.422  0.2017 -0.0204 -0.1232
16836TIP3    H171923   1.706   1.104   1.479 -1.2011 -4.2695 -0.6907
16836TIP3    H271924   1.658   1.103   1.335 -1.5847  0.4066 -0.7652
16837TIP3   OH271925   2.131   5.199  14.295  0.5291  0.0986 -0.2966
16837TIP3    H171926   2.054   5.163  14.252 -1.5287  1.4140  2.0446
16837TIP3    H271927   2.185   5.123  14.317  0.3501 -0.7771 -2.6326
16838TIP3   OH271928   3.849   1.110   2.108 -0.1895  0.2280  0.4316
16838TIP3    H171929   3.917   1.042   2.114 -0.5753 -0.3396 -1.1498
16838TIP3    H271930   3.861   1.162   2.187  1.3162 -0.5767  0.7829
16839TIP3   OH271931   1.744   3.231   5.479  0.5103 -0.6161  0.0061
16839TIP3    H171932   1.693   3.155   5.449  1.4479 -0.3860 -2.4234
16839TIP3    H271933   1.748   3.222   5.574 -0.5051 -2.8936 -0.1099
16840TIP3   OH271934   6.727   6.411  13.729 -0.6341 -0.3738 -0.0980
16840TIP3    H171935   6.814   6.373  13.744 -0.4366 -0.1983 -0.7579
16840TIP3    H271936   6.745   6.496  13.690 -1.0993 -0.5380 -0.6909
16841TIP3   OH271937   5.189   4.866   0.242 -0.0112 -0.6236  0.5289
16841TIP3    H171938   5.134   4.836   0.170 -0.2349  0.2262  0.3338
16841TIP3    H271939   5.185   4.962   0.237  0.5293 -0.5547  1.2434
16842TIP3   OH271940   2.906   2.716   5.146 -0.1952  0.2903  0.0272
16842TIP3    H171941   2.857   2.764   5.213  0.8779  0.4567  0.7048
16842TIP3    H271942   2.898   2.624   5.171  0.3823  0.3693  0.5089
16843TIP3   OH271943   0.980   5.862  17.269 -0.5675  0.5490  0.3495
16843TIP3    H171944   1.005   5.950  17.239  1.3613 -0.3425 -0.8296
16843TIP3    H271945   1.044   5.804  17.229 -0.5767 -1.2174  2.7057
16844TIP3   OH271946   0.644   5.178   4.467 -0.4253  0.1341  0.2731
16844TIP3    H171947   0.685   5.095   4.491 -0.5571 -0.2230 -0.6980
16844TIP3    H271948   0.698   5.212   4.396 -0.8044  0.5201  0.1653
16845TIP3   OH271949   3.077   0.200   3.751 -0.2093 -0.0548  0.3716
16845TIP3    H171950   3.033   0.269   3.801 -1.4151 -0.6160  0.1427
16845TIP3    H271951   3.136   0.158   3.814  0.1543  0.8554  0.6442
16846TIP3   OH271952   3.224   3.057   0.512  0.0794 -0.2865  1.0215
16846TIP3    H171953   3.161   3.047   0.441  0.1417  1.8791  0.5800
16846TIP3    H271954   3.308   3.070   0.468  0.6087 -1.5727  1.5830
16847TIP3   OH271955   2.420   3.733  15.987 -0.1494  0.0011 -0.2876
16847TIP3    H171956   2.398   3.814  16.033  0.9668  0.8588 -1.1756
16847TIP3    H271957   2.515   3.727  15.993 -0.1340 -0.7587 -1.0219
16848TIP3   OH271958   2.050   6.495   6.020  0.1117 -0.1309 -0.1055
16848TIP3    H171959   2.009   6.560   5.963 -0.1681  0.7159  1.0124
16848TIP3    H271960   2.047   6.414   5.971 -0.2846  0.5312 -1.2129
16849TIP3   OH271961   3.487   3.687   1.251  0.0687  0.3964  0.4170
16849TIP3    H171962   3.476   3.594   1.268 -0.8566  0.4069 -0.0597
16849TIP3    H271963   3.508   3.692   1.158  0.2956  0.6502  0.4818
16850TIP3   OH271964   5.292   1.538  12.170  0.3727  0.1175 -0.2517
16850TIP3    H171965   5.328   1.593  12.100  0.3199 -0.0116 -0.3801
16850TIP3    H271966   5.200   1.528  12.147  0.4942 -0.4354 -0.4905
16851TIP3   OH271967   2.650   6.056   4.060  0.0610  0.3309  0.1248
16851TIP3    H171968   2.667   6.022   4.148 -0.3577 -1.0617 -0.3123
16851TIP3    H271969   2.561   6.028   4.039  0.2622  0.3741 -0.8572
16852TIP3   OH271970   5.037   5.661   1.424 -0.1163 -0.4420  0.2832
16852TIP3    H171971   4.941   5.663   1.425 -0.1134  0.7302  0.7153
16852TIP3    H271972   5.062   5.654   1.516  0.2125 -0.8578  0.1648
16853TIP3   OH271973   4.254   4.285  16.635  0.0011  0.3863 -0.2533
16853TIP3    H171974   4.163   4.314  16.645 -0.8644 -1.7084 -1.4588
16853TIP3    H271975   4.254   4.236  16.553  2.1240 -0.0679 -0.0168
16854TIP3   OH271976   3.731   1.047   4.427 -0.1036 -0.0504 -0.0517
16854TIP3    H171977   3.692   0.987   4.363 -0.3018  1.5123 -1.4712
16854TIP3    H271978   3.683   1.129   4.414  1.2635  0.8919  0.6628
16855TIP3   OH271979   4.830   4.777   6.509  0.1532 -0.0606 -0.4805
16855TIP3    H171980   4.859   4.747   6.595 -2.9010 -0.2393  0.6117
16855TIP3    H271981   4.855   4.870   6.507 -1.2160  0.4142  1.4033
16856TIP3   OH271982   1.713   6.494   0.487 -0.0552 -0.2920  0.2120
16856TIP3    H171983   1.682   6.434   0.554  0.6740  0.0514  0.8776
16856TIP3    H271984   1.760   6.439   0.425 -1.0622 -0.6651 -0.2395
16857TIP3   OH271985   2.893   4.575   4.173 -0.3044  0.2542 -0.6768
16857TIP3    H171986   2.900   4.489   4.215 -0.6551 -0.4031 -1.9279
16857TIP3    H271987   2.806   4.577   4.135 -0.6212  1.5195  0.0417
16858TIP3   OH271988   2.506   4.960   1.466 -0.1079  0.0600 -0.6430
16858TIP3    H171989   2.574   4.995   1.523 -2.1996  0.7744  1.6174
16858TIP3    H271990   2.534   4.870   1.448  1.6821  0.5044 -0.2771
16859TIP3   OH271991   3.998   2.636  16.692  0.6864  0.0266  0.3744
16859TIP3    H171992   4.067   2.602  16.748  0.9832 -1.5734 -0.8958
16859TIP3    H271993   3.922   2.645  16.750  1.2775 -0.5701  1.2613
16860TIP3   OH271994   5.467   4.245  12.222  0.4457 -0.3594 -0.1225
16860TIP3    H171995   5.458   4.184  12.149 -2.8446 -0.7005  0.3999
16860TIP3    H271996   5.471   4.332  12.181 -0.8899 -0.5822 -0.7697
16861TIP3   OH271997   2.177   0.618  16.346  0.0281 -0.8716 -0.4967
16861TIP3    H171998   2.100   0.563  16.363 -1.8102  1.3610 -1.0615
16861TIP3    H271999   2.167   0.692  16.407  1.6190 -0.4135 -0.7482
16862TIP3   OH272000   2.113   5.868  15.051  0.0942  0.2909  0.0970
16862TIP3    H172001   2.061   5.813  15.109 -1.0129 -3.0557 -3.5698
16862TIP3    H272002   2.199   5.875  15.093 -0.5584 -2.1136  2.0123
16863TIP3   OH272003   5.026   2.758  16.765 -0.6562  0.5718  0.3254
16863TIP3    H172004   5.002   2.685  16.822  2.2681 -0.3479  0.5369
16863TIP3    H272005   5.054   2.827  16.824  2.1227 -0.2879  0.1515
16864TIP3   OH272006   5.413   1.947   3.275  0.2609 -0.2508  0.5404
16864TIP3    H172007   5.435   2.023   3.329  0.1805 -0.7066  1.2198
16864TIP3    H272008   5.376   1.985   3.195 -1.5130  0.4324  1.6078
16865TIP3   OH272009   3.821   2.657  14.447 -0.1265 -0.0899  0.5407
16865TIP3    H172010   3.754   2.720  14.420 -0.9431 -0.5700  1.4024
16865TIP3    H272011   3.856   2.691  14.529  1.4326  0.6839 -0.3874
16866TIP3   OH272012   1.152   4.542   3.974  0.5627 -0.3711  0.3504
16866TIP3    H172013   1.176   4.620   4.024  1.0320 -0.6704  0.5931
16866TIP3    H272014   1.225   4.527   3.914  0.7462 -0.9655  0.7122
16867TIP3   OH272015   3.984   0.251   2.149 -0.1656 -0.0300 -0.1282
16867TIP3    H172016   4.029   0.208   2.222 -0.2378 -1.0048 -0.6446
16867TIP3    H272017   4.048   0.248   2.077 -0.9317 -1.2082 -0.7946
16868TIP3   OH272018   3.878   0.939  15.593  0.2122 -0.4011 -0.0090
16868TIP3    H172019   3.971   0.946  15.570  0.6711 -2.8236  0.7560
16868TIP3    H272020   3.848   0.861  15.546 -0.6536 -1.2922  1.9115
16869TIP3   OH272021   3.729   4.714  15.793  0.4461 -0.0936  0.2452
16869TIP3    H172022   3.788   4.748  15.726  1.8732  1.8872  2.3697
16869TIP3    H272023   3.642   4.721  15.754  1.0633  2.4888 -0.8784
16870TIP3   OH272024   2.801   3.186  12.177 -0.1899 -0.0682  0.3074
16870TIP3    H172025   2.767   3.270  12.147 -1.2128 -1.0958 -1.5746
16870TIP3    H272026   2.876   3.168  12.121 -0.3800 -0.7141  0.2481
16871TIP3   OH272027   2.870   2.433   5.230  0.1802  0.1487 -0.0143
16871TIP3    H172028   2.896   2.359   5.285  0.1521  0.1475 -0.0027
16871TIP3    H272029   2.780   2.414   5.206  0.2281  0.0964 -0.1496
16872TIP3   OH272030   5.246   4.262   2.889  0.0399 -0.5227  0.8897
16872TIP3    H172031   5.272   4.237   2.977  1.8627  0.7282  0.7646
16872TIP3    H272032   5.166   4.313   2.900  1.2490  1.2088  2.0565
16873TIP3   OH272033   3.410   1.045  16.280  0.2421  0.3084  0.4853
16873TIP3    H172034   3.409   1.126  16.230 -0.5278  1.1771  1.8246
16873TIP3    H272035   3.319   1.034  16.309  0.6857 -0.0248  1.8382
16874TIP3   OH272036   4.071   0.689   2.473  0.2920 -0.0547 -0.0656
16874TIP3    H172037   4.090   0.695   2.380  0.9083 -0.3641  0.0371
16874TIP3    H272038   4.092   0.776   2.507 -2.2624  0.8550 -0.6090
16875TIP3   OH272039   6.190   4.618   4.582  0.3883  0.3929  0.0095
16875TIP3    H172040   6.223   4.551   4.521 -1.5305  0.4024 -1.1284
16875TIP3    H272041   6.181   4.697   4.529 -1.7649  0.2838  0.1282
16876TIP3   OH272042   1.825   0.623   1.845 -0.0189  0.1458  0.0096
16876TIP3    H172043   1.844   0.709   1.882 -1.7982  0.6027 -0.0612
16876TIP3    H272044   1.880   0.617   1.767  1.5921  0.3663  1.0740
16877TIP3   OH272045   0.430   2.687  11.797 -0.3991 -0.0409  0.4819
16877TIP3    H172046   0.340   2.684  11.766  0.0256  0.5836 -0.8689
16877TIP3    H272047   0.482   2.707  11.720  0.9247 -0.5058  1.2124
16878TIP3   OH272048   5.084   0.652  17.269 -0.3978 -0.0785 -0.4545
16878TIP3    H172049   5.006   0.690  17.229 -0.0101  1.9211  0.5440
16878TIP3    H272050   5.054   0.570  17.308 -1.9448  0.5189 -0.3306
16879TIP3   OH272051   5.702   0.010   1.958  0.0913 -0.2855  0.3861
16879TIP3    H172052   5.628   0.070   1.961 -0.3716 -0.8310  0.1960
16879TIP3    H272053   5.772   0.059   1.915 -0.6900 -0.3065 -0.9536
16880TIP3   OH272054   6.158   2.941   5.033  0.6544  0.2521  0.2326
16880TIP3    H172055   6.226   2.979   5.090  0.2405  0.7281  0.4164
16880TIP3    H272056   6.093   3.011   5.023  1.1731  0.5363 -1.6141
16881TIP3   OH272057   1.201   6.523   1.235 -0.2779 -0.3256 -0.1755
16881TIP3    H172058   1.207   6.533   1.140 -1.3640  0.9110 -0.1438
16881TIP3    H272059   1.267   6.457   1.256 -0.1733 -0.7919 -1.8087
16882TIP3   OH272060   1.299   3.310   4.746 -0.0289 -0.0693 -0.8492
16882TIP3    H172061   1.220   3.285   4.698  0.1024 -2.1011 -0.1309
16882TIP3    H272062   1.310   3.403   4.728  0.2957 -0.7194 -5.1663
16883TIP3   OH272063   4.624   5.457  16.013  0.6562 -0.0452  0.1540
16883TIP3    H172064   4.719   5.448  16.021  0.7484 -0.1604 -0.8776
16883TIP3    H272065   4.611   5.549  15.989  0.4327  0.1896  1.1269
16884TIP3   OH272066   2.157   1.522  12.159 -0.3102  0.0258  0.8347
16884TIP3    H172067   2.062   1.522  12.147 -0.1817 -0.5188 -0.3300
16884TIP3    H272068   2.185   1.611  12.136 -0.6142  0.4850  2.1163
16885TIP3   OH272069   4.081   3.823  15.110  0.1303 -0.1723 -0.5867
16885TIP3    H172070   4.101   3.900  15.163 -1.3885  0.0453 -0.2832
16885TIP3    H272071   4.149   3.822  15.042  0.9579  0.6517  0.2062
16886TIP3   OH272072   0.814   1.139   5.983  0.2217 -0.0698 -0.1577
16886TIP3    H172073   0.868   1.190   6.044  1.1679  0.0393 -1.0606
16886TIP3    H272074   0.850   1.159   5.897 -1.6494  0.4754 -0.8634
16887TIP3   OH272075   3.527   6.420  12.930 -0.2509 -0.1834  0.2685
16887TIP3    H172076   3.501   6.338  12.971  1.4366  0.0403  1.8988
16887TIP3    H272077   3.474   6.425  12.851  0.3018 -3.3249 -0.4222
16888TIP3   OH272078   5.438   3.742  12.900  0.0030  0.0420  0.4840
16888TIP3    H172079   5.424   3.653  12.933 -0.1491 -0.9269 -1.9981
16888TIP3    H272080   5.531   3.746  12.877 -0.0667  0.4139  0.2471
16889TIP3   OH272081   4.096   4.743   0.263 -0.2294 -0.1141 -0.1491
16889TIP3    H172082   4.030   4.803   0.296 -0.2425  0.6773 -1.5570
16889TIP3    H272083   4.077   4.660   0.306 -1.4756  0.3738  0.2677
16890TIP3   OH272084   5.014   5.317  13.860  0.0990 -0.1656  0.6770
16890TIP3    H172085   5.104   5.346  13.841 -0.0310  0.7267  1.3493
16890TIP3    H272086   5.023   5.225  13.883  0.8848 -0.0022  1.0478
16891TIP3   OH272087   1.670   2.623  16.926 -0.2741 -0.2591  0.1487
16891TIP3    H172088   1.577   2.644  16.926 -0.7709 -2.2118  1.2209
16891TIP3    H272089   1.690   2.601  16.835 -0.5138  1.4250 -0.3359
16892TIP3   OH272090   3.098   5.970   5.215 -0.1708  0.1566  0.7555
16892TIP3    H172091   3.150   5.968   5.135  1.6377  2.4578  1.7434
16892TIP3    H272092   3.101   6.062   5.244 -2.0403 -0.2851  2.6599
16893TIP3   OH272093   1.413   3.179  13.130  0.1091 -0.4129  0.0240
16893TIP3    H172094   1.483   3.114  13.133  0.6265 -0.0389 -2.3011
16893TIP3    H272095   1.457   3.261  13.107 -1.1783 -0.4914 -3.1889
16894TIP3   OH272096   5.551   6.697  13.922  0.3124 -0.4669 -0.4988
16894TIP3    H172097   5.504   6.755  13.982 -0.0800 -1.5903  0.3177
16894TIP3    H272098   5.581   6.625  13.977  3.1401  0.2545 -0.9764
16895TIP3   OH272099   4.942   3.061   0.097 -0.3440 -0.0370  0.0090
16895TIP3    H172100   4.895   2.984   0.064 -1.5675  0.4133  0.6139
16895TIP3    H272101   4.904   3.135   0.049 -0.4986  0.3708  0.7345
16896TIP3   OH272102   6.366   0.392  13.481  0.0637  0.0580  0.3711
16896TIP3    H172103   6.354   0.317  13.422  0.0888  0.3990 -0.0727
16896TIP3    H272104   6.384   0.352  13.566 -1.3524 -0.4512  0.4621
16897TIP3   OH272105   5.443   6.666   2.651  0.1465 -0.1056  0.3331
16897TIP3    H172106   5.386   6.598   2.688 -0.9999  0.7925  0.2943
16897TIP3    H272107   5.419   6.746   2.699  0.5338  0.5278 -0.5104
16898TIP3   OH272108   1.285   5.038   3.068  0.2165  0.5005 -0.0340
16898TIP3    H172109   1.329   4.999   2.993  2.1623  2.7392 -0.1685
16898TIP3    H272110   1.350   5.098   3.107 -1.7230  1.7190  1.5938
16899TIP3   OH272111   6.285   2.749  12.186 -0.2649 -0.0834  0.1405
16899TIP3    H172112   6.211   2.691  12.168 -1.0557  0.7766  0.4956
16899TIP3    H272113   6.253   2.836  12.162  0.4939  0.3587  0.6836
16900TIP3   OH272114   3.154   5.975   2.273 -0.0567 -0.1509 -0.5943
16900TIP3    H172115   3.239   6.018   2.261 -1.0465  2.5754  1.2128
16900TIP3    H272116   3.113   5.980   2.187  1.0199 -0.1828 -1.1332
16901TIP3   OH272117   6.107   2.029  13.870 -0.4046  0.1448 -0.0232
16901TIP3    H172118   6.156   1.973  13.809  1.0574  1.0627  0.2719
16901TIP3    H272119   6.029   2.055  13.821 -0.3635 -0.9273 -0.6929
16902TIP3   OH272120   5.527   0.662  12.843 -0.3998  0.2953 -0.3444
16902TIP3    H172121   5.498   0.574  12.868 -2.0464  0.9727  0.2390
16902TIP3    H272122   5.589   0.687  12.911 -1.2316  0.2489  0.4405
16903TIP3   OH272123   0.803   6.694   3.753  0.7290  0.4236  0.2025
16903TIP3    H172124   0.710   6.698   3.775  0.5680 -1.5725  0.0827
16903TIP3    H272125   0.826   6.601   3.763  1.9947  0.3344 -2.4742
16904TIP3   OH272126   4.682   0.756   0.093  0.0728  0.4595  0.3401
16904TIP3    H172127   4.677   0.754   0.188 -0.6905  3.6677  0.4940
16904TIP3    H272128   4.773   0.776   0.073  0.0029  0.9323  0.4803
16905TIP3   OH272129   2.878   5.570  13.817 -0.1336  0.4085 -0.0473
16905TIP3    H172130   2.844   5.529  13.897 -1.0495  1.3827  0.0816
16905TIP3    H272131   2.915   5.497  13.767  3.0425  0.0699  2.4393
16906TIP3   OH272132   5.781   6.499  15.541  0.4204 -0.0281 -0.1430
16906TIP3    H172133   5.844   6.428  15.552 -1.2824 -1.7092 -0.7568
16906TIP3    H272134   5.834   6.573  15.510  2.1704 -1.1563 -0.0007
16907TIP3   OH272135   3.505   4.224  14.215 -0.2500 -0.1510  0.0539
16907TIP3    H172136   3.506   4.240  14.121  0.5155 -0.5983 -0.0198
16907TIP3    H272137   3.594   4.242  14.244 -0.5286  0.1685  0.7291
16908TIP3   OH272138   6.208   5.298   2.245 -0.3808 -0.2082  0.2197
16908TIP3    H172139   6.174   5.366   2.186 -0.6593 -0.2148  0.3685
16908TIP3    H272140   6.301   5.317   2.254 -0.6154  0.6308  0.9072
16909TIP3   OH272141   1.808   6.250   0.340  0.0802 -0.7711 -0.2975
16909TIP3    H172142   1.830   6.216   0.427  1.1809 -3.3180 -1.4802
16909TIP3    H272143   1.724   6.209   0.319 -0.9365  0.9953  0.0836
16910TIP3   OH272144   0.791   3.451  10.576 -0.3129  0.4613  0.1877
16910TIP3    H172145   0.791   3.373  10.521 -0.2752  0.5625  0.0449
16910TIP3    H272146   0.699   3.478  10.581 -0.4113  0.0554  0.7385
16911TIP3   OH272147   5.788   6.635  11.318 -0.4873  0.6838  0.1701
16911TIP3    H172148   5.733   6.684  11.258  0.2945  0.1478 -1.0119
16911TIP3    H272149   5.743   6.551  11.328 -0.5223  0.7055  0.1943
16912TIP3   OH272150   5.679   1.376   1.729  0.2340  0.0091 -0.1595
16912TIP3    H172151   5.689   1.282   1.719 -1.8142 -0.3612  0.7395
16912TIP3    H272152   5.624   1.403   1.655  1.2402  0.6181 -0.7140
16913TIP3   OH272153   0.122   4.456   1.669  0.2438  0.0597  0.2639
16913TIP3    H172154   0.144   4.418   1.754  1.3486 -0.2983 -0.1613
16913TIP3    H272155   0.191   4.520   1.652 -1.6725  2.4980  1.0494
16914TIP3   OH272156   0.621   5.461   2.123  0.4831 -0.2933 -0.2837
16914TIP3    H172157   0.579   5.539   2.088  1.6789  1.0429  1.1538
16914TIP3    H272158   0.648   5.412   2.045  0.2058  0.9856 -1.2191
16915TIP3   OH272159   4.012   3.569   3.575 -0.2441  0.1725  0.4644
16915TIP3    H172160   4.035   3.660   3.557 -0.8675  0.1960 -0.2635
16915TIP3    H272161   3.947   3.573   3.646  0.3014  0.2360  0.9717
16916TIP3   OH272162   0.010   5.688   5.345 -0.1368 -0.5365 -0.0440
16916TIP3    H172163   0.089   5.637   5.356 -0.0842 -0.1531  1.6062
16916TIP3    H272164  -0.035   5.648   5.271  2.9314  0.9886 -2.9590
16917TIP3   OH272165   5.005   2.154   1.782  0.9297  0.7096  0.4223
16917TIP3    H172166   4.996   2.244   1.814 -0.7423  0.4400  0.8333
16917TIP3    H272167   5.018   2.101   1.861  1.7183  0.5572  0.1988
16918TIP3   OH272168   3.054   1.538   0.501 -0.3437 -0.6243 -0.4426
16918TIP3    H172169   3.073   1.534   0.408  0.8626 -0.1347 -0.2339
16918TIP3    H272170   3.089   1.623   0.529 -0.0034 -1.0887  0.6003
16919TIP3   OH272171   4.040   0.731  16.019  0.1044  0.4142 -0.5831
16919TIP3    H172172   3.997   0.798  15.965  0.2989 -0.7843 -2.2927
16919TIP3    H272173   4.129   0.727  15.985  0.1686 -0.5258 -0.3094
16920TIP3   OH272174   0.436   6.427   3.338 -0.3193 -0.2101 -0.5072
16920TIP3    H172175   0.461   6.421   3.245 -0.1735 -0.6361 -0.4423
16920TIP3    H272176   0.343   6.406   3.339 -0.6255  1.0420 -0.7071
16921TIP3   OH272177   1.318   2.757   4.821  0.6378  0.4439  0.1103
16921TIP3    H172178   1.345   2.827   4.760 -0.9953  0.4693 -0.6264
16921TIP3    H272179   1.272   2.803   4.891 -0.4947  0.1088 -0.4059
16922TIP3   OH272180   1.625   0.976   6.678 -0.3843 -0.3106  0.0342
16922TIP3    H172181   1.594   1.019   6.758 -0.1920  0.4737 -0.3048
16922TIP3    H272182   1.708   1.020   6.657  0.2696 -1.4332  0.1532
16923TIP3   OH272183   2.546   0.425   2.987 -0.6051 -0.2729 -0.0575
16923TIP3    H172184   2.624   0.478   2.972 -0.2898 -1.0889 -1.4112
16923TIP3    H272185   2.537   0.423   3.083 -0.3559  1.7898  0.0722
16924TIP3   OH272186   2.068   3.841  12.065  0.4295 -0.0081  0.1174
16924TIP3    H172187   2.000   3.823  12.000 -0.7588  2.7282  0.4609
16924TIP3    H272188   2.027   3.821  12.149  1.5496 -2.3416  0.1990
16925TIP3   OH272189   2.116   2.458  14.492  0.1633  0.0244 -0.0061
16925TIP3    H172190   2.079   2.463  14.580  0.7593 -0.6325  0.2965
16925TIP3    H272191   2.052   2.501  14.436 -2.2588 -3.0079  0.1415
16926TIP3   OH272192   2.388   6.020   6.241  0.2603 -0.6893  0.0269
16926TIP3    H172193   2.414   6.111   6.254  1.2871 -1.0342  0.5299
16926TIP3    H272194   2.440   5.991   6.165  0.8783 -1.1931  0.6244
16927TIP3   OH272195   1.619   5.322  11.476  0.1575  0.0685  0.3968
16927TIP3    H172196   1.704   5.340  11.516 -0.8655  1.3956  2.0960
16927TIP3    H272197   1.617   5.379  11.399 -0.1194  1.8846  1.6933
16928TIP3   OH272198   0.882   5.601   2.706  0.1006 -0.4913  0.8122
16928TIP3    H172199   0.908   5.606   2.614  0.0043 -0.3030  0.7946
16928TIP3    H272200   0.903   5.511   2.732  0.5721 -0.4072  0.7392
16929TIP3   OH272201   3.423   0.091   5.235 -0.2905  0.2379 -0.5958
16929TIP3    H172202   3.329   0.111   5.246  0.0090  1.0927  0.6815
16929TIP3    H272203   3.467   0.166   5.274  0.9525  0.2258 -1.9201
16930TIP3   OH272204   4.178   2.723  14.643 -0.1137 -0.1686 -0.0541
16930TIP3    H172205   4.163   2.671  14.564  1.3621 -1.1498  0.2594
16930TIP3    H272206   4.266   2.696  14.672 -0.2305  0.9000  1.3594
16931TIP3   OH272207   4.974   3.935   4.412 -0.1352  0.2341 -0.0011
16931TIP3    H172208   4.967   4.030   4.405 -1.2864  0.1444 -0.2145
16931TIP3    H272209   5.067   3.917   4.400  0.4328  1.4859  2.0436
16932TIP3   OH272210   3.831   6.475   1.522 -0.5182 -0.0796  0.1731
16932TIP3    H172211   3.766   6.417   1.483 -0.3292 -0.3069  0.1913
16932TIP3    H272212   3.828   6.554   1.469  0.7417 -0.9166 -1.2279
16933TIP3   OH272213   5.798   6.577  17.133  0.0821  0.0491  0.1212
16933TIP3    H172214   5.791   6.529  17.050  2.5406  0.6217 -0.5225
16933TIP3    H272215   5.709   6.583  17.165 -0.6331 -2.6769 -1.0491
16934TIP3   OH272216   5.918   3.430   2.064 -0.3853 -0.0779 -0.5145
16934TIP3    H172217   5.895   3.520   2.085 -2.9114 -0.0877 -2.7257
16934TIP3    H272218   5.979   3.436   1.991  0.6509 -0.1867  0.3160
16935TIP3   OH272219   1.520   2.246   0.485 -0.0628 -0.2835  0.2557
16935TIP3    H172220   1.583   2.220   0.418  0.4091 -0.9008  0.9194
16935TIP3    H272221   1.440   2.197   0.462  1.0250 -3.0663  1.8961
16936TIP3   OH272222   5.932   5.710  15.133  0.7748  0.0799  0.1800
16936TIP3    H172223   5.945   5.802  15.111  0.4472 -0.5260 -3.0973
16936TIP3    H272224   6.010   5.686  15.182  1.3160  1.8398  0.2599
16937TIP3   OH272225   2.256   1.982  12.783 -0.2249 -0.2209  0.1977
16937TIP3    H172226   2.240   2.061  12.731  0.0060  0.3750  1.0198
16937TIP3    H272227   2.267   2.014  12.872 -1.6427 -1.3192  0.8022
16938TIP3   OH272228   0.538   4.704  15.803 -0.2021  0.3796  0.0509
16938TIP3    H172229   0.506   4.733  15.718  1.4734  0.5538 -0.5645
16938TIP3    H272230   0.460   4.673  15.849 -0.9807 -1.0418 -2.0733
16939TIP3   OH272231   3.914   6.737  13.937 -0.7446  0.4489  0.5645
16939TIP3    H172232   3.939   6.668  13.999 -1.5795 -1.1162 -0.7626
16939TIP3    H272233   3.818   6.739  13.941 -0.7179  3.3902  2.4581
16940TIP3   OH272234   5.531   5.286   4.840  0.5003  0.0737 -0.1243
16940TIP3    H172235   5.617   5.294   4.880  0.4626 -0.4458  0.0632
16940TIP3    H272236   5.547   5.302   4.747  1.1001 -1.7024 -0.3678
16941TIP3   OH272237   4.577   5.439  14.637 -0.5152 -0.0087 -0.4782
16941TIP3    H172238   4.626   5.366  14.676  0.2374 -0.0102 -1.3777
16941TIP3    H272239   4.645   5.499  14.607 -1.1288  1.0271  0.1721
16942TIP3   OH272240   5.665   4.120  12.607 -0.9336  0.0450 -0.2322
16942TIP3    H172241   5.720   4.044  12.592 -1.5679 -0.5229  0.2951
16942TIP3    H272242   5.637   4.113  12.698 -0.5032  1.2407  0.0238
16943TIP3   OH272243   2.100   1.381  13.119  0.1840  0.2182 -0.1450
16943TIP3    H172244   2.184   1.343  13.094 -0.5706 -1.1034 -0.7731
16943TIP3    H272245   2.054   1.395  13.037 -1.7757 -2.8454  0.2979
16944TIP3   OH272246   0.942   1.190   5.745 -1.0675 -0.0712  0.1841
16944TIP3    H172247   0.931   1.142   5.662  0.2649 -0.4829  0.2279
16944TIP3    H272248   1.012   1.252   5.728 -2.0347  1.1377  0.4713
16945TIP3   OH272249   6.743   6.703   2.322  0.5279 -0.0614  0.5072
16945TIP3    H172250   6.714   6.732   2.236  0.1138  0.9632  0.9738
16945TIP3    H272251   6.683   6.632   2.345  3.5284 -3.8278 -2.0567
16946TIP3   OH272252   0.461   3.472  15.844  0.0270  0.1103  0.0229
16946TIP3    H172253   0.478   3.385  15.808  1.0660 -0.6292  2.1039
16946TIP3    H272254   0.368   3.472  15.864 -0.4580  0.3448 -2.0143
16947TIP3   OH272255   0.055   6.383  14.283 -0.3017 -0.2315  0.1868
16947TIP3    H172256   0.057   6.302  14.232 -1.3798  0.0925 -0.4132
16947TIP3    H272257  -0.002   6.441  14.233 -1.9724 -0.1220  2.1085
16948TIP3   OH272258   3.051   0.308  17.194  0.0109  0.2058  0.2682
16948TIP3    H172259   3.076   0.334  17.283  0.0076  1.6599 -0.1208
16948TIP3    H272260   2.971   0.357  17.177 -0.0564 -0.1664 -0.4981
16949TIP3   OH272261   2.754   4.443  14.929  0.4154 -0.2943  0.8662
16949TIP3    H172262   2.740   4.349  14.942  1.0922 -0.4753  0.2857
16949TIP3    H272263   2.695   4.484  14.993  0.4047 -1.1126  1.3997
16950TIP3   OH272264   0.242   4.574   4.842  0.0537 -0.1625  0.0157
16950TIP3    H172265   0.169   4.632   4.860  0.2313  0.1863 -0.3763
16950TIP3    H272266   0.244   4.514   4.917 -0.6578 -0.2070  0.0066
16951TIP3   OH272267   3.581   1.050   2.755 -0.1114  0.4038  0.5789
16951TIP3    H172268   3.509   1.002   2.714 -0.7189  0.8546  1.0880
16951TIP3    H272269   3.542   1.087   2.835  0.7250  0.5402  0.9322
16952TIP3   OH272270   2.567   5.498  14.137  0.5555  0.0573  0.0291
16952TIP3    H172271   2.517   5.447  14.074  0.9648 -1.4206  0.8487
16952TIP3    H272272   2.657   5.498  14.103  0.7549 -0.6479  0.5320
16953TIP3   OH272273   6.645   5.071  12.145  0.2543  0.1887 -0.4791
16953TIP3    H172274   6.696   5.081  12.065  1.2087  0.2345  0.1233
16953TIP3    H272275   6.587   4.997  12.127  0.5165  0.1453 -1.1846
16954TIP3   OH272276   2.667   6.745   0.014  0.1655 -0.2023  0.1045
16954TIP3    H172277   2.658   6.767  -0.079  1.1374 -0.2546 -0.0142
16954TIP3    H272278   2.613   6.667   0.025  0.3443 -0.4185 -0.5024
16955TIP3   OH272279   6.266   3.268  13.689  0.4871 -0.1096  0.4829
16955TIP3    H172280   6.240   3.325  13.761 -0.0657 -0.7075  0.7609
16955TIP3    H272281   6.191   3.211  13.674  0.7106 -0.1999 -0.3650
16956TIP3   OH272282   6.133   5.932  11.150  0.0655  0.1673  0.8544
16956TIP3    H172283   6.202   5.962  11.090  0.0316 -0.1724  0.6420
16956TIP3    H272284   6.166   5.849  11.184 -0.5109 -0.3144  0.2686
16957TIP3   OH272285   5.741   1.616  16.634  0.0372  0.1487  0.3996
16957TIP3    H172286   5.742   1.665  16.552 -1.0990  1.6642  1.2400
16957TIP3    H272287   5.663   1.560  16.627  0.0626  0.1188  0.3545
16958TIP3   OH272288   6.457   0.423  17.064  0.2630  0.3657 -0.2327
16958TIP3    H172289   6.475   0.351  17.124  1.4379 -0.9111 -2.0131
16958TIP3    H272290   6.408   0.486  17.116  0.6139 -0.9827  1.8425
16959TIP3   OH272291   2.658   4.317  15.807  0.2222 -0.1064 -0.6006
16959TIP3    H172292   2.563   4.327  15.817  0.5248  1.3945  1.2440
16959TIP3    H272293   2.681   4.377  15.737  0.1913  2.1469  1.2168
16960TIP3   OH272294   5.207   4.710  10.884 -0.3184 -0.1225 -0.2479
16960TIP3    H172295   5.136   4.736  10.825 -1.1117 -0.0325  0.7196
16960TIP3    H272296   5.274   4.778  10.873 -1.8337  1.7342  1.3226
16961TIP3   OH272297   2.851   0.358  13.689 -0.1122 -0.8836 -0.0750
16961TIP3    H172298   2.919   0.328  13.629  0.6302 -0.0084  0.2983
16961TIP3    H272299   2.898   0.382  13.769 -0.9282 -0.8031  0.3980
16962TIP3   OH272300   2.727   2.297  16.375  0.6180  0.4660  0.0068
16962TIP3    H172301   2.643   2.329  16.408  0.5961 -0.6228  1.0618
16962TIP3    H272302   2.785   2.300  16.451  1.2877  0.3710 -0.4989
16963TIP3   OH272303   4.741   4.626  12.873  0.8086  0.7014 -0.7536
16963TIP3    H172304   4.691   4.549  12.847 -0.2318  0.3797  1.9147
16963TIP3    H272305   4.824   4.592  12.906 -0.2026  0.4942  1.7672
16964TIP3   OH272306   1.692   3.759  16.894 -0.9646 -0.2341 -0.6905
16964TIP3    H172307   1.698   3.668  16.866 -0.1920 -0.7192  0.8958
16964TIP3    H272308   1.780   3.781  16.924 -1.6122  0.3174  0.9541
16965TIP3   OH272309   0.332   4.024  14.799  0.0254  0.5938  0.6457
16965TIP3    H172310   0.265   3.965  14.763  0.7841 -1.7283  2.7314
16965TIP3    H272311   0.413   3.997  14.755  0.3324  0.2253  1.4172
16966TIP3   OH272312   3.800   5.479  14.334 -0.4210  0.4933  0.0455
16966TIP3    H172313   3.788   5.385  14.351  0.0077  0.7522  2.0724
16966TIP3    H272314   3.878   5.502  14.385 -1.9890  2.4303  1.7507
16967TIP3   OH272315   6.558   6.576   1.456  0.2358  0.2440 -0.2095
16967TIP3    H172316   6.572   6.498   1.510  0.5774  0.9852  0.8085
16967TIP3    H272317   6.501   6.546   1.385 -0.3075 -0.7372  0.6178
16968TIP3   OH272318   2.452   1.218  15.916 -0.2619 -0.2773  0.2955
16968TIP3    H172319   2.506   1.269  15.976  1.0693 -2.1295  0.7496
16968TIP3    H272320   2.463   1.262  15.832  0.6142  0.3739  0.7289
16969TIP3   OH272321   2.428   4.083  15.875  0.2369 -0.4745 -0.0223
16969TIP3    H172322   2.486   4.016  15.838  0.4596  0.3740 -1.2934
16969TIP3    H272323   2.389   4.042  15.952  1.3113 -1.6201 -0.0606
16970TIP3   OH272324   5.257   1.495   5.396  0.3778  0.6849  0.2382
16970TIP3    H172325   5.264   1.472   5.488  0.2057  2.0465  0.6168
16970TIP3    H272326   5.172   1.460   5.369 -0.2665  1.5930  1.0226
16971TIP3   OH272327   6.461   5.521   4.325 -1.0594  0.7017  0.2929
16971TIP3    H172328   6.505   5.559   4.400  0.8562 -0.9973  0.1107
16971TIP3    H272329   6.513   5.550   4.250  1.5708 -3.3309  0.2449
16972TIP3   OH272330   5.551   4.970   0.550  0.1895  0.2990  0.3726
16972TIP3    H172331   5.621   4.910   0.525 -0.5350  0.4325 -2.3176
16972TIP3    H272332   5.475   4.914   0.566 -0.2720  0.3494 -1.3608
16973TIP3   OH272333   0.969   0.121   3.922 -0.2127  0.5185 -0.2967
16973TIP3    H172334   0.886   0.166   3.937  0.3712  1.4471  0.2849
16973TIP3    H272335   0.961   0.083   3.835 -0.7396  1.7626 -0.8121
16974TIP3   OH272336   6.540   1.890  16.993  0.2087 -0.1098 -0.3575
16974TIP3    H172337   6.517   1.972  16.948 -0.9144 -1.0618 -1.5698
16974TIP3    H272338   6.606   1.917  17.057 -0.3164  1.7990 -0.5368
16975TIP3   OH272339   1.424   2.180   4.838  0.1886 -0.8411  0.4154
16975TIP3    H172340   1.494   2.140   4.891  0.4233  0.5236  1.1775
16975TIP3    H272341   1.406   2.115   4.770  1.3452 -1.7464  0.9311
16976TIP3   OH272342   1.856   3.045  11.367  0.7015 -0.1594 -0.0245
16976TIP3    H172343   1.775   3.002  11.393 -0.0331  0.0751 -1.7396
16976TIP3    H272344   1.843   3.137  11.389  1.5110 -0.4738  1.9138
16977TIP3   OH272345   4.214   0.044   0.121 -0.2648 -0.0661 -0.0588
16977TIP3    H172346   4.148  -0.004   0.170 -0.0315 -1.3452 -0.9491
16977TIP3    H272347   4.296   0.024   0.166  0.0248 -1.6878 -1.2470
16978TIP3   OH272348   3.040   2.149   1.878  0.7147 -0.1466  0.4396
16978TIP3    H172349   3.038   2.072   1.934 -3.1576  0.0362  0.8245
16978TIP3    H272350   3.003   2.219   1.932  0.0565  0.8798 -1.2562
16979TIP3   OH272351   5.910   2.376   3.770  0.5775 -0.1491 -0.2377
16979TIP3    H172352   5.997   2.396   3.805  1.1094 -0.5127 -1.2807
16979TIP3    H272353   5.917   2.285   3.742 -0.3220 -0.3471  0.1762
16980TIP3   OH272354   1.709   0.414  12.925  0.1641 -0.3256 -0.2076
16980TIP3    H172355   1.735   0.363  13.003 -0.7166 -0.1389  0.2200
16980TIP3    H272356   1.725   0.505  12.950  2.5595 -0.3894 -1.2796
16981TIP3   OH272357   5.130   2.649  13.297  0.1843 -0.2066  0.3996
16981TIP3    H172358   5.187   2.715  13.337  1.1990 -0.4788 -0.5429
16981TIP3    H272359   5.047   2.695  13.282  0.7279  0.7336  0.1641
16982TIP3   OH272360   2.857   3.493   3.135  0.1137 -0.3845 -0.0891
16982TIP3    H172361   2.812   3.425   3.185 -1.4980  0.4577 -0.3403
16982TIP3    H272362   2.794   3.520   3.069  0.3453  2.0390  0.6069
16983TIP3   OH272363   5.241   0.239  17.251  0.0103 -0.2205  0.1761
16983TIP3    H172364   5.219   0.309  17.313 -0.6392  0.4393 -0.7740
16983TIP3    H272365   5.317   0.196  17.290  1.0775  1.6671  0.3085
16984TIP3   OH272366   5.376   5.365  15.894  0.4888 -0.3915  0.3253
16984TIP3    H172367   5.303   5.339  15.839 -0.2487  1.0128  0.5836
16984TIP3    H272368   5.454   5.335  15.847 -0.2095 -1.2233 -0.3364
16985TIP3   OH272369   6.696   0.201   4.026 -0.2483 -0.7212 -0.2916
16985TIP3    H172370   6.607   0.195   3.992 -0.0656 -0.9692 -0.7240
16985TIP3    H272371   6.684   0.207   4.121 -0.6916 -1.6649 -0.2751
16986TIP3   OH272372   2.828   5.015  12.795 -0.0574  0.0034 -0.0889
16986TIP3    H172373   2.796   5.103  12.774  0.6083  0.5254  1.0243
16986TIP3    H272374   2.778   4.990  12.873  0.2190 -0.3342 -0.0202
16987TIP3   OH272375   1.530   4.871   1.011 -0.3449  0.3491  0.7560
16987TIP3    H172376   1.568   4.861   1.099 -0.4519  0.0100  0.7647
16987TIP3    H272377   1.436   4.874   1.026 -0.3273  1.2579  0.7409
16988TIP3   OH272378   4.634   0.500   2.211  0.3342 -0.6655  0.1632
16988TIP3    H172379   4.668   0.579   2.169  0.9437 -0.4200  1.0960
16988TIP3    H272380   4.623   0.437   2.139  2.2641 -0.5764 -0.2554
16989TIP3   OH272381   1.363   2.730   0.492  0.0758  0.5717  0.4465
16989TIP3    H172382   1.287   2.678   0.465  0.2487  0.2622  0.5530
16989TIP3    H272383   1.438   2.682   0.456  0.2481  0.6428  0.7162
16990TIP3   OH272384   6.136   0.985   1.626 -0.3013 -0.5479  0.2153
16990TIP3    H172385   6.057   0.971   1.573 -0.7355  0.6928  0.5057
16990TIP3    H272386   6.110   0.959   1.714 -0.2854 -0.4436  0.2503
16991TIP3   OH272387   0.090   5.618  13.955  0.0652 -0.5353 -0.2339
16991TIP3    H172388   0.117   5.526  13.957 -0.4556 -0.7106 -0.8466
16991TIP3    H272389   0.170   5.667  13.940  0.2855 -0.9215 -0.3146
16992TIP3   OH272390   5.728   2.231   2.845 -0.2591  0.5669  0.2818
16992TIP3    H172391   5.729   2.316   2.801 -2.1113  0.7499  0.4936
16992TIP3    H272392   5.819   2.214   2.869  0.6769  0.9276 -2.6884
16993TIP3   OH272393   1.698   5.345  13.112  0.3619  0.6374  0.2964
16993TIP3    H172394   1.609   5.311  13.124  0.5112 -0.0862 -0.5311
16993TIP3    H272395   1.736   5.344  13.200 -0.2341  0.3355  0.5579
16994TIP3   OH272396   6.557   2.496   0.064 -0.1325 -0.0320 -0.6628
16994TIP3    H172397   6.565   2.570   0.124  0.0149 -0.1737 -0.5085
16994TIP3    H272398   6.641   2.493   0.019  0.2399 -0.7402  0.0626
16995TIP3   OH272399   0.256   1.673   4.628 -0.1257  0.2032  0.2013
16995TIP3    H172400   0.261   1.647   4.536 -0.1585  1.2720 -0.1213
16995TIP3    H272401   0.166   1.707   4.638 -0.7166 -1.5273  1.0960
16996TIP3   OH272402   6.440   1.748  14.023 -0.3151 -0.4730  0.7902
16996TIP3    H172403   6.405   1.837  14.031 -0.2786 -0.3906  0.1013
16996TIP3    H272404   6.441   1.715  14.112  2.8593  1.4300  1.6108
16997TIP3   OH272405   4.449   0.614  16.834 -0.6668 -0.0971  0.0221
16997TIP3    H172406   4.364   0.603  16.791 -1.2488  2.6029  0.2872
16997TIP3    H272407   4.429   0.663  16.914  1.0366 -0.2409  0.5658
16998TIP3   OH272408   1.203   5.182  14.689 -0.0966  0.0423  0.2862
16998TIP3    H172409   1.211   5.099  14.737 -2.2198 -0.0343  0.5931
16998TIP3    H272410   1.183   5.247  14.756 -3.4089 -0.1199 -0.3878
16999TIP3   OH272411   0.962   2.525  11.364 -0.3320 -0.2083  0.4708
16999TIP3    H172412   0.881   2.559  11.401  0.1520  0.2599  1.1368
16999TIP3    H272413   0.967   2.562  11.276 -0.7049 -0.0110  0.5332
17000TIP3   OH272414   6.176   1.168  16.588  0.3624 -0.7259  0.6076
17000TIP3    H172415   6.203   1.128  16.505 -1.3034 -0.2836 -0.1994
17000TIP3    H272416   6.094   1.123  16.611  0.6792 -0.6817  1.9104
17001TIP3   OH272417   6.085   3.479   0.685  0.1584 -0.2211  0.1217
17001TIP3    H172418   6.157   3.514   0.737 -0.5819  0.0773  0.9677
17001TIP3    H272419   6.027   3.554   0.671  0.8418 -0.0252 -2.0660
17002TIP3   OH272420   2.962   2.636   5.546  1.1188  0.2123  0.0482
17002TIP3    H172421   2.938   2.667   5.633  1.1810 -0.4392  0.3031
17002TIP3    H272422   2.879   2.617   5.503  1.1029  0.0423  0.1528
17003TIP3   OH272423   4.599   0.069  12.762 -0.3975  0.1827 -0.3591
17003TIP3    H172424   4.532   0.105  12.703 -1.4902  0.7804  1.1809
17003TIP3    H272425   4.558   0.069  12.848  0.2222 -3.0536  0.0676
17004TIP3   OH272426   4.210   2.539  15.537 -0.1405 -0.2466 -0.9100
17004TIP3    H172427   4.118   2.552  15.512 -1.2196 -1.7452  1.8508
17004TIP3    H272428   4.206   2.500  15.624  3.1924  0.6065 -0.2439
17005TIP3   OH272429   4.108   0.533   4.656 -0.0408  0.4928  0.0774
17005TIP3    H172430   4.196   0.540   4.693 -0.6223  1.7815  1.3422
17005TIP3    H272431   4.066   0.465   4.708  0.4491 -0.7634 -1.1175
17006TIP3   OH272432   3.046   1.836   0.686  0.1036 -0.4283 -0.1007
17006TIP3    H172433   2.990   1.794   0.751  0.7175 -2.7060 -0.9385
17006TIP3    H272434   3.102   1.894   0.737  0.7672 -2.3567  1.5221
17007TIP3   OH272435   5.177   3.678   2.094  0.7523  0.2517  0.4188
17007TIP3    H172436   5.272   3.671   2.109  1.0717  1.9805 -0.6562
17007TIP3    H272437   5.166   3.756   2.040 -1.5074  1.4906  2.4708
17008TIP3   OH272438   5.202   3.874  17.300 -0.8670  0.2724  0.5772
17008TIP3    H172439   5.269   3.888  17.366 -0.9322  0.9034  0.5193
17008TIP3    H272440   5.177   3.962  17.272 -0.4991  0.0018 -0.6390
17009TIP3   OH272441   3.143   1.567  11.890  0.5498  0.3085 -0.0902
17009TIP3    H172442   3.234   1.589  11.910  0.6755 -0.3616  0.0901
17009TIP3    H272443   3.147   1.483  11.844 -0.0964 -0.8636  1.8671
17010TIP3   OH272444   6.290   2.590   2.731  0.5690 -0.1202  0.4358
17010TIP3    H172445   6.270   2.656   2.664  0.3462 -0.7365 -0.1176
17010TIP3    H272446   6.211   2.588   2.786 -0.2930 -1.4246 -0.8100
17011TIP3   OH272447   6.226   5.217  17.190 -0.0456 -0.4080 -0.4728
17011TIP3    H172448   6.245   5.148  17.254  0.2321 -2.3323 -2.4956
17011TIP3    H272449   6.133   5.238  17.204  0.5041  0.8933  1.9672
17012TIP3   OH272450   4.951   0.907   2.199  0.1708  0.1527  0.3109
17012TIP3    H172451   4.999   0.981   2.161  0.6538 -0.3757 -0.1165
17012TIP3    H272452   4.903   0.869   2.126 -2.5201  1.8478  1.0588
17013TIP3   OH272453   6.684   4.911   2.156 -0.0930  0.1996  0.0115
17013TIP3    H172454   6.592   4.939   2.154 -0.5505 -1.0773  1.3679
17013TIP3    H272455   6.681   4.820   2.185  1.4821 -0.6703 -2.3190
17014TIP3   OH272456   0.614   0.763   1.945 -0.2222  0.0569  0.4016
17014TIP3    H172457   0.573   0.818   1.879 -2.1839 -1.4832  0.2340
17014TIP3    H272458   0.578   0.793   2.028 -1.0095 -0.6810  0.3434
17015TIP3   OH272459   6.196   4.741   2.672  0.4025 -0.1028 -0.6081
17015TIP3    H172460   6.226   4.702   2.754  1.7805  1.5017 -0.2870
17015TIP3    H272461   6.153   4.669   2.626 -0.3921 -1.0494  1.4789
17016TIP3   OH272462   3.517   3.233   0.825  0.1878  0.5291 -0.7811
17016TIP3    H172463   3.610   3.251   0.838 -0.1208  2.2675 -0.7544
17016TIP3    H272464   3.472   3.293   0.885 -0.9603 -0.5611 -0.4898
17017TIP3   OH272465   4.696   2.507  11.886  0.3484 -0.3743  0.0561
17017TIP3    H172466   4.668   2.570  11.952 -0.7850 -0.8423  0.0447
17017TIP3    H272467   4.693   2.423  11.930  2.5981 -0.3966  0.3000
17018TIP3   OH272468   3.541   6.696  11.751 -0.4866  0.2797  0.1414
17018TIP3    H172469   3.478   6.715  11.820  0.9552 -0.0472  1.5924
17018TIP3    H272470   3.578   6.611  11.774 -0.2336 -0.0193 -1.2544
17019TIP3   OH272471   6.703   4.012   5.466  0.2612 -0.4533 -0.0085
17019TIP3    H172472   6.676   3.966   5.545  1.4490 -2.0894 -0.4892
17019TIP3    H272473   6.795   4.033   5.481 -0.0560  1.1351 -0.1237
17020TIP3   OH272474   3.810   0.921  16.347  0.1918 -0.0687 -0.2096
17020TIP3    H172475   3.898   0.956  16.332  0.6049 -0.7385  0.5979
17020TIP3    H272476   3.757   0.999  16.363  1.1135  0.2580  1.6115
17021TIP3   OH272477   0.013   0.746   2.203  1.1524  0.1935  0.0147
17021TIP3    H172478   0.061   0.819   2.242  1.0505  0.2481  0.0409
17021TIP3    H272479  -0.003   0.687   2.276  0.0614  0.7842  0.2806
17022TIP3   OH272480   1.736   3.082   2.551  0.2297 -0.0265  0.6103
17022TIP3    H172481   1.681   3.157   2.574 -1.1207 -0.7707 -0.0792
17022TIP3    H272482   1.695   3.046   2.472  0.5123 -1.8156  1.2381
17023TIP3   OH272483   2.296   0.303  16.787 -0.2584 -0.3300  0.1005
17023TIP3    H172484   2.385   0.297  16.752 -0.2296  1.1122 -0.1098
17023TIP3    H272485   2.241   0.272  16.715  0.0744 -1.5238  0.3386
17024TIP3   OH272486   2.669   3.195  14.305  0.0749  0.0268  0.2323
17024TIP3    H172487   2.577   3.195  14.279 -0.6966  3.2149  2.4377
17024TIP3    H272488   2.670   3.148  14.388  0.3146  0.6026  0.5567
17025TIP3   OH272489   6.376   3.401  11.326 -0.1598 -0.1356 -0.3224
17025TIP3    H172490   6.395   3.473  11.267 -0.9764  0.5744  0.2423
17025TIP3    H272491   6.414   3.427  11.410  0.8964 -1.0817 -0.4812
17026TIP3   OH272492   1.972   5.617  12.867  0.6405  0.5059  0.3171
17026TIP3    H172493   2.025   5.559  12.922  0.6509  1.9863  1.9656
17026TIP3    H272494   1.995   5.705  12.897 -1.4530  1.2572 -0.1516
17027TIP3   OH272495   3.395   1.525   0.778  0.0903  0.3014 -0.4284
17027TIP3    H172496   3.317   1.469   0.777 -0.7922  1.3856  1.4726
17027TIP3    H272497   3.404   1.555   0.688 -2.5809  1.2442 -0.4883
17028TIP3   OH272498   0.706   2.903  13.618  0.2325 -0.3525 -0.6674
17028TIP3    H172499   0.646   2.971  13.648  0.1878 -0.3039 -0.8685
17028TIP3    H272500   0.721   2.849  13.696 -1.4714 -1.4279 -1.0305
17029TIP3   OH272501   3.186   3.118   3.036 -0.5363  0.1142 -0.3608
17029TIP3    H172502   3.147   3.183   2.977  1.9405  0.8370 -1.2976
17029TIP3    H272503   3.137   3.128   3.117 -1.7982  1.4775 -1.2269
17030TIP3   OH272504   1.461   6.356  16.668  0.1795 -0.5484 -0.7230
17030TIP3    H172505   1.426   6.288  16.610 -0.6343  0.3805 -1.3415
17030TIP3    H272506   1.495   6.423  16.609  3.0674 -1.3790 -0.1602
17031TIP3   OH272507   1.785   0.339   3.987  0.1093 -0.5571 -0.4579
17031TIP3    H172508   1.697   0.312   3.963 -0.5799  1.5138 -0.4232
17031TIP3    H272509   1.781   0.351   4.082  1.3818 -3.6054  0.0852
17032TIP3   OH272510   4.545   1.043   4.602  0.1210 -0.3130  0.0209
17032TIP3    H172511   4.621   0.987   4.619  0.5381 -0.2107 -1.3676
17032TIP3    H272512   4.575   1.132   4.621  0.4226 -0.2541 -0.6941
17033TIP3   OH272513   6.252   6.091   2.395 -0.4448 -0.4739 -0.1864
17033TIP3    H172514   6.198   6.021   2.359  0.8833 -1.1401 -0.9492
17033TIP3    H272515   6.321   6.046   2.443 -0.7138  0.3691  1.0233
17034TIP3   OH272516   1.092   2.422   3.452  0.1836  0.1521  0.0022
17034TIP3    H172517   1.088   2.331   3.483 -0.2416 -0.2270 -1.1265
17034TIP3    H272518   1.036   2.424   3.375 -0.7431  1.6619  0.6739
17035TIP3   OH272519   5.141   1.239  13.678 -0.0252 -0.0184 -0.2139
17035TIP3    H172520   5.213   1.289  13.639 -1.0391 -0.1247 -2.3790
17035TIP3    H272521   5.067   1.254  13.619 -1.6270 -0.4069  1.6080
17036TIP3   OH272522   3.997   3.797   3.819  1.0917  0.6526 -0.4475
17036TIP3    H172523   4.086   3.815   3.850  0.8532  1.4074 -0.1777
17036TIP3    H272524   3.954   3.753   3.892  1.4411 -0.3149 -0.8205
17037TIP3   OH272525   6.726   3.721  13.599 -0.1464  0.1753 -0.0501
17037TIP3    H172526   6.741   3.631  13.573 -0.7497 -0.0606  0.4053
17037TIP3    H272527   6.634   3.724  13.626  0.2537  0.5562  1.3794
17038TIP3   OH272528   5.314   4.830   4.319 -0.0345 -0.5413 -0.3053
17038TIP3    H172529   5.371   4.901   4.291  1.2809 -2.3879 -2.7068
17038TIP3    H272530   5.293   4.850   4.410  0.0473  2.9798 -0.9420
17039TIP3   OH272531   4.946   4.786   6.027 -0.2668 -0.0427  0.2163
17039TIP3    H172532   4.936   4.851   6.096 -0.2997 -0.1131  0.2791
17039TIP3    H272533   5.021   4.733   6.055 -0.3826 -0.1728  0.2809
17040TIP3   OH272534   1.818   0.267   0.486 -0.5867 -0.4308 -0.1996
17040TIP3    H172535   1.791   0.209   0.557 -0.1984  0.0988  0.3890
17040TIP3    H272536   1.846   0.208   0.416 -2.4415 -0.9788 -0.5145
17041TIP3   OH272537   0.290   1.693   0.755  0.1442  0.6013  0.3525
17041TIP3    H172538   0.290   1.783   0.789 -0.8991  1.6188 -2.0788
17041TIP3    H272539   0.287   1.704   0.660 -1.9910 -2.0001  0.0150
17042TIP3   OH272540   4.850   1.643   2.456  0.5645  0.2122 -0.8364
17042TIP3    H172541   4.774   1.675   2.505  0.2957 -0.4064 -0.8344
17042TIP3    H272542   4.924   1.654   2.515  0.0190 -2.0544  0.4246
17043TIP3   OH272543   2.086   3.912  16.043 -0.1202 -0.4919  0.5006
17043TIP3    H172544   2.042   3.935  15.961  2.5001 -1.3215 -1.2636
17043TIP3    H272545   2.036   3.837  16.077 -0.3927 -1.1166 -1.1708
17044TIP3   OH272546   3.615   4.002  11.860 -0.3658 -0.0115  0.0707
17044TIP3    H172547   3.631   3.908  11.851  0.3215  0.0244  0.8063
17044TIP3    H272548   3.595   4.031  11.771  0.2933 -0.7041 -0.3224
17045TIP3   OH272549   0.282   2.018  12.695 -0.6356 -0.0683 -0.1432
17045TIP3    H172550   0.189   2.023  12.720 -1.0295  1.0000 -1.6802
17045TIP3    H272551   0.322   2.094  12.737 -0.2824 -0.8896  1.0640
17046TIP3   OH272552   1.115   5.749   2.186 -0.1583  0.0985  0.0059
17046TIP3    H172553   1.104   5.810   2.259 -1.4366  1.3592 -1.1768
17046TIP3    H272554   1.174   5.682   2.220  0.6389  1.5356  1.6390
17047TIP3   OH272555   0.866   1.124  12.360 -0.1526  0.4637 -0.3561
17047TIP3    H172556   0.924   1.183  12.408  0.5601 -0.6327  0.1906
17047TIP3    H272557   0.908   1.038  12.369 -2.3115 -0.5409  0.8089
17048TIP3   OH272558   1.714   1.567  17.159 -0.0074  0.2558  0.0495
17048TIP3    H172559   1.654   1.599  17.092  1.3474 -0.0707 -1.3712
17048TIP3    H272560   1.671   1.489  17.194 -1.1474  0.9464  0.2162
17049TIP3   OH272561   1.949   4.070   2.929  0.7063  0.4358  0.3083
17049TIP3    H172562   1.954   4.050   2.836  0.0349 -1.3965  0.6099
17049TIP3    H272563   1.855   4.068   2.949  0.8944 -2.5361  1.5746
17050TIP3   OH272564   0.669   4.544  11.320 -0.0650  0.2607 -0.1076
17050TIP3    H172565   0.750   4.494  11.326  1.2674  2.3484  0.4188
17050TIP3    H272566   0.659   4.562  11.227 -0.4338 -0.7211 -0.2743
17051TIP3   OH272567   2.482   3.250  13.375  0.7805 -0.1841 -0.4941
17051TIP3    H172568   2.567   3.208  13.385 -0.6995 -3.0367  1.8934
17051TIP3    H272569   2.433   3.191  13.318 -0.5478 -0.3733  0.7746
17052TIP3   OH272570   4.478   0.688   2.354 -0.5694  0.3089 -0.0918
17052TIP3    H172571   4.511   0.627   2.289  0.2120  0.1310  0.4655
17052TIP3    H272572   4.519   0.771   2.332 -2.4473  0.9302 -1.5003
17053TIP3   OH272573   3.947   4.588  17.107  0.0699  0.1383  0.0170
17053TIP3    H172574   4.015   4.655  17.116  0.7312 -0.2744 -1.6329
17053TIP3    H272575   3.868   4.637  17.085  0.5138  0.4035 -1.0220
17054TIP3   OH272576   3.634   6.758  13.983 -0.7789  0.7507  0.0106
17054TIP3    H172577   3.576   6.786  13.912 -0.4783 -2.2903 -1.6108
17054TIP3    H272578   3.586   6.686  14.025  0.3206  0.5621  0.9857
17055TIP3   OH272579   0.456   3.517   3.408  0.0842  0.2543  0.0836
17055TIP3    H172580   0.386   3.479   3.356  1.1133 -0.0139 -1.1861
17055TIP3    H272581   0.467   3.458   3.482 -0.5692 -0.0684 -0.0721
17056TIP3   OH272582   5.160   0.236   2.963  0.2821  0.3617  0.2179
17056TIP3    H172583   5.200   0.302   2.907 -0.8890 -0.1047 -1.2438
17056TIP3    H272584   5.215   0.234   3.041  1.9815  1.0698 -0.8881
17057TIP3   OH272585   0.623   5.949   3.238 -0.4575  0.0406 -1.1979
17057TIP3    H172586   0.552   6.004   3.205 -1.4492 -1.1226 -1.0734
17057TIP3    H272587   0.640   5.983   3.326  0.3100  1.3869 -1.8301
17058TIP3   OH272588   4.017   3.094   2.256  0.6882  0.5359 -0.3002
17058TIP3    H172589   4.082   3.072   2.323  1.7987  0.5679 -1.3432
17058TIP3    H272590   4.068   3.108   2.176 -0.5716  0.9105 -1.0676
17059TIP3   OH272591   4.130   3.818   4.383 -0.4955 -0.3073 -0.0478
17059TIP3    H172592   4.114   3.913   4.383  0.3607 -0.1504  0.0723
17059TIP3    H272593   4.043   3.779   4.381 -0.8375  0.4745 -1.7353
17060TIP3   OH272594   3.007   3.095  16.210  0.3121 -0.0146 -0.2601
17060TIP3    H172595   2.930   3.066  16.162 -0.6718 -1.7381  2.1372
17060TIP3    H272596   2.972   3.141  16.286  1.7363  1.1143 -0.2563
17061TIP3   OH272597   4.137   6.441   1.084  0.0414  0.1092  0.0173
17061TIP3    H172598   4.042   6.433   1.084  0.0573 -0.1118  0.4544
17061TIP3    H272599   4.165   6.400   1.166  0.6544 -1.5468 -0.9680
17062TIP3   OH272600   6.630   6.728   4.185 -0.4722  0.2015 -0.1858
17062TIP3    H172601   6.685   6.778   4.245 -1.6581  0.9660  0.2992
17062TIP3    H272602   6.541   6.758   4.203 -1.0585 -0.9587 -0.9857
17063TIP3   OH272603   6.307   0.027  16.746 -0.2965  0.0736  0.8585
17063TIP3    H172604   6.261   0.104  16.778  0.0026  0.8849 -0.6091
17063TIP3    H272605   6.376   0.013  16.811  1.5917  2.9229 -0.3286
17064TIP3   OH272606   0.046   2.180  13.777 -0.1355  0.1874  0.4201
17064TIP3    H172607   0.132   2.223  13.772  0.6916 -1.5239 -1.1631
17064TIP3    H272608   0.018   2.192  13.868  1.3901  1.4625  0.7662
17065TIP3   OH272609   1.943   1.106  17.120 -0.1270 -0.1849 -0.8445
17065TIP3    H172610   1.857   1.139  17.146  0.0075 -0.2422 -0.3204
17065TIP3    H272611   1.923   1.031  17.064 -0.4211 -0.9472  0.2534
17066TIP3   OH272612   5.197   6.379  15.199  0.0938 -0.2377 -0.1179
17066TIP3    H172613   5.104   6.367  15.180  0.0130  1.5119 -1.0787
17066TIP3    H272614   5.240   6.309  15.149 -0.5258  0.9430 -2.4680
17067TIP3   OH272615   1.390   2.666   1.457  0.0707 -0.6300  0.5189
17067TIP3    H172616   1.322   2.675   1.390 -0.9653  1.8730  1.7776
17067TIP3    H272617   1.342   2.660   1.540  1.3436  0.3439  1.3739
17068TIP3   OH272618   2.551   1.512   0.587  0.7448  0.7401 -0.6375
17068TIP3    H172619   2.644   1.490   0.585  0.6648  0.4173 -0.8141
17068TIP3    H272620   2.537   1.547   0.675  0.6191 -1.0863  0.1124
17069TIP3   OH272621   1.220   4.071   3.258 -0.6084  1.0857  0.2338
17069TIP3    H172622   1.236   4.129   3.183  1.8342  1.6177  1.0651
17069TIP3    H272623   1.156   4.008   3.226 -0.2961  1.8110 -2.0273
17070TIP3   OH272624   3.915   6.063   4.016  0.0754 -0.5655  0.4299
17070TIP3    H172625   3.920   6.150   3.976  0.4859 -0.4010  0.8306
17070TIP3    H272626   3.826   6.058   4.052 -0.2063 -0.6110 -0.2502
17071TIP3   OH272627   3.342   4.701   1.384  0.3764 -0.2370 -0.1389
17071TIP3    H172628   3.290   4.781   1.393 -0.3657 -0.6185 -0.8588
17071TIP3    H272629   3.292   4.634   1.429  1.3351 -0.1785  1.0644
17072TIP3   OH272630   4.770   0.888   3.954  0.4475 -0.3968  0.1742
17072TIP3    H172631   4.744   0.864   3.865  2.1405  0.1740 -0.5002
17072TIP3    H272632   4.751   0.982   3.961 -1.0583 -0.7207  0.9561
17073TIP3   OH272633   2.838   2.307  15.309  0.3449  0.0146 -0.4720
17073TIP3    H172634   2.870   2.340  15.393  1.8087 -1.2934 -0.4812
17073TIP3    H272635   2.849   2.381  15.248  0.9471  0.3934  0.0888
17074TIP3   OH272636   1.631   6.112  16.536  0.0951 -0.9602 -0.2392
17074TIP3    H172637   1.707   6.102  16.593 -0.7041 -1.8261  0.7154
17074TIP3    H272638   1.556   6.107  16.595 -0.7085  2.1053 -0.8226
17075TIP3   OH272639   5.932   5.971  13.103  0.6626 -0.2118  0.3880
17075TIP3    H172640   5.846   6.013  13.114  0.3397 -0.8508  0.3701
17075TIP3    H272641   5.975   5.981  13.188  2.0748  3.2881 -0.5368
17076TIP3   OH272642   4.768   6.438  12.183 -0.2713 -0.6937  0.1912
17076TIP3    H172643   4.774   6.520  12.134 -3.0767 -1.1999 -1.1930
17076TIP3    H272644   4.854   6.429  12.226  0.4695  2.3968 -0.4260
17077TIP3   OH272645   3.252   4.022  13.707  0.4529 -0.2236  0.3405
17077TIP3    H172646   3.338   4.063  13.717  1.2867 -1.5631 -0.9875
17077TIP3    H272647   3.228   4.038  13.616 -0.1697 -0.8806  0.3814
17078TIP3   OH272648   3.436   2.582   1.611 -0.1932 -0.7384  0.5176
17078TIP3    H172649   3.346   2.610   1.593 -0.2104 -1.2566 -0.2474
17078TIP3    H272650   3.433   2.547   1.700 -0.4401  0.5214  1.0256
17079TIP3   OH272651   3.137   2.078  13.527  0.2165  0.1900  0.6653
17079TIP3    H172652   3.051   2.056  13.492  0.1876  2.4589 -0.9870
17079TIP3    H272653   3.120   2.113  13.614 -0.5560  0.6633  0.3326
17080TIP3   OH272654   2.914   4.434   3.878  0.2666  1.0431  0.2199
17080TIP3    H172655   2.968   4.368   3.922 -2.0740  0.4190  2.4022
17080TIP3    H272656   2.964   4.515   3.886  1.4351  0.2735  1.0621
17081TIP3   OH272657   2.611   2.260   4.935  0.1285 -0.2098 -0.6143
17081TIP3    H172658   2.678   2.290   4.873 -0.1014  0.2052 -0.6633
17081TIP3    H272659   2.538   2.233   4.880 -0.6084  1.4295 -0.5052
17082TIP3   OH272660   0.363   4.884  15.482 -0.2046 -0.3531  0.2261
17082TIP3    H172661   0.366   4.934  15.400 -1.7091  0.7235  0.7940
17082TIP3    H272662   0.359   4.951  15.550  0.9678 -1.2440  1.1954
17083TIP3   OH272663   2.264   5.982  11.708 -0.3346  0.3080  0.2580
17083TIP3    H172664   2.210   5.905  11.693 -3.3915  2.0752  1.2865
17083TIP3    H272665   2.224   6.051  11.655 -0.4107  2.2077  2.6043
17084TIP3   OH272666   6.205   5.585   6.245 -0.6686  0.3283 -0.4115
17084TIP3    H172667   6.127   5.529   6.249 -0.2150 -0.2583  0.7077
17084TIP3    H272668   6.179   5.666   6.287 -1.3575  1.0483 -2.1200
17085TIP3   OH272669   5.570   6.500  15.305 -0.0224 -0.0867  0.6592
17085TIP3    H172670   5.584   6.443  15.230 -0.8885 -0.0480  0.4524
17085TIP3    H272671   5.654   6.502  15.350  0.3619 -0.5275 -0.0184
17086TIP3   OH272672   0.009   0.958  12.775 -0.0953  0.1531  0.2022
17086TIP3    H172673   0.042   1.028  12.719  2.9972 -1.0864  0.2487
17086TIP3    H272674   0.081   0.939  12.835 -1.3989 -1.9961  1.2240
17087TIP3   OH272675   4.212   2.959  17.254  0.1412  0.3905 -0.3446
17087TIP3    H172676   4.236   3.049  17.229  0.0110  0.4710 -0.1827
17087TIP3    H272677   4.257   2.904  17.190 -0.9554  0.6379 -1.3607
17088TIP3   OH272678   4.415   4.155   5.057 -0.0377 -0.3238  0.1479
17088TIP3    H172679   4.423   4.074   5.007 -0.4627  0.0823 -0.5904
17088TIP3    H272680   4.385   4.220   4.994  0.3334  0.4246  0.7174
17089TIP3   OH272681   5.606   3.107  16.893 -0.3378 -0.0927 -0.6013
17089TIP3    H172682   5.524   3.113  16.942 -0.2163  0.5221 -0.4660
17089TIP3    H272683   5.674   3.106  16.960 -0.2017  0.0774 -0.7368
17090TIP3   OH272684   1.055   2.453   5.565  0.2292  0.4442 -0.1369
17090TIP3    H172685   1.080   2.361   5.572  0.5685  0.6558  2.1976
17090TIP3    H272686   0.988   2.455   5.497  0.7100 -1.4145 -0.7103
17091TIP3   OH272687   0.027   6.458  16.277 -0.6992  0.4040 -0.0537
17091TIP3    H172688   0.042   6.502  16.194  2.2414 -0.1176  0.1076
17091TIP3    H272689   0.010   6.529  16.339  0.9128  1.1109 -0.3864
17092TIP3   OH272690   0.227   0.626  15.490  0.0968 -0.1939 -0.6923
17092TIP3    H172691   0.204   0.682  15.416 -0.5812 -1.1224 -1.2074
17092TIP3    H272692   0.170   0.550  15.481  1.2243 -1.1389 -0.2142
17093TIP3   OH272693   3.628   4.717  12.275 -0.1033 -0.3603  0.0295
17093TIP3    H172694   3.567   4.764  12.218 -1.5880 -0.6342  1.3065
17093TIP3    H272695   3.691   4.677  12.216 -0.6252  0.7059 -1.2871
17094TIP3   OH272696   1.398   3.464   2.176  0.2135  0.0512  0.0380
17094TIP3    H172697   1.397   3.552   2.138  0.1756  0.2770  0.5507
17094TIP3    H272698   1.473   3.465   2.235 -0.4602  0.1271  0.9233
17095TIP3   OH272699   0.412   1.844  13.129  0.3539  0.1647 -0.1476
17095TIP3    H172700   0.405   1.773  13.065  0.2125  0.3372 -0.3259
17095TIP3    H272701   0.501   1.877  13.118  0.5770 -0.2878  0.2586
17096TIP3   OH272702   5.074   3.103  15.258 -0.4855 -0.0243  0.2315
17096TIP3    H172703   5.147   3.163  15.240 -1.1477  0.9051  0.5390
17096TIP3    H272704   5.079   3.088  15.353 -1.1994  0.7524  0.4076
17097TIP3   OH272705   1.015   5.296   2.576  0.4162 -0.0626  0.3490
17097TIP3    H172706   1.017   5.389   2.551  0.1958  0.2782  1.5572
17097TIP3    H272707   0.922   5.276   2.586  0.3363 -0.8875 -1.4945
17098TIP3   OH272708   3.792   2.793  15.321 -0.5479  0.2168 -0.2982
17098TIP3    H172709   3.721   2.835  15.369 -1.2734 -1.3358  0.0781
17098TIP3    H272710   3.748   2.737  15.257  0.3410 -0.3421 -0.4419
17099TIP3   OH272711   2.233   3.351   3.448 -0.2359  0.9095  0.5058
17099TIP3    H172712   2.210   3.297   3.372  1.7757  0.9716 -0.2085
17099TIP3    H272713   2.211   3.440   3.420  2.0409  1.1528 -0.7535
17100TIP3   OH272714   2.600   4.778   5.854  0.1653 -0.0111  0.3271
17100TIP3    H172715   2.518   4.742   5.819  0.8773 -2.5985  1.0971
17100TIP3    H272716   2.661   4.775   5.780  0.5736 -1.7601  0.6784
17101TIP3   OH272717   0.134   1.216   1.732 -0.1332 -0.4738  0.8881
17101TIP3    H172718   0.216   1.189   1.691  0.7996  1.4199  1.4088
17101TIP3    H272719   0.067   1.198   1.666  0.6321 -2.2693  0.5366
17102TIP3   OH272720   1.485   0.539   1.064  0.3914  0.4187  0.4357
17102TIP3    H172721   1.513   0.621   1.105  1.5685  0.0950  0.3085
17102TIP3    H272722   1.409   0.511   1.115 -0.0756  1.6148  0.4338
17103TIP3   OH272723   5.377   2.689   4.034  0.2851 -0.1231  0.1131
17103TIP3    H172724   5.308   2.645   3.985 -0.5819  0.6014  0.6571
17103TIP3    H272725   5.332   2.756   4.084  1.7023  2.1989 -1.5544
17104TIP3   OH272726   3.852   4.595  13.940 -0.1452 -0.4797 -0.1222
17104TIP3    H172727   3.821   4.644  14.016 -0.8232 -0.1574 -0.6028
17104TIP3    H272728   3.773   4.565  13.895  0.2389 -2.2644  0.2913
17105TIP3   OH272729   2.358   4.113  12.168 -0.3127  0.4089  0.1035
17105TIP3    H172730   2.347   4.206  12.153 -0.4290  0.1558 -1.4836
17105TIP3    H272731   2.345   4.072  12.083 -1.9377 -1.2137  1.0395
17106TIP3   OH272732   2.891   6.503  13.464  0.6855 -0.2235 -0.1770
17106TIP3    H172733   2.908   6.580  13.518 -2.2783  1.2730 -1.1218
17106TIP3    H272734   2.968   6.494  13.408  0.8715  2.4493 -0.4468
17107TIP3   OH272735   1.657   1.465  15.464  0.8979 -0.5329 -0.5938
17107TIP3    H172736   1.740   1.493  15.425  1.2203 -1.2858 -0.4798
17107TIP3    H272737   1.672   1.373  15.487  0.7835 -0.0973  1.4268
17108TIP3   OH272738   3.451   6.000  13.490  0.2498  0.4126 -0.3944
17108TIP3    H172739   3.395   6.077  13.504  2.0004  1.7958 -0.6847
17108TIP3    H272740   3.522   6.031  13.434  1.5184 -1.1874  0.2428
17109TIP3   OH272741   6.541   0.358  11.479  0.3308 -0.1530  0.6461
17109TIP3    H172742   6.556   0.429  11.416  0.7808  0.0323  0.9548
17109TIP3    H272743   6.628   0.331  11.506  0.1531 -0.6424  0.7421
17110TIP3   OH272744   3.446   3.043  17.303 -0.2721 -0.0549  0.0375
17110TIP3    H172745   3.538   3.034  17.327 -0.7299 -0.5783  1.6863
17110TIP3    H272746   3.444   3.021  17.210  0.9924 -1.9551  0.4000
17111TIP3   OH272747   1.976   2.910   3.814 -0.4247  0.0312 -0.0319
17111TIP3    H172748   1.926   2.832   3.791  0.6670 -0.9970  0.9528
17111TIP3    H272749   2.068   2.883   3.810 -0.0453  1.0207  1.1040
17112TIP3   OH272750   1.477   5.745  15.073  1.2735 -0.1315 -0.3775
17112TIP3    H172751   1.552   5.697  15.109  0.8695  0.0630  0.7675
17112TIP3    H272752   1.484   5.732  14.978  1.2285 -2.3458 -0.1308
17113TIP3   OH272753   4.804   1.349  11.380  0.0012  0.4399  0.4554
17113TIP3    H172754   4.759   1.402  11.315 -1.0887 -1.2976 -0.2786
17113TIP3    H272755   4.873   1.304  11.330 -0.3952 -0.3691  0.6233
17114TIP3   OH272756   0.103   1.299  11.795  0.0377  0.4309  0.5056
17114TIP3    H172757   0.110   1.220  11.741 -2.1863 -0.7717  1.8009
17114TIP3    H272758   0.188   1.342  11.788  0.5451 -0.8176 -2.1337
17115TIP3   OH272759   0.165   6.510   6.285 -1.2631 -0.2802  0.2919
17115TIP3    H172760   0.187   6.504   6.192  0.5893 -0.8887  0.7178
17115TIP3    H272761   0.242   6.550   6.325 -3.1145  2.6230  1.2461
17116TIP3   OH272762   4.350   6.033   5.785  0.0243  0.0825 -0.1435
17116TIP3    H172763   4.283   6.099   5.769  0.0344 -0.4489 -2.8100
17116TIP3    H272764   4.313   5.977   5.853 -0.6684  1.8303  0.9901
17117TIP3   OH272765   0.249   0.691   4.102 -0.9422  0.1905 -0.2520
17117TIP3    H172766   0.237   0.704   4.196 -0.4134  0.0536 -0.1634
17117TIP3    H272767   0.315   0.622   4.095 -0.0568  1.0447 -0.7068
17118TIP3   OH272768   6.210   0.409  16.029  0.0341 -0.7037  0.4674
17118TIP3    H172769   6.218   0.415  15.933 -0.2482  0.1557  0.4880
17118TIP3    H272770   6.115   0.409  16.044  0.0797 -0.6686  0.7547
17119TIP3   OH272771   3.601   4.847   5.870 -0.8399 -0.7277 -0.5404
17119TIP3    H172772   3.597   4.901   5.791  2.2460 -0.3873 -0.6006
17119TIP3    H272773   3.536   4.886   5.929  0.5385  2.5362 -0.9446
17120TIP3   OH272774   5.249   5.579  16.833 -0.2957  0.4380 -0.5211
17120TIP3    H172775   5.306   5.553  16.760 -0.0242  0.1300 -0.2051
17120TIP3    H272776   5.310   5.593  16.906 -0.6585 -0.2424 -0.0809
17121TIP3   OH272777   1.440   3.004   5.807 -0.5672  0.1606 -1.0865
17121TIP3    H172778   1.404   2.932   5.858 -0.8041  0.9639 -0.0881
17121TIP3    H272779   1.373   3.023   5.742 -0.5392 -0.4585 -1.3009
17122TIP3   OH272780   5.445   1.263   0.497 -0.6769 -0.0816 -0.5176
17122TIP3    H172781   5.496   1.310   0.431 -0.1916 -1.8629 -1.4840
17122TIP3    H272782   5.389   1.330   0.536  2.2163  1.9997  0.4948
17123TIP3   OH272783   3.813   1.433  16.865 -0.1778 -0.2523 -0.8436
17123TIP3    H172784   3.736   1.377  16.855  0.3489 -1.0900 -0.3266
17123TIP3    H272785   3.777   1.518  16.891 -0.9032 -0.7757 -0.0757
17124TIP3   OH272786   4.061   3.906   1.690  0.1637 -0.2731 -0.1383
17124TIP3    H172787   4.023   3.982   1.735  2.0145  1.4395 -1.2703
17124TIP3    H272788   4.016   3.831   1.728 -0.3459  1.2306  2.5121
17125TIP3   OH272789   5.075   4.871  13.155 -0.5564 -0.0275  0.0417
17125TIP3    H172790   5.129   4.867  13.235 -1.4674 -0.5170  0.6446
17125TIP3    H272791   5.050   4.780  13.139 -0.0311  0.0099 -1.0629
17126TIP3   OH272792   1.131   3.109   6.645 -0.1642  0.2747 -0.0888
17126TIP3    H172793   1.144   3.045   6.715 -2.1150  0.4222  0.4673
17126TIP3    H272794   1.184   3.184   6.671 -0.4358  0.1171  0.9769
17127TIP3   OH272795   3.646   3.418   4.355 -0.2438  0.2234  0.0384
17127TIP3    H172796   3.646   3.330   4.318  0.4583  0.5127 -0.6831
17127TIP3    H272797   3.585   3.413   4.429 -2.4853 -0.1317 -1.7147
17128TIP3   OH272798   6.402   6.297   3.241 -0.1321  0.5317 -0.9383
17128TIP3    H172799   6.428   6.226   3.181 -0.8542 -0.8618  0.3512
17128TIP3    H272800   6.476   6.357   3.238  1.0272 -0.8306 -1.2222
17129TIP3   OH272801   1.092   2.552  16.744 -0.3174 -0.5291 -0.1756
17129TIP3    H172802   1.104   2.532  16.837 -1.9922  1.6976  0.6212
17129TIP3    H272803   1.166   2.509  16.701  1.3003 -0.5248  2.3307
17130TIP3   OH272804   3.939   1.420   1.754  0.1055 -0.3503 -0.1908
17130TIP3    H172805   4.006   1.479   1.788 -0.3461  0.7009 -1.0617
17130TIP3    H272806   3.912   1.459   1.671  0.2408 -2.1206 -1.1333
17131TIP3   OH272807   3.919   4.709   5.717  0.3135 -0.2602 -0.7897
17131TIP3    H172808   3.980   4.646   5.755 -0.0002  0.3508  0.8293
17131TIP3    H272809   3.833   4.666   5.723 -0.2654  1.0385  2.3965
17132TIP3   OH272810   1.596   2.229   1.958  0.4010  0.1920 -0.0165
17132TIP3    H172811   1.506   2.207   1.936 -0.1135  1.3030  0.8264
17132TIP3    H272812   1.644   2.148   1.948 -0.6791 -0.3986 -0.5748
17133TIP3   OH272813   1.545   1.831   4.224 -0.4403 -0.4721  0.2024
17133TIP3    H172814   1.588   1.770   4.283 -2.2280 -0.6485  1.4065
17133TIP3    H272815   1.504   1.896   4.282 -1.2542  0.0359 -0.9002
17134TIP3   OH272816   4.704   3.262  14.080 -0.6727  0.3445 -0.1399
17134TIP3    H172817   4.627   3.316  14.063 -1.1650  0.2376  1.5888
17134TIP3    H272818   4.750   3.307  14.150  0.8210  0.3533 -1.0768
17135TIP3   OH272819   1.707   2.442   1.800 -0.0244 -0.1829  0.3271
17135TIP3    H172820   1.646   2.397   1.741  0.9864 -1.8469  0.4973
17135TIP3    H272821   1.674   2.422   1.888 -2.3691  3.4627  0.4811
17136TIP3   OH272822   6.727   5.460   2.851 -0.3202 -0.0382  0.5182
17136TIP3    H172823   6.733   5.421   2.939  0.2430 -1.5551 -0.1582
17136TIP3    H272824   6.763   5.548   2.861  1.2134 -0.7293  1.5041
17137TIP3   OH272825   4.550   5.241  13.518  0.4491 -0.2049  0.1253
17137TIP3    H172826   4.632   5.266  13.561 -0.2905 -0.5528  1.8683
17137TIP3    H272827   4.525   5.317  13.466  0.7783  0.7862  1.3507
17138TIP3   OH272828   1.975   6.110   2.014  0.4306 -0.2804  0.1730
17138TIP3    H172829   1.950   6.151   2.097 -0.3828 -1.1265  0.3603
17138TIP3    H272830   2.007   6.023   2.039  1.0290 -0.2120 -0.3249
17139TIP3   OH272831   5.839   4.579   4.589 -0.1844  0.6098  0.2052
17139TIP3    H172832   5.845   4.509   4.654 -2.4981 -0.8515 -1.0355
17139TIP3    H272833   5.930   4.606   4.576  0.5980 -0.8353  2.1001
17140TIP3   OH272834   1.872   4.122   1.827 -0.4272  0.0811 -0.3352
17140TIP3    H172835   1.849   4.052   1.766 -0.0989  0.4513 -0.9023
17140TIP3    H272836   1.788   4.163   1.850 -0.8000 -1.4654  1.2444
17141TIP3   OH272837   2.224   3.395   2.215 -0.0982  0.0666 -0.1812
17141TIP3    H172838   2.268   3.455   2.154 -0.4295  0.4380 -0.0583
17141TIP3    H272839   2.285   3.321   2.223  1.0146  1.0370  0.7870
17142TIP3   OH272840   4.563   2.107   1.124  0.4931 -0.2955 -0.4158
17142TIP3    H172841   4.489   2.051   1.100  0.9695 -0.2926 -1.9923
17142TIP3    H272842   4.640   2.052   1.112  0.7666 -0.6464  2.2243
17143TIP3   OH272843   3.255   6.362  14.797 -0.3490 -0.2984 -0.7034
17143TIP3    H172844   3.342   6.328  14.775  0.9028  1.7089  0.7835
17143TIP3    H272845   3.234   6.320  14.880  1.0318  1.9938  0.9402
17144TIP3   OH272846   1.727   2.201  10.881  0.2103 -0.2195  0.3081
17144TIP3    H172847   1.704   2.205  10.788 -1.1706  0.9556  0.6727
17144TIP3    H272848   1.774   2.118  10.890 -0.4396 -0.7949 -1.2540
17145TIP3   OH272849   5.406   5.725   4.812  0.5186 -0.0543 -0.3459
17145TIP3    H172850   5.323   5.691   4.779 -0.2122  1.1516  0.1603
17145TIP3    H272851   5.391   5.740   4.905  1.2911  0.2191 -0.2550
17146TIP3   OH272852   0.988   1.222  14.761  0.7941  0.0676 -0.0909
17146TIP3    H172853   1.036   1.300  14.789  0.0942  0.5780 -0.2822
17146TIP3    H272854   0.896   1.245  14.775  0.6002 -0.8572  0.1869
17147TIP3   OH272855   5.614   1.465  13.671  0.2367 -0.0475 -0.1757
17147TIP3    H172856   5.687   1.469  13.733  1.5178  0.7746 -1.6415
17147TIP3    H272857   5.635   1.531  13.606 -2.3886  0.9386 -0.1277
17148TIP3   OH272858   3.326   3.700  15.925  0.0265  0.2592  0.1784
17148TIP3    H172859   3.418   3.686  15.905  0.0382  0.9945 -0.3022
17148TIP3    H272860   3.280   3.678  15.844 -0.2349 -0.2769  0.4720
17149TIP3   OH272861   1.137   1.368  16.785  0.5527  0.2661  0.2851
17149TIP3    H172862   1.174   1.284  16.811 -0.2137 -0.4332 -0.8091
17149TIP3    H272863   1.177   1.386  16.700 -2.2570 -1.0268 -1.4594
17150TIP3   OH272864   1.579   5.407   4.104  0.4587  0.3921 -0.1183
17150TIP3    H172865   1.615   5.463   4.173 -0.8341 -1.0770  1.8676
17150TIP3    H272866   1.642   5.335   4.096 -0.8982 -1.1945  2.0379
17151TIP3   OH272867   3.566   4.841  12.718  0.0752  0.0791  1.1445
17151TIP3    H172868   3.555   4.849  12.813 -0.3922  0.6254  1.0432
17151TIP3    H272869   3.572   4.931  12.687 -1.4690 -0.0228  0.4585
17152TIP3   OH272870   4.777   1.913   3.271 -0.6602  0.1751 -0.5209
17152TIP3    H172871   4.872   1.900   3.265 -0.6358  0.8157 -1.9700
17152TIP3    H272872   4.753   1.949   3.186 -2.2718 -0.3238 -0.3062
17153TIP3   OH272873   0.920   3.534   5.815 -0.4390  0.4329 -0.1829
17153TIP3    H172874   0.889   3.480   5.888 -0.8109 -1.2579 -1.5174
17153TIP3    H272875   1.002   3.572   5.846  1.5710 -3.4177 -0.1395
17154TIP3   OH272876   4.092   5.891   1.599 -0.3917 -0.1862 -0.4122
17154TIP3    H172877   4.158   5.939   1.648 -0.6915 -0.9860  0.8410
17154TIP3    H272878   4.141   5.838   1.536  0.0513  0.3536 -0.5204
17155TIP3   OH272879   3.645   0.703  16.446  0.7106  0.4751 -0.8117
17155TIP3    H172880   3.573   0.749  16.489  0.6671 -0.2584 -0.0527
17155TIP3    H272881   3.703   0.772  16.415  0.6194  1.0556  0.2518
17156TIP3   OH272882   4.751   1.225  15.442  0.1277  0.0696  0.6164
17156TIP3    H172883   4.735   1.187  15.356  1.3957 -1.6896  1.1031
17156TIP3    H272884   4.691   1.300  15.447 -1.8789 -1.3495 -0.7528
17157TIP3   OH272885   0.243   4.469  11.360 -0.3909  0.0209  1.0153
17157TIP3    H172886   0.305   4.532  11.325 -2.0123  0.7917 -0.6659
17157TIP3    H272887   0.294   4.389  11.372  0.6899  0.2295 -1.5631
17158TIP3   OH272888   3.092   4.831  10.990  0.7570  0.3826 -0.0169
17158TIP3    H172889   3.054   4.885  10.921  1.3295  0.8353  0.0231
17158TIP3    H272890   3.029   4.759  11.001  0.5131  0.4726 -0.7910
17159TIP3   OH272891   2.925   3.884   2.735  0.3576  0.4729 -0.3329
17159TIP3    H172892   3.013   3.859   2.764  0.7595  2.4666  0.2963
17159TIP3    H272893   2.917   3.845   2.648  1.2362 -1.0413  0.2233
17160TIP3   OH272894   5.768   3.767  12.054  0.1505 -0.2584  0.1470
17160TIP3    H172895   5.811   3.682  12.043 -0.8829 -0.7854  0.0811
17160TIP3    H272896   5.692   3.749  12.110  0.5369  0.8280  1.0621
17161TIP3   OH272897   3.124   1.648  13.220  0.0309 -0.0684 -0.1982
17161TIP3    H172898   3.030   1.665  13.227  0.4018  1.6846  1.4280
17161TIP3    H272899   3.140   1.575  13.280 -0.2028  0.0837  0.0495
17162TIP3   OH272900   3.163   6.497  12.581 -0.3491  0.6943 -0.0831
17162TIP3    H172901   3.175   6.403  12.594  0.2102  0.7049 -0.5030
17162TIP3    H272902   3.072   6.513  12.606 -0.1046  0.2511  1.1576
17163TIP3   OH272903   5.867   4.649  15.286  0.2867  0.1384 -0.0052
17163TIP3    H172904   5.907   4.702  15.217  1.4417  0.8816  1.2022
17163TIP3    H272905   5.939   4.625  15.344 -0.7159 -0.1058  1.1897
17164TIP3   OH272906   0.857   5.272   3.634  0.0261 -0.0076  0.5390
17164TIP3    H172907   0.804   5.194   3.617 -1.8459  1.3756 -0.3594
17164TIP3    H272908   0.797   5.345   3.619  2.5774  1.7544 -2.1465
17165TIP3   OH272909   5.134   5.396  14.648  0.0204  0.6324 -0.8277
17165TIP3    H172910   5.217   5.358  14.618 -0.2176  0.0044 -0.7172
17165TIP3    H272911   5.069   5.367  14.583 -0.1769  0.7878 -0.7007
17166TIP3   OH272912   4.295   2.127   4.195 -0.1405 -0.3920 -0.0229
17166TIP3    H172913   4.255   2.211   4.219  1.0746 -0.0456  0.8547
17166TIP3    H272914   4.271   2.115   4.103 -0.6072  0.7486 -0.0683
17167TIP3   OH272915   0.615   5.113  11.074  0.5180  0.2881 -0.5435
17167TIP3    H172916   0.626   5.184  11.010  0.8929  1.0333  0.3413
17167TIP3    H272917   0.525   5.083  11.060  0.2275  1.1904 -0.6692
17168TIP3   OH272918   3.650   0.020   0.150  0.2671  1.1506  0.1511
17168TIP3    H172919   3.670   0.105   0.111 -0.6730  2.8428  3.1092
17168TIP3    H272920   3.557   0.025   0.172 -0.0811 -1.1134 -0.5454
17169TIP3   OH272921   2.969   5.926  12.757 -0.4026  0.2638 -0.2569
17169TIP3    H172922   2.875   5.904  12.755 -0.1978 -1.0449  1.8914
17169TIP3    H272923   2.974   6.005  12.811 -0.1015 -0.8609  1.4001
17170TIP3   OH272924   1.944   0.730   2.689 -0.5736 -0.1698  0.3977
17170TIP3    H172925   1.976   0.791   2.756  0.6509 -1.9375  1.5019
17170TIP3    H272926   1.976   0.766   2.606  0.4471  0.4862  1.0638
17171TIP3   OH272927   3.422   2.736  14.997 -0.2156 -0.4267  0.1870
17171TIP3    H172928   3.333   2.729  14.962 -1.1842  1.2611  2.1301
17171TIP3    H272929   3.477   2.691  14.932 -2.3692 -0.8825 -1.4203
17172TIP3   OH272930   3.304   2.245   2.699 -0.3766 -0.0544 -0.2262
17172TIP3    H172931   3.300   2.340   2.685 -0.4893 -0.0516 -0.1748
17172TIP3    H272932   3.282   2.207   2.614 -0.3182 -0.0339 -0.2502
17173TIP3   OH272933   5.885   2.826   5.646  0.3801  0.2189 -0.1013
17173TIP3    H172934   5.959   2.859   5.595 -0.3670  0.6975 -0.8871
17173TIP3    H272935   5.868   2.739   5.610  0.8641 -0.0958  0.4124
17174TIP3   OH272936   0.374   2.968   0.163  0.1086 -0.2382 -0.1788
17174TIP3    H172937   0.286   3.003   0.149  0.0118 -0.3734  0.0932
17174TIP3    H272938   0.430   3.020   0.105 -0.3390 -1.0125 -1.3409
17175TIP3   OH272939   1.403   3.520   1.706  0.1742  0.3559 -0.1865
17175TIP3    H172940   1.316   3.494   1.676  0.1225 -0.2811  0.4730
17175TIP3    H272941   1.416   3.470   1.787 -0.1328  2.7528  1.4723
17176TIP3   OH272942   1.738   5.928   4.024 -0.3666 -0.2372  0.0257
17176TIP3    H172943   1.785   5.847   4.043 -0.7107 -0.3440  0.4510
17176TIP3    H272944   1.754   5.945   3.931  1.9301  0.6565  0.5212
17177TIP3   OH272945   6.176   0.987  14.263 -0.1251 -0.2270  0.6817
17177TIP3    H172946   6.256   1.012  14.309 -0.5643  2.6857  0.1106
17177TIP3    H272947   6.107   0.994  14.330 -0.2388  0.0086  0.5432
17178TIP3   OH272948   4.358   0.778   4.583  0.2976 -0.4064  0.0953
17178TIP3    H172949   4.274   0.772   4.538  0.6358  1.3051 -0.8564
17178TIP3    H272950   4.356   0.862   4.629  1.6225 -0.1280 -0.2904
17179TIP3   OH272951   4.296   1.568   3.597 -0.2728 -0.0958  0.1393
17179TIP3    H172952   4.367   1.564   3.533 -0.6172  2.2832 -0.4977
17179TIP3    H272953   4.336   1.538   3.679  0.9379 -0.5938 -0.6020
17180TIP3   OH272954   1.366   0.756   2.864 -0.0396 -0.1970  0.5717
17180TIP3    H172955   1.287   0.793   2.903  0.6607  1.6756  0.3139
17180TIP3    H272956   1.436   0.782   2.923  0.7051  0.4966 -0.5674
17181TIP3   OH272957   4.893   0.777  11.816 -0.1956 -0.0295 -0.1471
17181TIP3    H172958   4.915   0.781  11.909 -0.3855 -0.1744 -0.0947
17181TIP3    H272959   4.959   0.717  11.779 -0.8959 -1.0004  0.1330
17182TIP3   OH272960   6.637   3.180  12.163 -0.0293  0.1737  0.3798
17182TIP3    H172961   6.687   3.259  12.183  1.1155 -0.2887 -0.5733
17182TIP3    H272962   6.662   3.117  12.231 -1.4368  0.7953  1.5318
17183TIP3   OH272963   2.015   4.636   6.147  0.2297 -0.1553  0.1414
17183TIP3    H172964   2.098   4.613   6.188 -0.3209 -0.1939  1.2555
17183TIP3    H272965   1.949   4.585   6.193 -0.6610  1.3681  0.6439
17184TIP3   OH272966   2.414   3.227  15.936  0.2497  0.0370  0.5682
17184TIP3    H172967   2.380   3.314  15.915  1.3660  0.0086 -1.5759
17184TIP3    H272968   2.365   3.167  15.879 -0.7793 -0.8435  2.2884
17185TIP3   OH272969   2.514   0.835  17.164  0.4715 -0.3663  0.0274
17185TIP3    H172970   2.586   0.827  17.227  0.5807  0.5763  0.0395
17185TIP3    H272971   2.453   0.765  17.187  1.3679 -1.1632  0.0392
17186TIP3   OH272972   0.469   5.900  15.634  0.2641 -0.8779  0.0173
17186TIP3    H172973   0.498   5.952  15.558  1.7157 -0.5327  0.7713
17186TIP3    H272974   0.541   5.840  15.650 -0.7786 -2.1551  0.0789
17187TIP3   OH272975   5.698   2.138   0.657  0.1506 -0.2363  0.2113
17187TIP3    H172976   5.642   2.209   0.689 -0.6181 -0.5216 -0.4897
17187TIP3    H272977   5.775   2.142   0.714 -0.7171 -0.0540  1.4127
17188TIP3   OH272978   3.200   6.714  14.368  0.3034 -0.1894  0.4054
17188TIP3    H172979   3.262   6.716  14.441  0.2728 -3.1484  0.6500
17188TIP3    H272980   3.118   6.746  14.405  1.2007  2.0637  0.5561
17189TIP3   OH272981   5.692   2.655   3.144  0.4617 -0.2085  0.5531
17189TIP3    H172982   5.614   2.618   3.103  0.2715  1.8644 -1.1799
17189TIP3    H272983   5.763   2.638   3.081  0.9103 -0.0494  1.0123
17190TIP3   OH272984   5.451   3.583  15.005 -0.5488 -0.5056 -0.2743
17190TIP3    H172985   5.383   3.643  14.973  1.6818  1.5230 -1.5373
17190TIP3    H272986   5.426   3.498  14.969 -1.5126  0.5025 -2.1921
17191TIP3   OH272987   5.425   3.928  15.330  0.0015 -0.5760 -0.3973
17191TIP3    H172988   5.391   3.898  15.414 -1.5414  1.2885 -0.3074
17191TIP3    H272989   5.364   3.893  15.265  0.1931 -0.5231 -0.6104
17192TIP3   OH272990   6.350   5.719   1.541  0.2981  0.6963  0.1045
17192TIP3    H172991   6.362   5.765   1.458 -0.3323  2.8864  1.1297
17192TIP3    H272992   6.424   5.748   1.595 -1.1547  2.1898  1.4276
17193TIP3   OH272993   2.787   4.159  16.017  0.0670 -0.4229  0.1097
17193TIP3    H172994   2.771   4.205  15.934  1.9413  0.7100  0.3138
17193TIP3    H272995   2.709   4.177  16.070  0.0984  1.3273 -0.3683
17194TIP3   OH272996   6.099   6.517  17.092  0.9705 -0.8331 -0.0190
17194TIP3    H172997   6.078   6.611  17.087  0.8430 -0.9354 -2.4448
17194TIP3    H272998   6.016   6.476  17.115  0.8620 -0.4226  0.3513
17195TIP3   OH272999   0.372   3.847   2.959 -0.4819  0.0990 -0.3414
17195TIP3    H173000   0.453   3.868   2.913  0.1672 -1.1095  0.1963
17195TIP3    H273001   0.398   3.783   3.025 -1.9747 -0.7872 -0.5556
17196TIP3   OH273002   0.194   6.274  16.406  0.7051 -0.8183  0.6869
17196TIP3    H173003   0.143   6.338  16.357  2.2878  0.3334  0.4654
17196TIP3    H273004   0.129   6.219  16.450 -0.7101 -0.1465 -0.4902
17197TIP3   OH273005   4.836   2.988   3.816 -0.3474 -0.2588  0.4552
17197TIP3    H173006   4.808   3.078   3.833 -2.2240 -0.9894  1.5458
17197TIP3    H273007   4.911   2.975   3.875  0.0649  0.6237  0.1447
17198TIP3   OH273008   5.715   4.177  11.613 -0.1809  0.7597 -0.0404
17198TIP3    H173009   5.674   4.094  11.638 -2.8181  2.2241  0.9193
17198TIP3    H273010   5.731   4.221  11.697  0.8072  1.3904 -0.5502
17199TIP3   OH273011   5.023   2.223   2.332 -0.2491 -0.1328 -0.2568
17199TIP3    H173012   5.015   2.266   2.417 -0.3853  1.8299 -1.2133
17199TIP3    H273013   4.960   2.151   2.336 -1.2340  0.7377  0.8392
17200TIP3   OH273014   0.572   1.861  13.623 -0.1593 -0.3569  0.7804
17200TIP3    H173015   0.548   1.799  13.692  0.8403  0.7074  2.1234
17200TIP3    H273016   0.637   1.918  13.663  1.3216 -0.4058 -1.3888
17201TIP3   OH273017   3.628   5.008   2.224  0.4554  0.7196  0.5707
17201TIP3    H173018   3.705   5.052   2.260  0.3926  0.4248  1.0742
17201TIP3    H273019   3.636   5.020   2.130  1.7072 -0.2549  0.5319
17202TIP3   OH273020   1.900   2.845  16.560 -0.0112 -0.5047  0.0828
17202TIP3    H173021   1.894   2.883  16.648  0.0744 -0.5248  0.0968
17202TIP3    H273022   1.810   2.847  16.527 -0.0977 -0.7871  0.2935
17203TIP3   OH273023   3.268   4.294   4.083 -0.6281 -0.0341  0.2638
17203TIP3    H173024   3.290   4.372   4.032 -0.9184  0.2937  0.6358
17203TIP3    H273025   3.215   4.240   4.024 -1.3876  0.5713  0.3728
17204TIP3   OH273026   0.741   5.781  10.757  0.1171  0.6595 -0.2585
17204TIP3    H173027   0.647   5.799  10.765 -0.0664  0.4242 -1.6570
17204TIP3    H273028   0.782   5.841  10.818 -0.9938  0.1826  1.0094
17205TIP3   OH273029   5.825   2.210  11.967  0.6077 -0.3629 -0.3425
17205TIP3    H173030   5.814   2.137  12.028 -0.2418 -1.2245 -1.5023
17205TIP3    H273031   5.884   2.176  11.900 -0.8007 -0.4303 -1.5739
17206TIP3   OH273032   0.497   3.304   3.872 -0.5669 -0.1898  0.0690
17206TIP3    H173033   0.511   3.221   3.918  0.6175  0.2781  0.5759
17206TIP3    H273034   0.548   3.368   3.921  0.7560  0.3398 -1.8889
17207TIP3   OH273035   0.720   6.555  11.927 -0.0629 -0.1470 -0.0410
17207TIP3    H173036   0.723   6.617  11.854  1.6937  0.0470  0.1569
17207TIP3    H273037   0.681   6.604  11.999  2.0134  1.0337  0.3499
17208TIP3   OH273038   4.415   6.249  13.021  0.8170  0.0481 -0.2768
17208TIP3    H173039   4.410   6.326  12.964 -0.8923 -1.0131 -1.7040
17208TIP3    H273040   4.442   6.178  12.963 -0.1219 -0.9070  0.4148
17209TIP3   OH273041   1.112   1.863  15.027  0.3859 -0.8276 -0.8452
17209TIP3    H173042   1.117   1.892  14.936  1.2853 -0.0762 -0.5790
17209TIP3    H273043   1.202   1.839  15.050  1.1146  2.8930  1.0203
17210TIP3   OH273044   4.136   3.347  14.470  0.0135  0.3205  0.1592
17210TIP3    H173045   4.063   3.396  14.508  0.2369  0.1235  0.8723
17210TIP3    H273046   4.183   3.313  14.546  0.4606 -0.1180 -0.3079
17211TIP3   OH273047   2.258   5.388   3.496 -0.2720  0.5928 -0.4550
17211TIP3    H173048   2.222   5.300   3.487  0.8331  0.0151  0.5310
17211TIP3    H273049   2.194   5.435   3.549 -0.1965 -0.0496  0.2167
17212TIP3   OH273050   0.721   5.045   3.595  0.1248  0.0015 -0.6631
17212TIP3    H173051   0.664   5.021   3.522 -1.1541 -0.2158  0.3584
17212TIP3    H273052   0.770   4.965   3.614  1.9316  0.5789 -2.4726
17213TIP3   OH273053   3.454   5.704   6.347  0.2067 -0.4318  0.5643
17213TIP3    H173054   3.439   5.672   6.258  0.0109  0.9068  0.0866
17213TIP3    H273055   3.501   5.633   6.391 -2.7697 -2.6475  0.5033
17214TIP3   OH273056   4.479   3.777   1.993  0.1120  0.0356 -0.0751
17214TIP3    H173057   4.414   3.767   1.924  0.7951 -1.8429 -0.5108
17214TIP3    H273058   4.538   3.844   1.961 -0.3702  0.1865 -0.6705
17215TIP3   OH273059   5.087   1.937   4.170  0.6389 -0.2199 -0.1505
17215TIP3    H173060   5.045   1.890   4.242 -0.5068 -0.7127 -1.1140
17215TIP3    H273061   5.016   1.983   4.126  1.5681  1.4918  0.0430
17216TIP3   OH273062   6.111   0.142  13.284 -0.0484 -0.2120 -0.2855
17216TIP3    H173063   6.087   0.071  13.344  1.2252  0.0704  0.6079
17216TIP3    H273064   6.055   0.215  13.310  1.1136  0.2038  1.2603
17217TIP3   OH273065   1.885   1.083  12.618  0.2098 -0.2567  0.6328
17217TIP3    H173066   1.836   1.124  12.688 -0.6045  2.7870 -1.5152
17217TIP3    H273067   1.831   1.095  12.540  2.7653  0.1081 -1.2364
17218TIP3   OH273068   2.134   2.937   2.160 -0.0134 -0.4692  0.0587
17218TIP3    H173069   2.049   2.907   2.191  0.2401 -0.8335  0.4200
17218TIP3    H273070   2.182   2.960   2.240  0.4854 -0.9738 -0.0871
17219TIP3   OH273071   4.953   4.196   4.322  0.2105 -0.6198  0.2802
17219TIP3    H173072   4.977   4.288   4.313 -1.4599 -0.0454  1.1703
17219TIP3    H273073   4.938   4.165   4.233  1.8832 -0.3731 -0.1091
17220TIP3   OH273074   0.683   5.903  11.563 -0.0717 -0.3464  0.3419
17220TIP3    H173075   0.602   5.938  11.602 -0.5045 -2.1521  1.1729
17220TIP3    H273076   0.701   5.824  11.613  1.8854 -0.3290 -0.2597
17221TIP3   OH273077   1.842   4.639   3.505 -0.5131 -0.1363  0.7442
17221TIP3    H173078   1.809   4.726   3.484 -2.2438 -1.2064 -1.5487
17221TIP3    H273079   1.927   4.653   3.546 -0.8117  2.6009  0.5600
17222TIP3   OH273080   1.374   4.947   2.407 -0.7284 -0.0180 -0.2719
17222TIP3    H173081   1.369   4.852   2.414  1.2367 -0.0411  1.7118
17222TIP3    H273082   1.283   4.976   2.414 -1.1796 -1.6523  1.3468
17223TIP3   OH273083   1.550   2.658   3.339 -0.4060 -0.6839 -0.4062
17223TIP3    H173084   1.604   2.587   3.373 -0.1580  0.0108  0.6969
17223TIP3    H273085   1.481   2.669   3.404  1.3858  2.2365  1.2572
17224TIP3   OH273086   5.185   5.584  15.988  0.5656  0.1454  0.5787
17224TIP3    H173087   5.111   5.559  15.933  0.6312  2.2801 -0.5541
17224TIP3    H273088   5.252   5.518  15.967 -0.3873 -0.7778  0.3138
17225TIP3   OH273089   0.891   3.705  14.455 -0.1670 -0.1028 -0.2062
17225TIP3    H173090   0.846   3.776  14.409  0.5444  1.0665  0.8443
17225TIP3    H273091   0.902   3.636  14.389 -0.1372  1.0872 -1.4672
17226TIP3   OH273092   2.902   3.375  11.978 -0.0213 -0.9098  0.0808
17226TIP3    H173093   2.878   3.459  12.017  1.1663 -0.4002 -0.2366
17226TIP3    H273094   2.864   3.377  11.891  1.2702 -0.0080 -0.5063
17227TIP3   OH273095   2.665   1.196   4.517 -0.1766  0.2975 -0.1005
17227TIP3    H173096   2.706   1.283   4.516 -1.0350  0.7959 -3.2380
17227TIP3    H273097   2.623   1.190   4.603  0.4356  2.7302  0.4389
17228TIP3   OH273098   3.992   1.678  12.574 -0.3458 -0.1127 -0.1657
17228TIP3    H173099   4.068   1.735  12.561 -2.6699  3.0963 -0.9310
17228TIP3    H273100   3.997   1.614  12.503  2.1789 -0.7805  0.4962
17229TIP3   OH273101   6.462   5.791  13.373 -0.1378 -0.4239 -0.4990
17229TIP3    H173102   6.444   5.697  13.379  2.2411 -1.1174 -2.4405
17229TIP3    H273103   6.556   5.798  13.390 -0.5650  1.8817  1.3392
17230TIP3   OH273104   0.629   0.802  12.580  0.4121 -0.1283  0.2105
17230TIP3    H173105   0.620   0.771  12.490  0.2232 -0.1923  0.2496
17230TIP3    H273106   0.722   0.791  12.600  0.6323  0.7329 -0.2823
17231TIP3   OH273107   0.072   5.042   6.549 -0.5897 -0.3237 -0.3201
17231TIP3    H173108   0.137   5.111   6.561 -1.1736  0.3390 -0.9041
17231TIP3    H273109   0.004   5.082   6.496 -2.2784 -0.4697  1.6031
17232TIP3   OH273110   2.037   0.393  17.312 -0.0397  0.1477  0.5722
17232TIP3    H173111   1.991   0.474  17.294  1.0437  0.5345 -0.5463
17232TIP3    H273112   1.975   0.341  17.365 -0.9340  1.4641  0.8538
17233TIP3   OH273113   0.350   4.860  13.793 -0.5294 -0.3573 -0.3553
17233TIP3    H173114   0.380   4.940  13.836 -2.3724  0.3522 -0.2600
17233TIP3    H273115   0.312   4.807  13.864  0.4048 -1.1958 -0.4642
17234TIP3   OH273116   2.484   2.796   3.073 -0.0236 -0.6199  0.2059
17234TIP3    H173117   2.485   2.713   3.026 -1.3647 -1.9113  2.3493
17234TIP3    H273118   2.559   2.792   3.132  1.2966  0.7510 -1.2573
17235TIP3   OH273119   2.741   2.014   2.191  0.1739  0.2112  0.5073
17235TIP3    H173120   2.669   2.072   2.215  1.6272  1.6253  1.5976
17235TIP3    H273121   2.805   2.024   2.260  1.2313 -1.4277 -0.1625
17236TIP3   OH273122   4.756   1.121  16.328  0.0934  0.2175 -0.1406
17236TIP3    H173123   4.692   1.137  16.259  0.4440  0.2170 -0.4665
17236TIP3    H273124   4.713   1.152  16.408 -0.7814 -0.8625 -0.1719
17237TIP3   OH273125   1.042   5.178   1.261 -0.5424  0.0543  0.3730
17237TIP3    H173126   1.015   5.103   1.315 -0.6681  1.3804  2.2669
17237TIP3    H273127   1.105   5.141   1.199 -2.2245 -2.0061 -0.2312
17238TIP3   OH273128   0.753   5.844   6.711  0.2379  0.2815 -0.2493
17238TIP3    H173129   0.831   5.830   6.659  0.0374  0.2732 -0.5525
17238TIP3    H273130   0.759   5.935   6.741  1.0313 -0.1192  0.8611
17239TIP3   OH273131   6.292   6.231   1.248  0.5464  0.5058 -0.2138
17239TIP3    H173132   6.246   6.191   1.322  1.6052  0.6583  0.5638
17239TIP3    H273133   6.276   6.172   1.175 -0.6463  0.4269  0.1031
17240TIP3   OH273134   2.960   2.538  15.232  0.0861  0.1361  0.6796
17240TIP3    H173135   2.995   2.571  15.150  1.6254  0.8994  1.5968
17240TIP3    H273136   2.939   2.617  15.282  1.4267 -0.2617  1.9279
17241TIP3   OH273137   4.690   5.296   4.115 -0.2154  0.6756  0.7165
17241TIP3    H173138   4.698   5.318   4.022 -1.8433 -3.5807 -0.6304
17241TIP3    H273139   4.600   5.317   4.138 -0.7726 -1.2145  0.3635
17242TIP3   OH273140   1.042   0.200   3.054 -0.2185 -0.1225 -0.2022
17242TIP3    H173141   1.115   0.242   3.100 -1.0541 -1.6201  2.7713
17242TIP3    H273142   1.084   0.144   2.989  1.3525 -0.7412  1.2340
17243TIP3   OH273143   0.221   2.430  14.628  0.2493 -0.1913 -0.1882
17243TIP3    H173144   0.219   2.473  14.542 -2.4531 -1.8178 -1.0567
17243TIP3    H273145   0.249   2.341  14.610  0.1001 -0.4235  0.6711
17244TIP3   OH273146   6.627   4.875   4.228  0.3949  0.0117  0.6670
17244TIP3    H173147   6.536   4.887   4.256  0.4284  0.0115  0.7772
17244TIP3    H273148   6.659   4.803   4.282  0.5008  0.0997  0.7218
17245TIP3   OH273149   0.451   4.968  16.555  0.5392  0.4421  0.3179
17245TIP3    H173150   0.494   5.039  16.604  0.9430  0.5386 -0.1715
17245TIP3    H273151   0.480   4.888  16.598  0.8659  0.5291  0.2585
17246TIP3   OH273152   3.840   3.751  13.706  0.0369  0.4658  0.1762
17246TIP3    H173153   3.931   3.756  13.737  1.2408  0.9247 -3.0257
17246TIP3    H273154   3.827   3.832  13.657 -1.5800 -0.2622 -0.6875
17247TIP3   OH273155   3.242   5.128   3.809 -0.2542  0.1824  0.3739
17247TIP3    H173156   3.299   5.082   3.748  2.0897  1.7357  1.2421
17247TIP3    H273157   3.192   5.188   3.754 -0.2230 -0.4095 -0.3032
17248TIP3   OH273158   4.181   3.626   4.173  0.5381 -0.2058 -0.4557
17248TIP3    H173159   4.147   3.552   4.224 -1.3289  0.5044 -0.5783
17248TIP3    H273160   4.189   3.696   4.237  1.4566 -0.2466 -0.5139
17249TIP3   OH273161   2.265   5.413  16.327 -0.2245 -0.0682 -0.0714
17249TIP3    H173162   2.242   5.366  16.407 -1.6946 -0.7855 -0.8666
17249TIP3    H273163   2.221   5.364  16.257  0.5731  0.8523 -1.2598
17250TIP3   OH273164   5.690   2.181  12.228 -0.4889 -0.8154 -0.0657
17250TIP3    H173165   5.605   2.176  12.271  0.1597 -1.7969  1.1677
17250TIP3    H273166   5.749   2.131  12.284  0.6641 -1.1504 -1.4974
17251TIP3   OH273167   2.726   2.219   2.448  0.3497  0.2516 -0.1969
17251TIP3    H173168   2.821   2.230   2.456  0.1131  0.9475  2.7731
17251TIP3    H273169   2.708   2.136   2.492 -0.6015  1.1798  1.2293
17252TIP3   OH273170   3.630   1.441  12.361  0.0801  0.1960  0.2993
17252TIP3    H173171   3.564   1.509  12.349  0.6262  0.5748 -0.7067
17252TIP3    H273172   3.585   1.359  12.342  0.0841  0.5213 -1.2809
17253TIP3   OH273173   3.856   1.285  14.911 -0.2673  0.0568 -0.0234
17253TIP3    H173174   3.804   1.217  14.953 -0.1934  0.1191  0.1679
17253TIP3    H273175   3.947   1.255  14.921  0.0652  1.7072  2.8869
17254TIP3   OH273176   4.074   5.357   3.447  0.4916  0.2623  0.8506
17254TIP3    H173177   4.025   5.355   3.529 -1.9247 -3.0425 -0.4670
17254TIP3    H273178   4.161   5.326   3.471  0.0940  0.1687  2.2877
17255TIP3   OH273179   3.575   1.244  15.091  0.2460 -0.0697 -0.2499
17255TIP3    H173180   3.570   1.301  15.015 -1.6276 -1.3580 -1.1679
17255TIP3    H273181   3.633   1.173  15.064  1.2880  0.5184  0.3346
17256TIP3   OH273182   5.709   5.655   6.301  0.6016 -0.2397  0.8795
17256TIP3    H173183   5.632   5.661   6.358  1.9093 -0.2495  2.7531
17256TIP3    H273184   5.742   5.745   6.294 -0.6548  0.1047 -1.5892
17257TIP3   OH273185   2.342   2.399  12.561  0.0332 -0.3775  0.5580
17257TIP3    H173186   2.307   2.324  12.608 -1.5958  0.8061  1.3232
17257TIP3    H273187   2.348   2.468  12.627 -0.4019  0.7497 -0.5473
17258TIP3   OH273188   1.014   1.260  11.135  0.4649 -0.0432  0.8355
17258TIP3    H173189   0.968   1.244  11.217 -0.3098  0.5006  0.5188
17258TIP3    H273190   1.100   1.291  11.161  0.3287 -0.1528  1.4371
17259TIP3   OH273191   5.606   6.106  13.864  0.1036  0.1429  0.2960
17259TIP3    H173192   5.601   6.015  13.834  0.1569  0.7950 -1.8028
17259TIP3    H273193   5.595   6.158  13.785 -4.0725  2.0789  1.8790
17260TIP3   OH273194   2.634   2.347   0.586 -0.2389  0.9340  0.6133
17260TIP3    H173195   2.619   2.332   0.493  3.4145 -5.3070  0.4137
17260TIP3    H273196   2.564   2.298   0.630  0.6122 -0.0981  0.8636
17261TIP3   OH273197   0.445   0.172  13.275  0.1535  0.0801 -0.1644
17261TIP3    H173198   0.531   0.162  13.234  0.7450 -0.0148  1.0495
17261TIP3    H273199   0.465   0.201  13.364 -1.1353  1.8599 -0.4095
17262TIP3   OH273200   5.355   5.803  17.035 -0.3404  0.5287  0.1042
17262TIP3    H173201   5.295   5.819  16.961 -1.6070 -2.1666  0.4035
17262TIP3    H273202   5.434   5.769  16.994  0.0069  1.6048 -0.1443
17263TIP3   OH273203   2.077   6.718  17.001  0.3213 -0.3888 -0.4177
17263TIP3    H173204   1.990   6.704  17.037 -0.1756 -0.0368 -1.4652
17263TIP3    H273205   2.094   6.640  16.947  0.3442 -0.1168 -0.8068
17264TIP3   OH273206   3.604   5.882  16.139 -0.1895 -0.1989 -0.1949
17264TIP3    H173207   3.545   5.934  16.085  0.0333  1.3769  0.9652
17264TIP3    H273208   3.547   5.838  16.202 -0.2487  0.5193  0.2796
17265TIP3   OH273209   2.367   4.076  14.053 -0.6717 -0.0787  0.4944
17265TIP3    H173210   2.329   4.147  14.106 -0.3497 -0.3140  1.0494
17265TIP3    H273211   2.359   4.107  13.963 -1.4241  0.2385  0.6618
17266TIP3   OH273212   3.826   3.742   6.691 -0.8027 -0.4489 -0.2080
17266TIP3    H173213   3.886   3.676   6.725 -1.3444 -1.6705 -1.5373
17266TIP3    H273214   3.790   3.704   6.611  0.9292  2.5317 -2.6507
17267TIP3   OH273215   5.841   4.508   0.226 -0.1520  0.2329  0.4779
17267TIP3    H173216   5.890   4.447   0.172  0.4614  0.7988  0.3842
17267TIP3    H273217   5.771   4.455   0.265  0.3062 -0.5002  0.3183
17268TIP3   OH273218   5.235   2.546   3.697  0.3939 -0.3494 -0.2719
17268TIP3    H173219   5.177   2.576   3.627  1.4614  0.3013 -0.9048
17268TIP3    H273220   5.231   2.615   3.763  1.1857  0.1737 -0.7576
17269TIP3   OH273221   1.726   0.840   0.908 -0.3189  0.7905 -0.0955
17269TIP3    H173222   1.762   0.752   0.921  0.9701  1.4666  1.2618
17269TIP3    H273223   1.632   0.826   0.898 -0.0358 -0.8142 -0.9309
17270TIP3   OH273224   5.891   3.397   0.146 -0.2208 -0.5896  0.8626
17270TIP3    H173225   5.872   3.424   0.236  0.5336  0.2975  0.7622
17270TIP3    H273226   5.986   3.383   0.145  0.2760  2.2159 -0.4876
17271TIP3   OH273227   1.956   0.551  11.492  0.1526 -0.0789  0.4610
17271TIP3    H173228   1.874   0.511  11.521  0.7609 -0.2780  2.0607
17271TIP3    H273229   2.022   0.483  11.508  0.6667  0.1773 -0.5372
17272TIP3   OH273230   6.109   2.765   1.345  0.5901  0.0232  0.2405
17272TIP3    H173231   6.195   2.741   1.379  0.5551 -0.2606  0.1298
17272TIP3    H273232   6.126   2.803   1.259  0.5606 -0.4866  0.0098
17273TIP3   OH273233   1.298   1.120   5.691 -0.5490 -0.3192 -0.0517
17273TIP3    H173234   1.317   1.077   5.608  1.1277  0.5103 -0.1463
17273TIP3    H273235   1.240   1.193   5.668 -0.3219 -0.2656 -0.4573
17274TIP3   OH273236   0.188   5.791  14.999  0.1755 -0.2150  0.4647
17274TIP3    H173237   0.098   5.808  15.028 -0.1036 -0.4934 -0.2154
17274TIP3    H273238   0.203   5.853  14.928 -0.0887 -1.2710 -0.5636
17275TIP3   OH273239   3.871   6.186   0.072 -0.2941  0.2102  0.0804
17275TIP3    H173240   3.885   6.225  -0.014 -0.2018 -3.5237 -1.8097
17275TIP3    H273241   3.778   6.161   0.072 -0.0497 -0.7657  0.5890
17276TIP3   OH273242   2.430   6.350   1.945  0.0292  0.8772  0.5806
17276TIP3    H173243   2.511   6.398   1.928  1.5859 -0.7358  2.8721
17276TIP3    H273244   2.439   6.318   2.035 -2.5268 -0.6079  0.4085
17277TIP3   OH273245   2.325   0.515   5.656  0.2507  0.0177 -0.0364
17277TIP3    H173246   2.358   0.539   5.742 -0.4890  1.9230 -0.2230
17277TIP3    H273247   2.351   0.588   5.599  0.2718 -0.9546 -1.3081
17278TIP3   OH273248   3.247   6.260  17.218  0.1623 -0.4979 -0.0645
17278TIP3    H173249   3.153   6.247  17.202 -0.1440  0.3846  0.9156
17278TIP3    H273250   3.271   6.334  17.162  0.3486 -0.9060 -0.5317
17279TIP3   OH273251   1.773   0.476  14.767  0.0251  0.7302 -0.5644
17279TIP3    H173252   1.724   0.491  14.847 -0.1270  0.0929 -0.5334
17279TIP3    H273253   1.845   0.539  14.771  0.4023  0.2706  0.4008
17280TIP3   OH273254   0.436   6.386  15.920 -0.1882 -0.1472 -0.0266
17280TIP3    H173255   0.494   6.316  15.891 -0.3817 -0.0298 -0.7128
17280TIP3    H273256   0.413   6.363  16.010  0.5920 -0.4064  0.1079
17281TIP3   OH273257   6.534   4.167  17.043  0.0472  0.5542  0.2899
17281TIP3    H173258   6.575   4.243  17.000 -0.5456  0.6719 -0.0755
17281TIP3    H273259   6.553   4.094  16.984 -0.6425  0.6898 -0.1070
17282TIP3   OH273260   6.448   5.613  12.901  0.0639  0.2963 -0.0796
17282TIP3    H173261   6.525   5.600  12.956 -0.0735 -2.8370 -0.4646
17282TIP3    H273262   6.388   5.664  12.955  1.3351  0.4461  1.2451
17283TIP3   OH273263   2.429   4.160  13.760 -0.1328  0.1289 -0.1960
17283TIP3    H173264   2.472   4.075  13.764  3.4840  1.7430 -0.6430
17283TIP3    H273265   2.340   4.141  13.731  0.9735 -3.3528 -1.8773
17284TIP3   OH273266   4.801   2.444   3.549 -0.4545 -0.0140 -0.3513
17284TIP3    H173267   4.806   2.358   3.508 -1.6823  0.2836 -1.1794
17284TIP3    H273268   4.708   2.467   3.546 -0.4598  0.4902  1.6598
17285TIP3   OH273269   5.724   2.134   1.731 -0.0219 -0.1410  0.0045
17285TIP3    H173270   5.652   2.145   1.793  0.9770  1.2104  0.9714
17285TIP3    H273271   5.795   2.188   1.765  1.3031 -1.0265 -1.1950
17286TIP3   OH273272   5.108   3.017   3.507 -0.5428  0.0539 -0.2225
17286TIP3    H173273   5.193   3.000   3.548 -0.4034  0.1823 -0.4592
17286TIP3    H273274   5.124   3.008   3.413 -0.9413 -0.5726 -0.2346
17287TIP3   OH273275   1.014   1.575  13.249 -0.0601 -0.6021  0.5778
17287TIP3    H173276   1.023   1.587  13.154  0.9763 -1.7380  0.5054
17287TIP3    H273277   1.090   1.621  13.286  0.1098 -1.0388  0.7779
17288TIP3   OH273278   5.126   0.705   5.085  0.0012 -0.5914  0.1222
17288TIP3    H173279   5.034   0.696   5.112  0.1730 -0.2522  0.8358
17288TIP3    H273280   5.127   0.675   4.994 -0.5926 -1.7364  0.4764
17289TIP3   OH273281   0.412   4.615   5.630  0.1705  0.0606  0.5048
17289TIP3    H173282   0.411   4.663   5.712  1.4920  0.9447  0.0277
17289TIP3    H273283   0.423   4.682   5.563  3.3094 -0.9196 -0.1130
17290TIP3   OH273284   6.348   2.014  11.820  0.1082 -0.1044  0.2280
17290TIP3    H173285   6.313   2.099  11.792  1.3569  0.0669 -0.8612
17290TIP3    H273286   6.342   1.958  11.743  1.9064 -0.1528  0.0770
17291TIP3   OH273287   4.718   5.431  16.441  0.1541  0.1885  0.1559
17291TIP3    H173288   4.625   5.408  16.436  0.1160  0.6104 -1.5627
17291TIP3    H273289   4.727   5.473  16.527 -2.0417  3.4756 -1.0328
17292TIP3   OH273290   6.141   1.776  12.429 -0.4071  0.0968 -0.5254
17292TIP3    H173291   6.124   1.848  12.490 -0.3761 -0.8395  0.6298
17292TIP3    H273292   6.146   1.818  12.343 -1.7560  1.2881 -0.0664
17293TIP3   OH273293   1.001   6.164  17.201 -1.1096  0.2551  0.4209
17293TIP3    H173294   1.030   6.149  17.111 -3.4290  1.2871 -0.5745
17293TIP3    H273295   1.063   6.227  17.237  0.0385 -0.4282 -0.3013
17294TIP3   OH273296   6.423   0.922  16.960  0.1742 -0.4984 -0.1918
17294TIP3    H173297   6.498   0.937  17.018  1.6796 -1.2896 -1.8325
17294TIP3    H273298   6.418   1.002  16.907 -0.4636 -0.2468  0.2434
17295TIP3   OH273299   0.319   1.160   2.732  0.3572 -0.5889 -0.3794
17295TIP3    H173300   0.365   1.076   2.732 -0.7722 -1.2943  1.9999
17295TIP3    H273301   0.240   1.145   2.681  0.6260 -0.6714 -0.7749
17296TIP3   OH273302   4.731   5.415   0.556 -0.0814  0.4744  0.6650
17296TIP3    H173303   4.653   5.454   0.595 -1.6826 -1.5583 -0.3212
17296TIP3    H273304   4.746   5.467   0.476 -0.0100  1.2750  1.1885
17297TIP3   OH273305   6.608   0.638  16.507  0.1890 -0.0983 -0.1679
17297TIP3    H173306   6.585   0.545  16.519  0.0521 -0.2116 -1.2132
17297TIP3    H273307   6.600   0.676  16.595  2.0861 -1.4577  0.6527
17298TIP3   OH273308   1.408   5.548   0.826 -0.3679 -0.3951 -0.3846
17298TIP3    H173309   1.437   5.468   0.870  0.2135 -0.0161 -0.0720
17298TIP3    H273310   1.319   5.562   0.859 -1.2044 -1.9192 -1.8484
17299TIP3   OH273311   4.711   2.504   2.941 -0.2671  0.1335  0.4178
17299TIP3    H173312   4.734   2.595   2.963 -2.2406  0.6115  0.7583
17299TIP3    H273313   4.648   2.513   2.869  0.5763 -1.0730 -0.5072
17300TIP3   OH273314   2.186   1.221   3.563 -0.0727  0.3484  0.1029
17300TIP3    H173315   2.237   1.195   3.640 -1.4372 -1.0796  0.5693
17300TIP3    H273316   2.099   1.241   3.598 -0.3420  0.9811 -0.9110
17301TIP3   OH273317   5.108   2.770  12.801  0.2333 -0.2231  0.1547
17301TIP3    H173318   5.202   2.771  12.816  0.2470 -0.1201  0.0674
17301TIP3    H273319   5.096   2.825  12.724  0.1976 -1.0070 -0.4106
17302TIP3   OH273320   5.267   3.133  16.516 -0.5265  0.3999  0.3633
17302TIP3    H173321   5.299   3.204  16.461 -0.7273 -0.4102 -0.8445
17302TIP3    H273322   5.172   3.134  16.503 -0.5206 -0.1420  0.2690
17303TIP3   OH273323   3.600   5.079   0.462  0.3305 -0.4830  0.4719
17303TIP3    H173324   3.587   4.987   0.486  0.7554 -0.7572 -0.3131
17303TIP3    H273325   3.695   5.090   0.462  0.3853 -0.6297 -1.5094
17304TIP3   OH273326   5.304   2.136   2.213  0.4522  0.4417  0.0141
17304TIP3    H173327   5.304   2.214   2.157 -0.1110  0.4051 -0.0458
17304TIP3    H273328   5.214   2.129   2.243  0.9810  1.1454  1.9072
17305TIP3   OH273329   2.329   4.708  15.184 -0.3205  0.4143 -0.0221
17305TIP3    H173330   2.328   4.613  15.191 -0.3661  0.4178  0.0153
17305TIP3    H273331   2.256   4.737  15.237 -0.9463  0.4163 -0.8608
17306TIP3   OH273332   1.843   3.685  11.297  0.5157 -0.0288  0.3365
17306TIP3    H173333   1.851   3.773  11.260  0.4572 -0.1724 -0.0177
17306TIP3    H273334   1.932   3.650  11.295  0.7516  0.4354  1.5258
17307TIP3   OH273335   4.529   5.680   3.925  0.2633 -0.3949 -0.3140
17307TIP3    H173336   4.590   5.664   3.853 -0.1826 -2.1568 -0.3467
17307TIP3    H273337   4.476   5.754   3.895 -0.1832 -1.3455 -2.0011
17308TIP3   OH273338   1.789   5.063   1.067 -0.0223 -0.0938 -0.3018
17308TIP3    H173339   1.751   5.078   0.981 -0.7699 -2.9924 -0.5818
17308TIP3    H273340   1.724   5.097   1.129 -1.4124 -1.6006 -0.8626
17309TIP3   OH273341   5.806   1.526  14.408 -0.0042  0.4473  0.4058
17309TIP3    H173342   5.762   1.546  14.325 -0.0891 -1.1237  0.0248
17309TIP3    H273343   5.882   1.583  14.409  0.5401 -0.1742 -1.2701
17310TIP3   OH273344   3.625   3.683   2.558 -0.3463 -0.7685 -0.8782
17310TIP3    H173345   3.625   3.707   2.465 -1.5745  0.2753 -0.6492
17310TIP3    H273346   3.607   3.589   2.558  2.7642 -1.4563 -1.7594
17311TIP3   OH273347   2.266   3.663  11.831  0.4632 -0.2095  0.0307
17311TIP3    H173348   2.208   3.739  11.842 -0.9038 -1.2067  0.0898
17311TIP3    H273349   2.321   3.685  11.757 -1.2929  0.0505 -1.2636
17312TIP3   OH273350   6.045   5.129  13.251  0.5012  0.0592  0.6110
17312TIP3    H173351   6.104   5.147  13.178 -0.1107 -1.9745 -0.4848
17312TIP3    H273352   6.018   5.215  13.283  0.4998  1.0288 -1.8097
17313TIP3   OH273353   0.810   0.859  17.355  0.4527  0.8079  0.4277
17313TIP3    H173354   0.810   0.903  17.270 -0.5642 -0.4540 -0.2688
17313TIP3    H273355   0.729   0.888  17.397 -0.6329 -0.9533 -0.3733
17314TIP3   OH273356   3.124   1.555  12.352 -0.4015 -0.2191  0.4485
17314TIP3    H173357   3.211   1.536  12.386  0.4773  0.3704 -1.3403
17314TIP3    H273358   3.098   1.477  12.304  1.0128  1.0324 -2.5685
17315TIP3   OH273359   3.033   1.327   0.003 -0.0933  0.0650 -0.2076
17315TIP3    H173360   2.969   1.286  -0.056  0.1807 -0.9998  0.2114
17315TIP3    H273361   3.105   1.264   0.008  1.0374  1.2634 -0.7150
17316TIP3   OH273362   6.746   4.776   0.917  0.3723  0.5133 -0.4486
17316TIP3    H173363   6.703   4.822   0.989  1.8644 -0.9636  1.5111
17316TIP3    H273364   6.676   4.758   0.854 -1.6632 -0.7035  1.9848
17317TIP3   OH273365   0.834   4.520  11.592 -0.0073  0.6807 -0.2850
17317TIP3    H173366   0.865   4.451  11.533  0.5516 -0.4208  1.2290
17317TIP3    H273367   0.803   4.473  11.670  0.8215  2.1538  0.9896
17318TIP3   OH273368   3.964   2.862  17.318  0.1425 -0.0936 -0.1172
17318TIP3    H173369   3.964   2.857  17.414 -1.3488  1.5102  0.0126
17318TIP3    H273370   4.057   2.865  17.294  0.5823 -1.8452  1.1451
17319TIP3   OH273371   5.362   3.072  13.627  0.1815  0.0768 -0.0949
17319TIP3    H173372   5.275   3.105  13.647  1.2752  1.9191  2.1495
17319TIP3    H273373   5.390   3.122  13.550 -0.3736  0.1688 -0.2370
17320TIP3   OH273374   5.455   6.264  12.140  0.0791  0.0661  0.0659
17320TIP3    H173375   5.489   6.338  12.090  0.6066  0.9855  1.7238
17320TIP3    H273376   5.362   6.261  12.117  0.2321  0.6795 -0.6751
17321TIP3   OH273377   4.686   4.817   0.078  0.0382  0.3390 -0.1719
17321TIP3    H173378   4.638   4.742   0.114 -0.1045  0.7231  0.4499
17321TIP3    H273379   4.777   4.786   0.072  0.0621  0.2604  0.5056
17322TIP3   OH273380   4.593   5.679   4.818  0.1923 -0.1489  0.5161
17322TIP3    H173381   4.551   5.717   4.741  0.7122  2.3776  1.3865
17322TIP3    H273382   4.521   5.661   4.878 -0.1351 -1.3896 -0.2015
17323TIP3   OH273383   2.007   1.295  14.974 -0.3353  0.3985  0.0672
17323TIP3    H173384   1.980   1.291  14.882  0.5526  2.7585 -0.3585
17323TIP3    H273385   2.096   1.259  14.974 -1.0534 -1.4728  0.3921
17324TIP3   OH273386   2.932   6.395  16.601  0.3091 -0.7277 -0.2448
17324TIP3    H173387   2.935   6.321  16.541  1.1299 -0.1645 -0.9233
17324TIP3    H273388   3.004   6.451  16.574 -0.1715  0.2281  0.3781
17325TIP3   OH273389   5.179   4.936   5.907  0.5458 -0.9431  0.3662
17325TIP3    H173390   5.106   4.885   5.942  1.0577 -2.1373 -0.2373
17325TIP3    H273391   5.253   4.912   5.963  0.5734 -0.0468  0.7260
17326TIP3   OH273392   6.113   5.513   2.071  0.2840  0.5529 -0.3673
17326TIP3    H173393   6.027   5.546   2.043  0.0577  1.5794  1.3854
17326TIP3    H273394   6.175   5.575   2.033  0.1359  0.6826 -0.3996
17327TIP3   OH273395   4.179   1.093  15.803 -0.2270 -0.0915  0.0630
17327TIP3    H173396   4.168   1.075  15.710  1.3145  0.5917 -0.2782
17327TIP3    H273397   4.273   1.106  15.815 -0.2022 -1.5102  1.9794
17328TIP3   OH273398   2.605   4.448  12.442 -0.2372  0.1566  0.2034
17328TIP3    H173399   2.603   4.461  12.348 -0.5379 -0.1492  0.1617
17328TIP3    H273400   2.598   4.353  12.453  1.5644  0.0293  0.4922
17329TIP3   OH273401   3.890   1.819  16.648 -0.3495  0.0948  0.3522
17329TIP3    H173402   3.985   1.821  16.643 -0.3583  2.2111 -0.4883
17329TIP3    H273403   3.862   1.785  16.562 -0.3315  0.8402  0.0411
17330TIP3   OH273404   3.881   6.435  12.804 -0.0050 -0.7386  0.5610
17330TIP3    H173405   3.911   6.364  12.748  1.4421  0.3838 -0.1368
17330TIP3    H273406   3.948   6.443  12.872  1.4665  1.7987 -1.0201
17331TIP3   OH273407   6.650   0.649   5.165  0.2575 -0.2410  0.1228
17331TIP3    H173408   6.732   0.613   5.199  0.6465 -0.4566 -0.9926
17331TIP3    H273409   6.595   0.662   5.242  1.2554 -0.3169  0.8594
17332TIP3   OH273410   2.516   0.444  11.812  0.4163  0.3131 -0.2268
17332TIP3    H173411   2.470   0.510  11.863 -1.0510 -0.5835 -0.3459
17332TIP3    H273412   2.595   0.425  11.862  0.0757  1.0220  0.5877
17333TIP3   OH273413   1.277   3.085  11.017 -0.1020 -0.1832  0.1067
17333TIP3    H173414   1.247   2.998  11.044 -0.9185 -0.3676 -1.3314
17333TIP3    H273415   1.221   3.145  11.066 -0.8956 -0.5031 -0.3778
17334TIP3   OH273416   6.375   1.723   5.790 -0.9865  0.2644 -0.6483
17334TIP3    H173417   6.446   1.659   5.786 -0.0937  1.2935 -2.4786
17334TIP3    H273418   6.393   1.775   5.868 -2.3337 -2.2795  1.5408
17335TIP3   OH273419   5.771   2.235  14.190  0.4121 -0.1193  1.0858
17335TIP3    H173420   5.748   2.148  14.223  0.4551 -1.0929 -1.2021
17335TIP3    H273421   5.725   2.241  14.106  1.6010  1.4560  0.4978
17336TIP3   OH273422   5.754   4.630  16.704 -0.2760  0.1221  0.0057
17336TIP3    H173423   5.691   4.560  16.689 -2.1298  1.6964  0.0320
17336TIP3    H273424   5.810   4.630  16.627  0.4868 -2.0564  0.4980
17337TIP3   OH273425   1.095   0.702  13.100 -0.3216 -0.2572  0.1638
17337TIP3    H173426   1.024   0.647  13.069 -1.0669 -0.6775  2.4592
17337TIP3    H273427   1.112   0.672  13.190  3.0182 -0.4320 -0.3838
17338TIP3   OH273428   0.402   6.368  16.212  0.3704  0.0593 -0.0158
17338TIP3    H173429   0.332   6.339  16.270 -0.1063 -0.5918 -0.8908
17338TIP3    H273430   0.481   6.368  16.266  0.0598 -1.1848  0.4554
17339TIP3   OH273431   1.354   3.924  12.041  0.0327 -0.2209  0.1253
17339TIP3    H173432   1.355   4.019  12.044 -1.1507 -0.2149  1.9277
17339TIP3    H273433   1.286   3.902  11.976 -0.1732  0.1594  0.2127
17340TIP3   OH273434   0.193   2.663   3.318 -0.6253 -0.1490  0.3623
17340TIP3    H173435   0.125   2.646   3.253 -0.6368  1.6494 -0.1664
17340TIP3    H273436   0.169   2.610   3.393 -1.4681 -1.1063 -0.5568
17341TIP3   OH273437   5.116   3.071   3.247 -0.0720 -0.5956 -0.3423
17341TIP3    H173438   5.189   3.080   3.186 -0.5238 -0.4779 -0.8706
17341TIP3    H273439   5.044   3.037   3.193 -0.6113 -0.0427  0.0246
17342TIP3   OH273440   6.705   3.140   4.357  0.1106 -0.0172  0.4071
17342TIP3    H173441   6.686   3.093   4.439 -1.1657  2.2776  1.5379
17342TIP3    H273442   6.780   3.196   4.378 -0.1604  0.5122 -0.0191
17343TIP3   OH273443   5.662   3.600  16.672 -0.1376 -0.1992 -0.9438
17343TIP3    H173444   5.746   3.585  16.629  0.6484 -1.7947  0.9659
17343TIP3    H273445   5.677   3.680  16.724  0.4859 -0.8805 -0.0386
17344TIP3   OH273446   3.193   1.705  16.452 -0.3149 -0.2268 -0.0173
17344TIP3    H173447   3.276   1.716  16.498  0.1331 -2.1388 -0.2664
17344TIP3    H273448   3.219   1.691  16.360 -0.8768 -0.9377 -0.0807
17345TIP3   OH273449   2.430   1.186  13.371  0.0317 -0.4288 -0.1544
17345TIP3    H173450   2.387   1.186  13.285 -1.4115  0.2190  0.5485
17345TIP3    H273451   2.511   1.235  13.357 -1.1220  1.3910 -0.7238
17346TIP3   OH273452   0.109   3.195  11.556 -0.1971 -0.1509  0.1310
17346TIP3    H173453   0.014   3.188  11.548 -0.1746  0.8605 -1.3178
17346TIP3    H273454   0.140   3.105  11.542 -0.9312 -0.4868  0.6121
17347TIP3   OH273455   2.608   2.434   5.145 -0.0429 -0.1815  0.7609
17347TIP3    H173456   2.532   2.493   5.147 -0.1910 -0.2120 -1.3281
17347TIP3    H273457   2.603   2.393   5.059  1.9440 -0.7364  0.8704
17348TIP3   OH273458   5.958   6.743  12.518  0.2995  0.0025 -0.0932
17348TIP3    H173459   5.899   6.790  12.576 -0.8318 -0.2414 -0.9954
17348TIP3    H273460   5.987   6.667  12.569 -2.6875 -1.6508 -0.5661
17349TIP3   OH273461   4.196   2.946  14.445 -0.1137 -0.0927  0.3659
17349TIP3    H173462   4.117   2.999  14.451 -0.2941 -0.4241  0.9526
17349TIP3    H273463   4.172   2.862  14.483 -0.0841 -0.9075 -1.3248
17350TIP3   OH273464   2.658   4.655   4.021  0.3530  0.3563  0.6054
17350TIP3    H173465   2.609   4.675   4.101  1.0481  2.0977  0.6353
17350TIP3    H273466   2.678   4.740   3.983 -1.5791 -0.4000 -2.4973
17351TIP3   OH273467   4.909   5.319   1.838 -0.3872 -0.1404 -0.1689
17351TIP3    H173468   4.836   5.378   1.855 -0.4674 -0.1347 -0.5237
17351TIP3    H273469   4.970   5.370   1.785  0.5764  0.3464  1.3529
17352TIP3   OH273470   5.625   0.829  13.689  0.0155 -0.6608 -0.3290
17352TIP3    H173471   5.689   0.762  13.713  1.5322  0.7236 -0.3352
17352TIP3    H273472   5.595   0.804  13.602 -0.9698 -2.4001  0.4697
17353TIP3   OH273473   0.812   3.867   0.470  0.1095  0.3499 -0.4674
17353TIP3    H173474   0.740   3.882   0.532  0.4233  1.1966 -0.2975
17353TIP3    H273475   0.891   3.885   0.520  0.5393 -1.6914 -0.3221
17354TIP3   OH273476   4.124   1.012   1.728  0.3587  0.1948  0.1300
17354TIP3    H173477   4.071   1.058   1.794 -1.3840  0.1892 -1.1935
17354TIP3    H273478   4.156   0.934   1.774 -2.5020 -0.8891  0.4800
17355TIP3   OH273479   0.474   1.442   5.567  0.5199 -0.0445  0.3822
17355TIP3    H173480   0.486   1.475   5.478 -0.1697 -1.5451 -0.3009
17355TIP3    H273481   0.548   1.384   5.581  0.7880  0.4189  0.9114
17356TIP3   OH273482   6.336   3.388   5.714  0.1745 -0.5822  0.7370
17356TIP3    H173483   6.281   3.330   5.767 -0.4435 -1.3878 -0.7245
17356TIP3    H273484   6.275   3.429   5.653  0.7817  0.7792  0.9936
17357TIP3   OH273485   6.356   0.523  11.681  0.1545  0.2193  0.4951
17357TIP3    H173486   6.300   0.520  11.759 -0.9261  1.4303 -0.1937
17357TIP3    H273487   6.425   0.459  11.698 -0.2921  0.1685  2.2615
17358TIP3   OH273488   5.227   2.167   3.157 -0.0951  0.1309  0.1644
17358TIP3    H173489   5.302   2.187   3.101 -0.2915  0.9929  0.2082
17358TIP3    H273490   5.161   2.232   3.135 -1.4252 -1.4967 -0.9390
17359TIP3   OH273491   4.468   4.858  17.312  0.6061 -0.5099  0.1675
17359TIP3    H173492   4.414   4.800  17.366  0.0912 -0.2333 -0.0367
17359TIP3    H273493   4.552   4.862  17.358  0.4425 -0.9196  0.5151
17360TIP3   OH273494   3.625   1.396  14.814 -0.6060 -0.4413  0.0520
17360TIP3    H173495   3.704   1.371  14.863 -1.5080 -0.9972  1.2543
17360TIP3    H273496   3.622   1.334  14.742  0.8050  0.4644 -0.8457
17361TIP3   OH273497   1.270   1.997   5.550  0.6520  0.3800 -0.6638
17361TIP3    H173498   1.221   2.079   5.540 -1.4285 -0.4809  1.4424
17361TIP3    H273499   1.207   1.937   5.589  2.6049 -1.7322 -0.5828
17362TIP3   OH273500   3.889   2.065  12.730  0.7493 -0.5670 -0.0377
17362TIP3    H173501   3.983   2.080  12.726  0.8702 -0.2293  2.4596
17362TIP3    H273502   3.869   2.061  12.824 -1.8407  0.0934 -0.4764
17363TIP3   OH273503   0.620   2.406  15.404 -0.0199 -0.0300  0.1107
17363TIP3    H173504   0.617   2.316  15.437  2.2928  0.0945  0.7887
17363TIP3    H273505   0.625   2.396  15.308  3.0387 -0.8141  0.2490
17364TIP3   OH273506   2.693   2.547   2.560 -0.5364 -0.2933 -0.1552
17364TIP3    H173507   2.788   2.536   2.555 -0.5574 -0.0094 -1.7896
17364TIP3    H273508   2.680   2.616   2.624  0.3293 -0.6134  0.3884
17365TIP3   OH273509   0.032   6.148  12.226 -0.0025 -0.3648  0.3271
17365TIP3    H173510   0.040   6.242  12.246 -0.2285 -0.4976  1.0714
17365TIP3    H273511  -0.033   6.116  12.289 -0.0362 -0.9937 -0.0223
17366TIP3   OH273512   0.858   2.851   1.009 -0.0307  0.3791 -0.3410
17366TIP3    H173513   0.848   2.920   0.944  0.3541 -0.5148 -1.3780
17366TIP3    H273514   0.814   2.775   0.971 -1.9348  0.4662  1.5094
17367TIP3   OH273515   3.762   5.308  16.432  0.2826 -0.4359 -0.4695
17367TIP3    H173516   3.739   5.400  16.416  1.4823 -0.1817 -0.8818
17367TIP3    H273517   3.830   5.313  16.499  0.2044 -1.0395 -0.3469
17368TIP3   OH273518   6.720   0.158  12.671  0.5234  0.1097 -0.1900
17368TIP3    H173519   6.781   0.174  12.599  0.2290 -0.9180 -0.6924
17368TIP3    H273520   6.748   0.218  12.740  1.1370  0.7424 -0.9645
17369TIP3   OH273521   2.579   1.923   1.493 -0.9412  0.3757  0.2992
17369TIP3    H173522   2.604   1.974   1.570  0.2302 -0.7642  0.7166
17369TIP3    H273523   2.500   1.876   1.519 -0.5524  0.0008  0.8161
17370TIP3   OH273524   5.254   3.066   2.032 -0.1347 -0.0597 -0.1308
17370TIP3    H173525   5.223   3.153   2.060 -0.2861  0.3477 -1.4782
17370TIP3    H273526   5.192   3.040   1.963  0.0861 -1.1090  0.0551
17371TIP3   OH273527   5.543   2.951   0.584  0.6325  0.0082 -0.4559
17371TIP3    H173528   5.488   2.997   0.521  0.3818 -0.8805 -0.9028
17371TIP3    H273529   5.514   2.983   0.670 -1.3337 -1.1984 -0.6162
17372TIP3   OH273530   2.850   2.920   6.167  0.3318  0.2056 -0.4313
17372TIP3    H173531   2.876   2.980   6.236 -1.1980 -0.2775  0.6032
17372TIP3    H273532   2.786   2.969   6.115 -1.1926 -0.5863  0.6280
17373TIP3   OH273533   6.171   1.556   4.131  0.2297 -0.2956  0.1939
17373TIP3    H173534   6.126   1.594   4.207  0.6193  0.3297  0.1286
17373TIP3    H273535   6.260   1.592   4.137  0.5581 -1.0711  0.0185
17374TIP3   OH273536   3.814   5.965   2.857  0.4313 -0.4378  0.5725
17374TIP3    H173537   3.774   6.050   2.836  0.6280 -0.3106  0.7163
17374TIP3    H273538   3.896   5.964   2.806 -0.7765 -1.6168 -1.5069
17375TIP3   OH273539   1.377   0.009   0.196  0.0239  0.3239  0.4168
17375TIP3    H173540   1.444  -0.050   0.229 -0.1755  0.2154  0.6309
17375TIP3    H273541   1.399   0.021   0.103  1.2593  1.5303  0.8284
17376TIP3   OH273542   6.384   2.889  17.013  0.1349  0.1149  0.4734
17376TIP3    H173543   6.387   2.887  17.109  0.6796  0.5211  0.4686
17376TIP3    H273544   6.474   2.871  16.986  0.1316  0.7192  0.0491
17377TIP3   OH273545   3.466   0.558   5.075 -0.7215 -0.2837 -0.4979
17377TIP3    H173546   3.486   0.610   5.153 -1.7846 -1.4926  0.6370
17377TIP3    H273547   3.412   0.615   5.021  0.6409  0.8365 -0.7489
17378TIP3   OH273548   5.145   5.409   3.900 -0.0341  0.2007 -0.3752
17378TIP3    H173549   5.138   5.344   3.969 -0.4389 -0.0582 -0.6546
17378TIP3    H273550   5.181   5.361   3.825  1.8226  0.8009  0.0778
17379TIP3   OH273551   5.869   2.502  13.897 -0.4854 -0.6315 -0.7630
17379TIP3    H173552   5.896   2.410  13.898 -1.3430 -0.9171  1.5975
17379TIP3    H273553   5.826   2.513  13.812 -2.3921 -3.0592 -0.2337
17380TIP3   OH273554   4.898   5.282   3.697 -0.4276 -0.5490  0.1445
17380TIP3    H173555   4.866   5.354   3.750 -0.7712 -0.5246 -0.0954
17380TIP3    H273556   4.839   5.209   3.717 -0.0108 -0.7990  0.4756
17381TIP3   OH273557   5.814   5.621   3.226 -0.0866  0.0035 -0.5306
17381TIP3    H173558   5.735   5.573   3.250  0.2907 -1.0887 -1.3858
17381TIP3    H273559   5.878   5.553   3.207  0.9141  0.8701 -0.3408
17382TIP3   OH273560   0.977   1.196  15.050 -0.3319  0.3344 -0.1424
17382TIP3    H173561   0.946   1.137  14.982  0.6143  0.1719 -0.4506
17382TIP3    H273562   0.976   1.283  15.009  3.3672 -0.1240 -1.5948
17383TIP3   OH273563   6.211   5.681  13.030 -0.1421 -0.2786  1.0243
17383TIP3    H173564   6.139   5.720  12.981 -0.2139 -2.1938 -0.5029
17383TIP3    H273565   6.169   5.633  13.101 -0.2320  0.1377  1.2544
17384TIP3   OH273566   6.692   5.092  15.859  0.5190  0.0965  0.2419
17384TIP3    H173567   6.719   5.156  15.925 -2.1510  1.3295  0.2710
17384TIP3    H273568   6.693   5.141  15.776  1.3540 -0.7100 -0.2418
17385TIP3   OH273569   2.816   6.461   3.833  0.5756  0.3883  0.0712
17385TIP3    H173570   2.748   6.405   3.871  0.6644 -1.7986 -2.6408
17385TIP3    H273571   2.898   6.427   3.870  0.5779 -0.9269 -1.0763
17386TIP3   OH273572   0.497   5.029   5.750 -0.4767 -0.3831  0.2709
17386TIP3    H173573   0.574   5.004   5.802 -0.9506 -2.7030 -0.0362
17386TIP3    H273574   0.533   5.080   5.677  0.7499 -1.0810  0.3573
17387TIP3   OH273575   2.912   3.009  11.287  0.3699 -0.0149 -0.0595
17387TIP3    H173576   2.910   2.913  11.277 -1.1979 -0.0035 -0.1090
17387TIP3    H273577   2.944   3.023  11.376  0.0729 -0.6029  0.1489
17388TIP3   OH273578   0.515   5.892   4.863  0.1208 -0.4770  0.1889
17388TIP3    H173579   0.527   5.806   4.903  2.8009 -0.2914 -0.0258
17388TIP3    H273580   0.507   5.952   4.937  1.7843 -0.5218  0.4277
17389TIP3   OH273581   5.375   6.305   4.497  0.1769  0.4158  0.3398
17389TIP3    H173582   5.455   6.290   4.447 -0.8664  0.9378 -1.5756
17389TIP3    H273583   5.382   6.396   4.526  0.6870  0.1801  0.9659
17390TIP3   OH273584   3.314   3.898   2.720  0.1602  0.0842 -0.3274
17390TIP3    H173585   3.402   3.869   2.744  0.1366 -1.4952 -1.9130
17390TIP3    H273586   3.316   3.905   2.625 -1.8102 -1.5186 -0.5596
17391TIP3   OH273587   4.677   2.581   5.188  0.6713 -0.5053 -0.0443
17391TIP3    H173588   4.759   2.593   5.140  1.1719  0.8777  1.0703
17391TIP3    H273589   4.705   2.559   5.277 -0.2004 -1.4053  0.0116
17392TIP3   OH273590   6.192   2.201   6.228  0.2647 -0.4888  0.7814
17392TIP3    H173591   6.116   2.172   6.279 -0.2011  0.4207  0.6255
17392TIP3    H273592   6.255   2.129   6.236 -0.3627 -0.9818  1.4393
17393TIP3   OH273593   3.207   5.618   5.898 -0.6219 -0.6234 -0.5692
17393TIP3    H173594   3.125   5.587   5.861 -0.4395  0.5960 -2.1561
17393TIP3    H273595   3.181   5.686   5.960 -0.8685 -1.3767  0.1567
17394TIP3   OH273596   0.835   3.098   4.365  0.0118  0.0229 -0.0736
17394TIP3    H173597   0.839   3.056   4.451 -0.5929 -1.8461 -0.9070
17394TIP3    H273598   0.745   3.082   4.334  0.7903 -1.1586 -1.8963
17395TIP3   OH273599   5.584   6.598   3.680  0.3311  0.0424 -0.0741
17395TIP3    H173600   5.669   6.615   3.638  1.5965 -4.0753  0.3425
17395TIP3    H273601   5.596   6.624   3.771  0.0912  2.1777 -0.6190
17396TIP3   OH273602   2.400   6.364  17.042 -0.1458  0.6937  0.0295
17396TIP3    H173603   2.394   6.445  17.093  0.6712 -0.1765  1.5736
17396TIP3    H273604   2.327   6.310  17.074  0.8508 -0.1752  0.9068
17397TIP3   OH273605   0.578   3.738   3.759 -0.0755 -0.0678  0.3286
17397TIP3    H173606   0.495   3.692   3.744 -0.3783  0.5732  0.0251
17397TIP3    H273607   0.590   3.734   3.853 -0.2469 -0.5134  0.3379
17398TIP3   OH273608   5.770   3.647   0.977 -0.4414  0.4258  0.1828
17398TIP3    H173609   5.745   3.698   1.054  1.6005  2.3708 -0.3407
17398TIP3    H273610   5.865   3.653   0.974 -0.2674 -1.7416 -1.1283
17399TIP3   OH273611   5.991   2.370  15.541  0.5549 -0.0180  0.2054
17399TIP3    H173612   5.947   2.406  15.618  1.4029  1.3463  0.0934
17399TIP3    H273613   5.931   2.304  15.506 -0.6894  0.7246  0.9149
17400TIP3   OH273614   0.985   5.037   2.151 -0.0863  0.3812 -0.3583
17400TIP3    H173615   1.009   5.064   2.240 -2.8878  2.0910 -0.0081
17400TIP3    H273616   0.890   5.024   2.154 -0.1187 -0.5879 -2.8641
17401TIP3   OH273617   3.497   0.596  16.222 -0.1491 -0.0106  0.2498
17401TIP3    H173618   3.455   0.518  16.257  0.5050 -0.1803  0.6690
17401TIP3    H273619   3.541   0.636  16.297  0.6731  0.0109 -0.2302
17402TIP3   OH273620   0.615   6.471   1.205  0.6835 -0.2978  0.5693
17402TIP3    H173621   0.520   6.458   1.211  0.4420  0.4485 -1.0853
17402TIP3    H273622   0.651   6.382   1.202 -0.0778 -0.6017  0.0676
17403TIP3   OH273623   5.711   3.922   2.073  0.6020  0.3504 -0.2052
17403TIP3    H173624   5.752   3.930   1.987  0.7703 -1.2684 -0.3152
17403TIP3    H273625   5.642   3.988   2.073 -1.6830 -1.7660 -2.9636
17404TIP3   OH273626   1.274   5.090   6.365  0.2387  0.1367  0.1499
17404TIP3    H173627   1.203   5.136   6.410 -0.9961 -2.7469  1.4511
17404TIP3    H273628   1.338   5.073   6.434  1.5577  1.3986 -0.7031
17405TIP3   OH273629   3.129   4.334   2.771  0.2150  0.1114 -0.5902
17405TIP3    H173630   3.036   4.311   2.762  0.4441 -1.1967  0.1602
17405TIP3    H273631   3.135   4.375   2.858  0.3601  0.1050 -0.5967
17406TIP3   OH273632   2.345   5.924   1.429 -0.2339 -0.4368 -0.3913
17406TIP3    H173633   2.317   5.853   1.487 -0.3270  0.2567  0.4220
17406TIP3    H273634   2.272   5.985   1.429  0.0748 -0.0638 -0.6430
17407TIP3   OH273635   1.020   0.810  12.092  0.1561  0.0991 -0.1979
17407TIP3    H173636   1.034   0.720  12.062  1.1944  0.4547 -0.8459
17407TIP3    H273637   0.929   0.829  12.071 -0.0652 -0.7845 -0.0793
17408TIP3   OH273638   1.740   1.078   3.504  0.0726 -0.1834  0.0858
17408TIP3    H173639   1.808   1.117   3.559 -0.2685 -2.0651  1.9428
17408TIP3    H273640   1.658   1.116   3.536  0.0087 -0.0133 -0.2748
17409TIP3   OH273641   3.830   1.738   1.079 -0.1003 -0.4662  0.3385
17409TIP3    H173642   3.817   1.832   1.066 -1.8779 -0.6992  0.0829
17409TIP3    H273643   3.896   1.732   1.148  1.4315  0.9290 -0.9196
17410TIP3   OH273644   1.697   0.381  10.812  0.3007 -0.2438  0.6504
17410TIP3    H173645   1.755   0.417  10.745 -1.4961  0.8986 -0.3740
17410TIP3    H273646   1.685   0.453  10.874 -1.2234  0.1031  0.0013
17411TIP3   OH273647   6.338   6.463  12.901  0.1959 -0.5184 -0.3639
17411TIP3    H173648   6.255   6.434  12.940 -0.1227  0.0901 -0.5830
17411TIP3    H273649   6.398   6.472  12.975  0.2650 -1.5967 -0.2716
17412TIP3   OH273650   1.978   3.879  13.968 -0.6156  0.1430  0.4940
17412TIP3    H173651   1.962   3.950  14.030  0.5470  1.0021 -0.1337
17412TIP3    H273652   1.990   3.801  14.023  1.4515  1.0707  1.4762
17413TIP3   OH273653   3.857   4.012  16.389 -0.6271  0.2633  0.0892
17413TIP3    H173654   3.925   4.073  16.418 -0.4385  0.4835 -0.7976
17413TIP3    H273655   3.889   3.926  16.414 -1.1243  0.5407  1.8163
17414TIP3   OH273656   5.025   1.238   2.607 -0.0555  0.0005 -0.1726
17414TIP3    H173657   4.985   1.210   2.690  0.2672 -2.8524 -0.8526
17414TIP3    H273658   5.119   1.225   2.620 -0.0816 -1.7287 -1.3160
17415TIP3   OH273659   6.306   1.297   1.065  0.4314  0.1596 -0.2640
17415TIP3    H173660   6.223   1.249   1.066  0.6379 -0.1938  0.6869
17415TIP3    H273661   6.370   1.234   1.031  0.4616  0.1741 -0.2340
17416TIP3   OH273662   1.747   4.224  12.375 -0.3741  0.3116  0.2247
17416TIP3    H173663   1.750   4.315  12.344  1.5008  0.8650  1.7942
17416TIP3    H273664   1.771   4.172  12.299  0.0462  1.2588 -0.3139
17417TIP3   OH273665   3.823   5.596   3.105  0.4331 -0.0921  0.2719
17417TIP3    H173666   3.840   5.547   3.025 -0.2997  0.3976 -0.1966
17417TIP3    H273667   3.850   5.537   3.175  1.9714 -0.1721 -0.3505
17418TIP3   OH273668   6.725   2.742   0.704  0.4853 -0.1268  0.2260
17418TIP3    H173669   6.675   2.822   0.718 -0.5193 -0.6190 -0.4169
17418TIP3    H273670   6.686   2.679   0.765  1.0742 -0.2175  0.5155
17419TIP3   OH273671   0.943   2.301  15.943 -0.0526  0.4790 -0.3833
17419TIP3    H173672   0.939   2.334  16.032  1.0465 -0.8774  0.2147
17419TIP3    H273673   1.001   2.225  15.948 -4.6767 -3.5949 -1.0157
17420TIP3   OH273674   4.235   3.467  15.215  0.8307  0.1004  0.1043
17420TIP3    H173675   4.309   3.507  15.169 -0.4307  2.2541 -0.2092
17420TIP3    H273676   4.264   3.379  15.236  2.6676  0.1351 -1.9406
17421TIP3   OH273677   3.840   4.134   5.445  0.1011  0.2923  0.4534
17421TIP3    H173678   3.842   4.085   5.527 -1.9534  1.2856  1.1797
17421TIP3    H273679   3.860   4.070   5.377 -1.3335 -1.3063  1.4677
17422TIP3   OH273680   3.304   3.369  12.769 -0.2980 -0.2329 -0.5172
17422TIP3    H173681   3.349   3.304  12.715 -0.1242 -0.6022  0.0619
17422TIP3    H273682   3.218   3.378  12.729  0.2497  0.4264 -1.5945
17423TIP3   OH273683   1.747   1.532   1.210  0.0049 -0.5507 -0.1453
17423TIP3    H173684   1.705   1.545   1.295  1.0194  2.4911  0.0442
17423TIP3    H273685   1.812   1.463   1.226 -0.1546 -0.3772  1.4387
17424TIP3   OH273686   2.690   1.462   3.952 -0.3041  0.4494 -0.4260
17424TIP3    H173687   2.665   1.540   4.001 -0.9886  0.9565 -1.5577
17424TIP3    H273688   2.608   1.417   3.935  0.0793 -0.5167  0.1749
17425TIP3   OH273689   2.315   0.731   4.884 -0.5944 -0.6011  0.2119
17425TIP3    H173690   2.361   0.742   4.801 -1.1846 -3.1891 -0.5614
17425TIP3    H273691   2.322   0.816   4.927  2.9270 -0.2200 -0.8150
17426TIP3   OH273692   6.290   5.001  17.355  0.2502 -0.2393  0.6734
17426TIP3    H173693   6.368   4.981  17.407  0.0219 -0.9338  0.7616
17426TIP3    H273694   6.276   4.922  17.301  0.8155  0.6638 -0.8738
17427TIP3   OH273695   0.863   6.101   4.751 -0.0390  0.0146  0.3665
17427TIP3    H173696   0.935   6.147   4.708  0.2044  0.7440  1.4963
17427TIP3    H273697   0.906   6.037   4.808 -0.3597 -1.0384 -0.5403
17428TIP3   OH273698   1.876   3.134   1.764  0.6660  0.1607 -1.1801
17428TIP3    H173699   1.871   3.057   1.706  0.0308  0.9953 -2.2903
17428TIP3    H273700   1.955   3.180   1.736  3.3703 -2.0741  2.1615
17429TIP3   OH273701   5.707   1.934  16.485 -0.3244  0.5193  0.4611
17429TIP3    H173702   5.750   1.939  16.571  0.2739 -1.3496  0.3055
17429TIP3    H273703   5.617   1.908  16.504 -0.3556  0.6954  0.5567
17430TIP3   OH273704   1.194   3.734  14.434 -0.6778 -0.1787  0.2323
17430TIP3    H173705   1.241   3.667  14.484  0.4936  0.7983  0.4687
17430TIP3    H273706   1.103   3.728  14.466 -0.7117 -1.9715 -0.1128
17431TIP3   OH273707   1.099   1.114  14.495  0.1435  0.7778  0.5610
17431TIP3    H173708   1.042   1.148  14.564 -1.0794 -0.6932  0.3265
17431TIP3    H273709   1.087   1.174  14.422  1.8173  2.6365  1.7065
17432TIP3   OH273710   3.369   1.118  16.931 -0.1419 -0.1175  0.6083
17432TIP3    H173711   3.388   1.169  16.853  1.2193 -1.8188 -0.2339
17432TIP3    H273712   3.295   1.163  16.972  1.0199  2.5802  0.0075
17433TIP3   OH273713   2.758   3.917  12.576 -0.0149  0.4025 -0.7865
17433TIP3    H173714   2.707   3.882  12.503 -0.7450  0.8336 -0.4918
17433TIP3    H273715   2.805   3.992  12.539 -2.0430  1.9688 -0.3489
17434TIP3   OH273716   3.953   5.370   6.199 -0.4274  0.4793 -0.0896
17434TIP3    H173717   4.048   5.359   6.199 -0.4315  0.1990  1.8216
17434TIP3    H273718   3.922   5.307   6.133  0.6874  0.5098 -0.6645
17435TIP3   OH273719   2.035   3.452  14.709 -0.3579  0.0321  0.1960
17435TIP3    H173720   1.982   3.396  14.652 -1.6569 -0.3706  1.7376
17435TIP3    H273721   2.070   3.393  14.775 -1.0598  0.8731  1.3571
17436TIP3   OH273722   4.729   5.093   3.824  0.4258 -0.4426 -0.3239
17436TIP3    H173723   4.711   5.031   3.753  1.7879 -2.8277  1.2666
17436TIP3    H273724   4.669   5.067   3.894  0.7829  0.2802  0.2683
17437TIP3   OH273725   3.840   3.412  15.636 -0.1650  0.1291 -0.1062
17437TIP3    H173726   3.839   3.317  15.628  0.9411 -0.0832  1.8262
17437TIP3    H273727   3.889   3.441  15.558 -0.3466 -0.8767 -0.6172
17438TIP3   OH273728   3.857   4.081   5.101  0.4664 -0.6096  0.1451
17438TIP3    H173729   3.801   4.008   5.071  0.3026 -0.7704  0.8137
17438TIP3    H273730   3.946   4.049   5.090  0.3929 -1.2095  1.0890
17439TIP3   OH273731   4.414   4.406  12.663 -0.3544  0.1877  0.1570
17439TIP3    H173732   4.350   4.447  12.720 -1.0402  0.4990 -0.8011
17439TIP3    H273733   4.403   4.451  12.579  0.4115 -0.4566 -0.3021
17440TIP3   OH273734   5.150   1.916  12.330  0.3800  0.0539  0.5251
17440TIP3    H173735   5.218   1.861  12.291 -0.3126 -0.0078 -0.6400
17440TIP3    H273736   5.164   2.002  12.291  0.3431  0.2653  0.9754
17441TIP3   OH273737   1.199   4.847   5.554 -0.0462  0.1526  0.6966
17441TIP3    H173738   1.112   4.888   5.563 -0.0756  0.4542 -0.7255
17441TIP3    H273739   1.259   4.921   5.541  0.0119 -0.1675 -1.0823
17442TIP3   OH273740   4.880   2.917   5.436 -0.9177  0.1060  0.1272
17442TIP3    H173741   4.872   3.012   5.447 -1.0587  0.0694  0.3482
17442TIP3    H273742   4.794   2.888   5.406 -0.5574  0.1918 -1.0389
17443TIP3   OH273743   1.606   3.641   2.879  0.0837  0.3293 -0.2946
17443TIP3    H173744   1.606   3.566   2.938 -0.6712  0.3967 -0.2077
17443TIP3    H273745   1.689   3.685   2.897 -1.1340  1.7287  2.4686
17444TIP3   OH273746   0.999   4.022  12.789  0.2024 -0.0876  0.0036
17444TIP3    H173747   1.043   4.105  12.807  0.3670 -0.4365  1.3073
17444TIP3    H273748   1.021   3.966  12.864 -0.5305 -1.0490 -0.4761
17445TIP3   OH273749   5.293   6.718   3.880  0.3532 -0.2966 -0.7347
17445TIP3    H173750   5.306   6.793   3.938 -3.5242 -0.3576  0.4989
17445TIP3    H273751   5.280   6.757   3.793 -0.5543  0.4437 -0.2928
17446TIP3   OH273752   1.366   4.563   3.538 -0.3608 -0.2423 -0.0184
17446TIP3    H173753   1.461   4.560   3.524 -0.1271 -0.6520  1.5280
17446TIP3    H273754   1.331   4.497   3.478  0.2224  0.5416 -1.2624
17447TIP3   OH273755   3.184   6.647  14.793 -0.1525  0.5461 -0.1536
17447TIP3    H173756   3.230   6.647  14.877  0.2153 -0.3773 -0.3359
17447TIP3    H273757   3.189   6.556  14.763 -0.4067  0.8301 -1.1065
17448TIP3   OH273758   5.440   4.057   4.977 -0.6416 -0.4044  0.2024
17448TIP3    H173759   5.377   3.990   5.001  0.1814 -0.5153  2.2701
17448TIP3    H273760   5.445   4.114   5.054  0.9657  0.2158 -0.3171
17449TIP3   OH273761   2.594   5.389  16.114  0.3903  0.0482 -0.2321
17449TIP3    H173762   2.537   5.427  16.047  0.5124  0.0812 -0.3183
17449TIP3    H273763   2.598   5.296  16.092 -1.8853 -0.5278  1.3835
17450TIP3   OH273764   0.635   3.280  14.389 -0.0056 -0.3461  0.2348
17450TIP3    H173765   0.647   3.247  14.300 -0.1440 -1.2652  0.5439
17450TIP3    H273766   0.721   3.268  14.430  0.2068  0.5762  0.0742
17451TIP3   OH273767   0.487   1.342   0.148 -0.1428 -0.2443 -0.2796
17451TIP3    H173768   0.506   1.408   0.081  3.4054  0.0546  0.8166
17451TIP3    H273769   0.455   1.393   0.223 -2.4242 -0.4046 -1.0792
17452TIP3   OH273770   3.817   3.043   0.202  0.3331  0.5772 -0.2253
17452TIP3    H173771   3.871   2.965   0.187 -1.8061 -0.8101 -1.1277
17452TIP3    H273772   3.795   3.040   0.295  0.2440  0.0856 -0.2604
17453TIP3   OH273773   4.572   0.763  11.372  0.0840 -0.1290  0.1173
17453TIP3    H173774   4.583   0.825  11.300 -0.3536 -0.1582  0.0197
17453TIP3    H273775   4.520   0.692  11.335 -0.9175  0.2813  0.6901
17454TIP3   OH273776   5.460   3.286   0.265 -0.4444 -0.4958  0.4286
17454TIP3    H173777   5.489   3.333   0.187 -0.2606  0.0169  0.7993
17454TIP3    H273778   5.386   3.233   0.235 -1.5736  1.0760  0.2703
17455TIP3   OH273779   4.193   2.505   1.873  0.1361 -0.1485  0.3046
17455TIP3    H173780   4.097   2.497   1.876 -0.0404  0.9925 -0.8858
17455TIP3    H273781   4.220   2.441   1.808  0.0693  0.1468 -0.0203
17456TIP3   OH273782   3.889   3.299  17.281 -0.1856  0.2112  0.3489
17456TIP3    H173783   3.892   3.329  17.372 -2.1450  1.5684  0.0321
17456TIP3    H273784   3.843   3.215  17.286  0.7446 -0.2882  0.7144
17457TIP3   OH273785   3.633   6.146  11.349  0.7749 -0.2078  0.1861
17457TIP3    H173786   3.660   6.209  11.416 -0.5122  0.7866 -0.1936
17457TIP3    H273787   3.538   6.155  11.345  0.8433  0.0053 -2.0141
17458TIP3   OH273788   6.201   1.131  13.342 -0.2273 -0.0669 -0.4226
17458TIP3    H173789   6.275   1.124  13.281  0.1167  0.4186 -0.0754
17458TIP3    H273790   6.156   1.047  13.336  0.9545 -0.7753  0.1140
17459TIP3   OH273791   0.775   4.225   4.947 -0.2581  0.7203 -0.0303
17459TIP3    H173792   0.779   4.292   5.014  0.4561 -0.2590  0.9478
17459TIP3    H273793   0.682   4.209   4.933 -0.5132  3.0424 -1.4975
17460TIP3   OH273794   3.676   5.412   2.324 -0.4048  0.6657 -0.4211
17460TIP3    H173795   3.690   5.464   2.245  0.3119  2.0458  0.5824
17460TIP3    H273796   3.730   5.334   2.311  1.1520  1.7323 -0.5186
17461TIP3   OH273797   0.141   3.773   6.584  0.1000  0.5334 -0.3146
17461TIP3    H173798   0.176   3.684   6.578  1.3391  1.0448 -1.2656
17461TIP3    H273799   0.157   3.799   6.675  1.4669  0.4326 -0.5064
17462TIP3   OH273800   3.405   0.633  13.106  0.0539 -0.9631  0.8217
17462TIP3    H173801   3.461   0.557  13.122  0.0684 -1.3968 -1.0094
17462TIP3    H273802   3.320   0.595  13.081 -0.0180 -0.3988  0.1582
17463TIP3   OH273803   4.539   1.785  13.429 -0.6254  0.6842 -0.2487
17463TIP3    H173804   4.630   1.783  13.460 -1.0534 -0.9136  1.0322
17463TIP3    H273805   4.543   1.837  13.349  1.7515 -0.8465 -1.2491
17464TIP3   OH273806   6.256   2.207   1.961 -0.3992  0.0614 -0.2360
17464TIP3    H173807   6.218   2.283   2.006  1.3849  0.8937 -0.0646
17464TIP3    H273808   6.190   2.182   1.896 -1.1144  1.6239 -0.1527
17465TIP3   OH273809   4.516   0.619  14.700 -0.7837  0.5229  0.0241
17465TIP3    H173810   4.548   0.555  14.637 -1.0367  0.2348  0.1874
17465TIP3    H273811   4.595   0.664  14.730 -0.7592  1.5679 -1.4681
17466TIP3   OH273812   1.977   0.700   1.613 -0.2156  0.1576  0.2961
17466TIP3    H173813   2.054   0.755   1.628  0.0416 -0.0924 -0.1234
17466TIP3    H273814   1.977   0.682   1.519 -0.2439 -0.6446  0.4409
17467TIP3   OH273815   6.568   1.474   5.087  0.1003 -0.1158 -0.2296
17467TIP3    H173816   6.549   1.418   5.162  0.8870 -1.4392 -0.9714
17467TIP3    H273817   6.523   1.557   5.106  1.4197  0.0976  2.3387
17468TIP3   OH273818   2.108   2.039  11.737 -0.2060 -0.2591  1.0602
17468TIP3    H173819   2.110   2.013  11.645  2.5106 -0.7965  1.2063
17468TIP3    H273820   2.023   2.008  11.769  0.0993 -2.9313 -0.4810
17469TIP3   OH273821   2.919   5.344  11.319 -0.2787  0.7036  0.3896
17469TIP3    H173822   2.850   5.303  11.371 -0.0141  1.4631  1.3737
17469TIP3    H273823   2.913   5.302  11.233 -0.5347 -0.7924  1.1132
17470TIP3   OH273824   2.579   4.391   5.694 -0.4190 -0.3931 -0.3512
17470TIP3    H173825   2.654   4.332   5.708 -1.9027 -2.2620  0.1923
17470TIP3    H273826   2.524   4.344   5.631 -1.0658  1.0358 -0.8790
17471TIP3   OH273827   5.163   5.565  12.326 -0.0473  0.1436  0.2104
17471TIP3    H173828   5.119   5.483  12.305 -1.3645  0.1065  2.7533
17471TIP3    H273829   5.252   5.539  12.350  1.0766  0.0602 -3.4103
17472TIP3   OH273830   2.764   1.354   4.229 -0.6878 -0.3295 -0.0885
17472TIP3    H173831   2.814   1.400   4.162 -0.2720 -1.5856 -0.6734
17472TIP3    H273832   2.751   1.419   4.298 -1.4460  1.0993 -1.5170
17473TIP3   OH273833   3.835   5.429   3.324 -0.8207 -0.1962  0.8455
17473TIP3    H173834   3.782   5.481   3.384  0.2873  2.3694 -0.2265
17473TIP3    H273835   3.917   5.413   3.372 -0.7058  0.1163  0.7583
17474TIP3   OH273836   6.260   3.726  15.050  0.7162 -0.2825 -0.1810
17474TIP3    H173837   6.227   3.637  15.043  1.1920 -0.6356  1.6689
17474TIP3    H273838   6.200   3.770  15.110  0.3006  0.7752 -1.3079
17475TIP3   OH273839   5.866   0.869  12.073 -0.4286 -0.7536 -0.3900
17475TIP3    H173840   5.877   0.788  12.023  0.5889 -1.1310  0.4136
17475TIP3    H273841   5.837   0.933  12.009 -0.8532 -1.6494 -1.1230
17476TIP3   OH273842   1.797   1.938   1.177 -0.0539  0.2078 -0.0490
17476TIP3    H173843   1.716   1.989   1.180 -1.3432 -1.6868  3.3212
17476TIP3    H273844   1.866   2.003   1.180 -1.5382  1.8408  0.7030
17477TIP3   OH273845   1.219   2.154  15.986 -0.0284  0.2118 -0.0151
17477TIP3    H173846   1.310   2.169  15.959  0.9108 -3.6587  0.4010
17477TIP3    H273847   1.222   2.153  16.082 -1.0039  2.0822  0.0853
17478TIP3   OH273848   5.502   0.416   4.630 -0.4186 -0.0419 -0.8186
17478TIP3    H173849   5.547   0.353   4.574 -0.0626  0.2849 -0.9025
17478TIP3    H273850   5.556   0.419   4.710 -0.8873 -0.4596 -0.4801
17479TIP3   OH273851   6.217   0.134   2.885  0.2404  0.3646 -0.1407
17479TIP3    H173852   6.171   0.218   2.877 -1.6346 -0.5978 -0.1012
17479TIP3    H273853   6.155   0.070   2.850  1.6929 -0.9964 -0.3034
17480TIP3   OH273854   4.899   2.105   0.917  0.7091 -0.1121 -0.7370
17480TIP3    H173855   4.851   2.166   0.861 -1.2555 -0.2059  0.7103
17480TIP3    H273856   4.836   2.083   0.986  3.0021  0.0545  1.5461
17481TIP3   OH273857   0.140   0.096   0.061  0.6499 -0.5595 -0.1175
17481TIP3    H173858   0.119   0.017   0.111 -0.7008 -0.1098  0.0527
17481TIP3    H273859   0.160   0.064  -0.027 -2.1164 -0.9791 -0.6900
17482TIP3   OH273860   5.339   0.600  15.205 -0.5861  0.7030  0.2164
17482TIP3    H173861   5.276   0.664  15.239 -0.7724  0.8151 -0.3144
17482TIP3    H273862   5.351   0.537  15.276 -0.9406  0.9405  0.4910
17483TIP3   OH273863   0.807   0.280   1.622  0.2908  0.8592  0.7737
17483TIP3    H173864   0.825   0.350   1.559 -1.7852  2.0108  1.3628
17483TIP3    H273865   0.868   0.296   1.694  3.7300 -1.3195 -1.3573
17484TIP3   OH273866   2.135   4.034   3.886  0.1010  0.3143 -0.3886
17484TIP3    H173867   2.196   4.049   3.814 -0.1540  2.3558 -0.2520
17484TIP3    H273868   2.117   3.940   3.884 -1.0747  0.4714 -4.0019
17485TIP3   OH273869   1.821   5.119   0.504 -0.0090  0.1410  0.6909
17485TIP3    H173870   1.891   5.137   0.442  1.2955  1.6025  2.5018
17485TIP3    H273871   1.789   5.205   0.531 -0.9228 -0.4710  1.6375
17486TIP3   OH273872   5.051   3.525  17.354 -0.1281 -0.3405  0.2339
17486TIP3    H173873   5.129   3.501  17.404 -0.2235 -2.2887 -0.4578
17486TIP3    H273874   5.009   3.593  17.406  1.3624 -0.1359  1.2376
17487TIP3   OH273875   0.952   4.376   4.655  0.0520 -0.7126 -0.6911
17487TIP3    H173876   0.999   4.335   4.726 -0.2956  0.0935  0.0230
17487TIP3    H273877   0.862   4.387   4.688 -0.2838 -0.9383 -1.4937
17488TIP3   OH273878   4.496   2.166   6.237 -0.1211 -0.3945  0.3461
17488TIP3    H173879   4.516   2.115   6.159  0.2056 -0.4129  0.4428
17488TIP3    H273880   4.492   2.101   6.307 -0.8936 -0.4427  0.2658
17489TIP3   OH273881   5.471   5.628  11.638  0.1765  0.0970 -0.1966
17489TIP3    H173882   5.536   5.698  11.639 -0.2699  0.5124 -0.1016
17489TIP3    H273883   5.516   5.552  11.674  1.0677 -0.0233 -1.4762
17490TIP3   OH273884   1.683   3.020   3.918  0.5933  0.4786 -0.8699
17490TIP3    H173885   1.720   3.074   3.988  0.5537 -0.8885  0.2431
17490TIP3    H273886   1.756   3.007   3.857  1.7846 -1.4021  0.8277
17491TIP3   OH273887   3.489   5.836  13.153  0.2519  0.1704 -0.4261
17491TIP3    H173888   3.542   5.773  13.202  0.4181  0.0852 -0.7191
17491TIP3    H273889   3.425   5.783  13.106 -0.4762  0.3074  0.3828
17492TIP3   OH273890   0.350   2.842  16.730  0.0377 -0.5226 -0.1171
17492TIP3    H173891   0.259   2.849  16.700  0.0820  1.3325  0.0877
17492TIP3    H273892   0.402   2.875  16.656  0.4268  0.0485  0.4063
17493TIP3   OH273893   3.280   4.111   3.129  0.2185  0.5472  0.0228
17493TIP3    H173894   3.238   4.178   3.183  0.5462 -0.1202  1.1231
17493TIP3    H273895   3.282   4.150   3.041 -2.1522  0.8315  0.0287
17494TIP3   OH273896   3.498   1.192  12.320 -0.2010 -0.2226 -0.2551
17494TIP3    H173897   3.531   1.103  12.337  0.7104 -0.2875 -2.0394
17494TIP3    H273898   3.413   1.195  12.364 -0.2061 -1.9533 -0.0563
17495TIP3   OH273899   2.136   1.513  14.142  0.6631 -0.1861 -0.2186
17495TIP3    H173900   2.159   1.496  14.233  4.3952 -2.1875 -1.3185
17495TIP3    H273901   2.117   1.607  14.139 -1.1011 -0.3150  2.7887
17496TIP3   OH273902   3.143   4.721   6.034  0.2045 -0.6348 -0.3716
17496TIP3    H173903   3.192   4.770   5.967  0.0861  1.9056  1.2543
17496TIP3    H273904   3.051   4.742   6.016  0.2148  0.8525  1.0463
17497TIP3   OH273905   0.850   4.907  16.910 -0.5111  0.2924 -0.5547
17497TIP3    H173906   0.886   4.985  16.868 -1.0651  1.0420  0.3083
17497TIP3    H273907   0.862   4.837  16.846 -0.5027  1.2020 -1.5818
17498TIP3   OH273908   3.095   5.704   3.928  0.4555 -0.3229 -0.3676
17498TIP3    H173909   3.170   5.667   3.880  0.8830  0.1901 -0.1144
17498TIP3    H273910   3.121   5.795   3.944  0.9432 -0.8336  2.0603
17499TIP3   OH273911   3.861   6.019  12.120  0.2977 -0.0414 -0.0984
17499TIP3    H173912   3.866   5.984  12.209 -0.4431  1.2706  0.4793
17499TIP3    H273913   3.932   5.975  12.073 -0.0220 -1.6249  0.8181
17500TIP3   OH273914   0.235   1.711  12.407  0.2804 -0.3208 -0.0178
17500TIP3    H173915   0.225   1.806  12.416 -1.6878 -0.6094  1.2971
17500TIP3    H273916   0.170   1.686  12.342 -1.3718 -1.1003  1.8491
17501TIP3   OH273917   0.022   1.426   1.850 -0.1077 -0.7713 -0.1180
17501TIP3    H173918   0.085   1.357   1.828  0.8148  0.6065 -2.0241
17501TIP3    H273919   0.075   1.493   1.893 -0.5983 -0.3438 -0.1827
17502TIP3   OH273920   4.657   4.432  16.090  0.2047 -0.1719 -0.1352
17502TIP3    H173921   4.632   4.378  16.165  1.2539 -1.0065 -0.3790
17502TIP3    H273922   4.659   4.372  16.016 -1.9696  0.8470 -1.1201
17503TIP3   OH273923   1.587   2.006  11.842  0.0072  0.2282 -0.0936
17503TIP3    H173924   1.494   2.015  11.863 -0.3333  0.9960 -1.7613
17503TIP3    H273925   1.595   2.041  11.753  1.7554 -0.5748 -0.2937
17504TIP3   OH273926   2.542   6.643   0.620 -0.1314  0.3306 -0.0133
17504TIP3    H173927   2.534   6.597   0.704  1.1096  0.2432  0.0817
17504TIP3    H273928   2.539   6.736   0.643  0.5945  0.3137  0.1941
17505TIP3   OH273929   3.416   5.873   3.479  0.7611  0.1504  0.8117
17505TIP3    H173930   3.439   5.960   3.446 -2.0096  0.4818 -0.5724
17505TIP3    H273931   3.382   5.889   3.567 -0.6343  0.6754  0.2123
17506TIP3   OH273932   0.916   1.474   4.544  0.1445 -0.2670 -0.4057
17506TIP3    H173933   0.862   1.427   4.481 -0.4714 -0.7535  0.4653
17506TIP3    H273934   0.978   1.408   4.576 -0.4916 -0.4215  0.5572
17507TIP3   OH273935   1.712   6.293  17.267 -0.1595  0.0802 -0.1950
17507TIP3    H173936   1.744   6.364  17.211 -1.6493  1.3654  0.4928
17507TIP3    H273937   1.787   6.235  17.278  0.9626  1.2736 -1.2226
17508TIP3   OH273938   2.933   4.758  16.037 -0.3315 -0.0984  0.0274
17508TIP3    H173939   2.941   4.662  16.035  1.7233  0.0225 -1.2091
17508TIP3    H273940   3.022   4.788  16.056 -0.7454  1.5881 -0.5648
17509TIP3   OH273941   1.636   3.099  15.435 -0.1027  0.7685  0.5113
17509TIP3    H173942   1.549   3.111  15.399 -1.2615 -3.7442  1.1102
17509TIP3    H273943   1.622   3.084  15.528  1.6850  2.3475  1.1082
17510TIP3   OH273944   5.080   6.101  15.335  0.1031  0.2306  0.1276
17510TIP3    H173945   5.058   6.023  15.385 -0.8640  0.3620 -0.0817
17510TIP3    H273946   5.174   6.092  15.317 -0.1533 -1.2813 -0.6062
17511TIP3   OH273947   4.217   0.429  14.661  0.7397 -0.3439  0.2573
17511TIP3    H173948   4.168   0.464  14.735  0.8208 -0.0743  0.1832
17511TIP3    H273949   4.231   0.337  14.683  0.0997 -0.4544  0.2243
17512TIP3   OH273950   4.715   2.878  15.432 -0.4654  0.1725  0.4211
17512TIP3    H173951   4.697   2.942  15.501 -0.1379  0.5094  0.2017
17512TIP3    H273952   4.707   2.927  15.351 -1.0746 -0.2777  0.2057
17513TIP3   OH273953   6.672   5.737   4.284 -0.1534 -0.5204  0.9362
17513TIP3    H173954   6.676   5.821   4.239 -0.3210 -0.4233  1.1018
17513TIP3    H273955   6.692   5.673   4.216  2.5891 -0.2141  1.3336
17514TIP3   OH273956   1.450   4.370  10.854  0.5794  0.3108 -0.3263
17514TIP3    H173957   1.466   4.446  10.798  0.7600 -0.1419 -0.9059
17514TIP3    H273958   1.456   4.295  10.794 -0.2250 -0.1145  0.1106
17515TIP3   OH273959   1.111   3.449   2.081 -0.1110 -0.2682  0.5244
17515TIP3    H173960   1.204   3.466   2.065 -0.4776  1.2832 -0.1818
17515TIP3    H273961   1.066   3.507   2.019 -1.6014  1.6955  3.2637
17516TIP3   OH273962   2.558   0.821   3.037  0.6214 -0.5513  0.0128
17516TIP3    H173963   2.490   0.771   3.083 -0.3978  0.7050 -0.0958
17516TIP3    H273964   2.543   0.801   2.945  0.5642 -0.4921  0.0088
17517TIP3   OH273965   4.351   3.755   2.273 -0.0425  0.6830 -0.3181
17517TIP3    H173966   4.324   3.847   2.272  0.8597  1.0218  1.4891
17517TIP3    H273967   4.381   3.737   2.184  0.5431  2.3914 -0.5025
17518TIP3   OH273968   0.499   1.933  11.062 -0.0655  0.4337  0.5789
17518TIP3    H173969   0.577   1.885  11.090 -0.7063 -2.0462 -1.4159
17518TIP3    H273970   0.453   1.871  11.005 -2.3432  2.6124 -0.1258
17519TIP3   OH273971   6.636   1.175   5.054 -0.4192 -0.6001  0.3649
17519TIP3    H173972   6.668   1.207   5.139  0.6345 -0.1872 -0.1635
17519TIP3    H273973   6.671   1.086   5.048 -1.8554 -1.2424  1.0526
17520TIP3   OH273974   1.942   2.429   1.089 -0.0458 -0.0818  0.6980
17520TIP3    H173975   1.969   2.521   1.088  0.4758 -0.1843  2.0950
17520TIP3    H273976   1.846   2.432   1.088 -0.1286  0.3242 -2.9010
17521TIP3   OH273977   5.328   4.942   2.829  0.7096  0.2935 -0.2432
17521TIP3    H173978   5.337   4.854   2.792 -0.8551 -0.0855  0.2424
17521TIP3    H273979   5.283   4.929   2.912 -0.8097  1.6758 -0.8121
17522TIP3   OH273980   0.306   3.639  12.623  0.0815 -0.3090 -0.9182
17522TIP3    H173981   0.366   3.570  12.597 -0.1442  0.0214 -2.4355
17522TIP3    H273982   0.322   3.651  12.716  1.7596 -0.8121 -1.1047
17523TIP3   OH273983   2.662   5.577   0.962 -0.2766 -0.4530  0.1341
17523TIP3    H173984   2.572   5.602   0.939  0.4115  0.8521 -1.3532
17523TIP3    H273985   2.678   5.622   1.045 -0.3236  1.1515 -0.6677
17524TIP3   OH273986   1.317   3.438   2.648  0.1090 -0.0018 -0.6912
17524TIP3    H173987   1.287   3.441   2.557  0.0162  1.1847 -0.6329
17524TIP3    H273988   1.280   3.356   2.682  0.6445 -0.7670 -1.8761
17525TIP3   OH273989   2.151   5.849   3.965  0.4792 -0.6421  0.0556
17525TIP3    H173990   2.208   5.772   3.973 -1.0542 -1.8252  0.1361
17525TIP3    H273991   2.135   5.876   4.056  0.9273 -0.2742  0.0310
17526TIP3   OH273992   0.870   6.239   5.352 -0.2709 -0.4334  0.4396
17526TIP3    H173993   0.881   6.260   5.260 -0.7479  0.0857  0.4976
17526TIP3    H273994   0.886   6.322   5.398  1.7367 -1.0495  0.9669
17527TIP3   OH273995   5.903   5.906  14.215 -0.4997  0.4695 -0.3237
17527TIP3    H173996   5.950   5.968  14.159  0.7925  0.5897  0.8436
17527TIP3    H273997   5.820   5.951  14.235 -1.1816  0.2416 -2.4225
17528TIP3   OH273998   2.483   3.136   5.511  0.0502  0.6523 -0.2053
17528TIP3    H173999   2.568   3.108   5.477 -0.8328 -0.7146 -1.3972
17528TIP3    H274000   2.500   3.221   5.552  1.7953  0.8910 -1.3369
17529TIP3   OH274001   4.390   6.578   1.794 -0.3935  0.4011  0.0093
17529TIP3    H174002   4.364   6.647   1.733  2.2951  0.1204 -1.6137
17529TIP3    H274003   4.402   6.500   1.739 -2.4131 -1.2026  1.6503
17530TIP3   OH274004   0.456   6.501   0.165 -0.7895 -0.0287  0.3994
17530TIP3    H174005   0.411   6.526   0.246 -0.4505  1.0310  0.2847
17530TIP3    H274006   0.549   6.505   0.187 -0.6684  0.9574 -0.2012
17531TIP3   OH274007   2.252   5.427  14.178 -0.1498  0.0422  0.5189
17531TIP3    H174008   2.313   5.406  14.107 -1.1536  1.2916 -0.7536
17531TIP3    H274009   2.214   5.342  14.202  0.4719 -0.4450 -0.1757
17532TIP3   OH274010   2.222   2.101  12.009 -0.3069  0.5553  0.2748
17532TIP3    H174011   2.197   2.078  11.919  1.8528 -1.7927  0.1523
17532TIP3    H274012   2.149   2.068  12.063 -0.1534 -1.0705 -0.4284
17533TIP3   OH274013   6.558   1.282   4.187 -0.0945  0.2020 -0.2601
17533TIP3    H174014   6.555   1.187   4.185 -2.3813  0.2108 -1.5233
17533TIP3    H274015   6.543   1.308   4.096  1.1167  1.7761 -0.0464
17534TIP3   OH274016   5.540   3.253   5.875 -0.0795  0.3591  0.0801
17534TIP3    H174017   5.543   3.296   5.790 -0.2547  1.4807  0.6241
17534TIP3    H274018   5.501   3.318   5.934  0.4940 -0.2056  1.1187
17535TIP3   OH274019   1.995   4.024   2.655  0.0698  0.0535  0.3044
17535TIP3    H174020   2.066   4.050   2.597 -0.4055  0.4935 -0.0871
17535TIP3    H274021   1.920   4.009   2.597  0.0510 -1.2009  0.6240
17536TIP3   OH274022   6.523   2.663   5.698 -0.2050 -0.2173 -0.4359
17536TIP3    H174023   6.538   2.665   5.603  0.0384 -2.7746 -0.5424
17536TIP3    H274024   6.438   2.703   5.710 -0.9419 -1.2033 -1.9663
17537TIP3   OH274025   4.196   3.107   4.564 -0.2497  0.1534 -0.4867
17537TIP3    H174026   4.235   3.020   4.575 -3.1334 -1.6167 -2.8552
17537TIP3    H274027   4.121   3.107   4.624 -0.6802  0.7104 -1.0163
17538TIP3   OH274028   1.661   0.242   6.189 -0.1748  0.0007 -0.1266
17538TIP3    H174029   1.692   0.157   6.220  0.8477  0.7649  1.0543
17538TIP3    H274030   1.576   0.253   6.231 -0.6742 -0.7736 -0.9162
17539TIP3   OH274031   3.063   0.099  14.931 -0.0241  0.3453  0.3500
17539TIP3    H174032   3.121   0.045  14.877  1.0788  0.6793  1.1703
17539TIP3    H274033   2.979   0.095  14.886  0.1341 -1.6939  0.1396
17540TIP3   OH274034   6.366   4.102  12.366 -0.0878 -0.1562 -0.1861
17540TIP3    H174035   6.349   4.009  12.352  1.8342 -0.3497 -1.5572
17540TIP3    H274036   6.459   4.113  12.346 -0.5940  2.3415 -1.5218
17541TIP3   OH274037   0.298   5.816   0.940 -0.4916  0.1531  0.3938
17541TIP3    H174038   0.359   5.774   1.000  0.1548 -2.4259 -1.8704
17541TIP3    H274039   0.347   5.889   0.902  0.3681 -0.4655  0.3068
17542TIP3   OH274040   0.564   5.401   1.248  0.2839  0.0693  0.6293
17542TIP3    H174041   0.605   5.476   1.292  2.2688 -1.2502  1.1998
17542TIP3    H274042   0.489   5.438   1.201  1.5015  2.5072  0.4290
17543TIP3   OH274043   4.768   6.387   2.592 -0.3122  0.4166  0.0528
17543TIP3    H174044   4.726   6.458   2.542 -0.3016  0.1736 -0.3067
17543TIP3    H274045   4.804   6.329   2.525 -3.3237 -1.8256  0.1924
17544TIP3   OH274046   4.377   3.567   3.969  0.4653 -0.1833  0.8266
17544TIP3    H174047   4.353   3.475   3.961  3.1401 -0.9809  1.0319
17544TIP3    H274048   4.320   3.601   4.037 -1.8191 -1.1745 -0.4968
17545TIP3   OH274049   2.406   1.956  13.183 -0.3171  0.4236 -0.3621
17545TIP3    H174050   2.368   1.879  13.139 -0.4337  0.8192 -0.9636
17545TIP3    H274051   2.371   2.031  13.135 -1.4463  0.9340  1.1725
17546TIP3   OH274052   0.752   2.299   0.371  0.5111 -0.2955  0.0318
17546TIP3    H174053   0.796   2.314   0.287  1.3619 -0.0522  0.5157
17546TIP3    H274054   0.823   2.281   0.432  0.3797  3.6968  1.6789
17547TIP3   OH274055   4.758   3.844   6.453  0.2472  0.0369 -0.4154
17547TIP3    H174056   4.771   3.877   6.364  0.2585 -0.5821 -0.6458
17547TIP3    H274057   4.674   3.880   6.480  0.2297  0.2021 -0.6883
17548TIP3   OH274058   3.970   2.596   4.887  0.1307  0.0305 -0.1848
17548TIP3    H174059   3.904   2.540   4.927  0.8169 -1.1941 -0.6980
17548TIP3    H274060   4.039   2.604   4.954  1.3053 -2.0653 -1.0392
17549TIP3   OH274061   0.322   1.886   4.823 -0.4293 -0.0305  0.1825
17549TIP3    H174062   0.366   1.942   4.759  1.1321 -0.9511  0.3951
17549TIP3    H274063   0.299   1.807   4.772 -0.3389 -0.2354  0.4590
17550TIP3   OH274064   2.362   6.671  12.979 -0.5907 -0.2193  0.3287
17550TIP3    H174065   2.272   6.659  13.008 -0.3483 -0.9993  0.7849
17550TIP3    H274066   2.355   6.731  12.905 -1.9704 -3.2153 -2.2289
17551TIP3   OH274067   2.729   1.683  17.385 -0.1906 -0.2650  0.1971
17551TIP3    H174068   2.757   1.768  17.418 -0.6237 -0.9013  2.4471
17551TIP3    H274069   2.655   1.702  17.328  1.0603  0.9819 -1.0703
17552TIP3   OH274070   0.364   2.966  12.417 -0.4275 -0.9510  0.5199
17552TIP3    H174071   0.401   2.958  12.506 -0.5628  0.1891  0.6911
17552TIP3    H274072   0.311   3.046  12.420  1.1950  0.2611 -1.1449
17553TIP3   OH274073   5.628   1.633   2.955 -0.2316 -0.4780 -0.5199
17553TIP3    H174074   5.648   1.540   2.951 -0.6286 -0.6481  0.7403
17553TIP3    H274075   5.643   1.657   3.047  4.3343  1.7900 -1.5808
17554TIP3   OH274076   4.230   2.325  17.123 -0.0968 -0.4479 -0.1205
17554TIP3    H174077   4.219   2.238  17.083  2.9645 -0.5666 -0.9613
17554TIP3    H274078   4.269   2.307  17.208  1.4801  0.0783 -0.7005
17555TIP3   OH274079   5.270   6.482  17.170 -0.3270  0.4956 -0.5883
17555TIP3    H174080   5.198   6.444  17.120 -0.2279 -2.4911  1.2891
17555TIP3    H274081   5.253   6.456  17.261  1.9674  1.5627  0.2392
17556TIP3   OH274082   0.328   6.053   0.260  0.1919 -0.3454  0.4796
17556TIP3    H174083   0.387   6.010   0.199  0.1455 -0.6960  0.6724
17556TIP3    H274084   0.370   6.136   0.281 -1.5013  1.5636 -2.8770
17557TIP3   OH274085   0.337   0.098  14.827  0.7089 -0.2191  0.0657
17557TIP3    H174086   0.254   0.108  14.781  0.6667  0.3496  0.2633
17557TIP3    H274087   0.403   0.123  14.762  0.6763  0.1373  0.1700
17558TIP3   OH274088   2.245   2.738   0.544 -0.9059  0.3991  0.0569
17558TIP3    H174089   2.170   2.773   0.592 -0.2126  2.0334  0.0040
17558TIP3    H274090   2.256   2.797   0.470  0.2242 -0.0327 -0.1348
17559TIP3   OH274091   3.367   0.426  11.673 -0.2173  0.3463 -0.0383
17559TIP3    H174092   3.392   0.337  11.649 -1.8656 -0.4532  0.9947
17559TIP3    H274093   3.276   0.435  11.643 -0.0344  1.7421 -0.2627
17560TIP3   OH274094   0.748   6.076   0.918  0.2042 -0.5249 -0.5063
17560TIP3    H174095   0.738   6.094   0.825 -0.7923 -2.4156 -0.8010
17560TIP3    H274096   0.768   5.983   0.923  2.4324 -0.0621  1.0777
17561TIP3   OH274097   4.644   2.490   3.988 -0.0672  0.4550  0.3253
17561TIP3    H174098   4.556   2.499   3.951 -0.1815  3.2567  1.0452
17561TIP3    H274099   4.703   2.518   3.918  0.3703 -1.9501 -0.3492
17562TIP3   OH274100   0.802   0.425  12.236  0.1937 -0.1609  0.1591
17562TIP3    H174101   0.805   0.391  12.325 -1.3815 -0.9534 -0.0478
17562TIP3    H274102   0.717   0.394  12.201  0.3104  0.9935 -1.2573
17563TIP3   OH274103   1.530   0.588   4.430  0.0704 -0.1094  0.1018
17563TIP3    H174104   1.507   0.588   4.337  0.2177 -0.4475  0.0619
17563TIP3    H274105   1.545   0.496   4.450 -1.2368 -0.1850  0.7878
17564TIP3   OH274106   6.147   4.320  16.006 -0.0519  0.4353 -0.4902
17564TIP3    H174107   6.142   4.239  15.956  0.7634  0.5119 -0.7043
17564TIP3    H274108   6.067   4.368  15.982 -1.5528 -1.1194  1.1186
17565TIP3   OH274109   4.056   3.219  13.778 -0.4582  0.6898  0.4460
17565TIP3    H174110   4.015   3.303  13.801 -1.3207  0.4865 -0.2860
17565TIP3    H274111   3.984   3.166  13.744  0.6970  0.9471 -2.6597
17566TIP3   OH274112   0.465   0.546   3.275  0.6620 -0.2942  0.7584
17566TIP3    H174113   0.556   0.519   3.265  1.6693  2.2772  2.0000
17566TIP3    H274114   0.444   0.524   3.366 -0.5960 -2.3845  0.0383
17567TIP3   OH274115   3.032   5.159  16.270  0.6734  0.0015  0.1009
17567TIP3    H174116   3.058   5.092  16.333  1.0278  0.5743  0.5755
17567TIP3    H274117   2.937   5.161  16.274  0.6722 -0.3065  0.2519
17568TIP3   OH274118   5.864   1.758  12.038 -0.0003  0.7037  0.5544
17568TIP3    H174119   5.845   1.669  12.067  0.5989  1.2816  2.9444
17568TIP3    H274120   5.944   1.750  11.987 -0.8398 -0.3082 -0.6739
17569TIP3   OH274121   2.046   0.018  12.505 -0.0274  0.1774  0.0532
17569TIP3    H174122   2.037   0.051  12.595 -0.2211 -0.8706  0.4356
17569TIP3    H274123   2.137   0.035  12.482 -0.1984  1.2555  0.1075
17570TIP3   OH274124   0.917   4.112   0.597  0.5320 -1.1687  0.6574
17570TIP3    H174125   0.915   4.182   0.531 -2.2867 -2.8750 -1.3074
17570TIP3    H274126   0.839   4.128   0.651  0.5214 -2.0776  0.9298
17571TIP3   OH274127   0.809   2.579   2.168 -0.3309 -0.1902 -0.4729
17571TIP3    H174128   0.773   2.516   2.229  1.1922 -2.5083 -1.8053
17571TIP3    H274129   0.894   2.604   2.206 -1.3920  2.0805  0.6216
17572TIP3   OH274130   1.037   0.246   1.856 -0.2692 -0.3027  0.8675
17572TIP3    H174131   1.119   0.252   1.904  0.2058  0.7804 -0.0056
17572TIP3    H274132   0.973   0.289   1.913  0.9751  4.3618 -0.7291
17573TIP3   OH274133   6.265   6.707   5.878  0.4374 -0.0975  0.0267
17573TIP3    H174134   6.237   6.659   5.956 -2.0679 -0.0224 -0.7158
17573TIP3    H274135   6.302   6.788   5.912 -2.3662  0.8281  1.2479
17574TIP3   OH274136   2.414   1.894  14.152 -0.3138 -0.9068 -0.3499
17574TIP3    H174137   2.414   1.983  14.187 -0.9473 -1.2638  0.6021
17574TIP3    H274138   2.325   1.880  14.120 -0.1310 -1.0891 -0.7888
17575TIP3   OH274139   2.247   5.907   5.856  0.4940 -0.4078  0.7917
17575TIP3    H174140   2.280   5.996   5.861  0.6250 -0.4968  1.7298
17575TIP3    H274141   2.282   5.873   5.774  1.0325  0.1729  0.7725
17576TIP3   OH274142   2.456   1.079  13.112  0.6947 -0.2459  0.0566
17576TIP3    H174143   2.401   1.136  13.059 -0.0901  0.6946  1.7782
17576TIP3    H274144   2.423   0.991  13.096  0.7232 -0.0450 -1.2458
17577TIP3   OH274145   3.006   0.023   0.027 -0.5029 -0.2892  0.1256
17577TIP3    H174146   3.047   0.101   0.066 -0.6897  0.0013 -0.2548
17577TIP3    H274147   3.014   0.036  -0.067 -1.8029 -0.0380  0.0381
17578TIP3   OH274148   0.992   6.267   6.084 -0.0205 -0.0989 -0.0487
17578TIP3    H174149   0.952   6.349   6.114 -0.5313 -0.6016  0.6759
17578TIP3    H274150   1.082   6.272   6.114 -0.0147  0.2428 -0.1132
17579TIP3   OH274151   4.898   5.665   1.097  0.0268 -0.1139  0.3535
17579TIP3    H174152   4.937   5.581   1.124 -0.1969 -0.0117  1.0100
17579TIP3    H274153   4.830   5.640   1.034  0.3613 -0.3798  0.0914
17580TIP3   OH274154   5.572   4.505  12.656 -0.3438  0.5116 -0.3934
17580TIP3    H174155   5.631   4.467  12.722 -0.5246  0.9529  0.0267
17580TIP3    H274156   5.534   4.581  12.699 -1.5370  0.0001 -0.5168
17581TIP3   OH274157   2.019   3.519   3.895 -0.9876 -0.8612 -0.0465
17581TIP3    H174158   2.059   3.467   3.826  0.0090 -0.6376  0.3444
17581TIP3    H274159   2.078   3.510   3.970 -2.5342 -1.8768  1.1044
17582TIP3   OH274160   0.747   5.953  14.388  0.1187  0.2661  0.6695
17582TIP3    H174161   0.804   5.986  14.318 -0.6105 -0.6225 -0.3771
17582TIP3    H274162   0.745   6.024  14.453  0.0998  1.4858 -0.6158
17583TIP3   OH274163   1.092   6.701   5.018 -0.0381 -0.1235 -0.5361
17583TIP3    H174164   1.096   6.633   5.086  0.7559 -0.1438 -0.5916
17583TIP3    H274165   1.099   6.652   4.936  0.0047 -0.0145 -0.5966
17584TIP3   OH274166   4.627   1.515  11.203  0.3270  0.1269  0.6982
17584TIP3    H174167   4.543   1.560  11.194 -0.5932 -1.2672  1.8802
17584TIP3    H274168   4.637   1.467  11.120 -1.1769 -1.4671  1.3811
17585TIP3   OH274169   4.188   4.654  16.645 -0.0534 -0.1624 -0.6821
17585TIP3    H174170   4.231   4.736  16.618  2.0652 -0.9540  0.0827
17585TIP3    H274171   4.199   4.652  16.740 -2.2908 -0.1985 -0.3769
17586TIP3   OH274172   4.997   0.561   5.610 -0.3166  0.2441  0.6496
17586TIP3    H174173   5.066   0.497   5.593 -2.2328 -1.6138 -0.7378
17586TIP3    H274174   4.916   0.510   5.605 -1.8284  2.3739  1.9190
17587TIP3   OH274175   3.510   4.192  16.791  0.0266 -0.4603 -0.0355
17587TIP3    H174176   3.517   4.114  16.736  2.8450  0.3092 -0.9519
17587TIP3    H274177   3.588   4.188  16.847 -0.2558  1.2445  0.5200
17588TIP3   OH274178   0.988   4.862  12.029  0.4456  0.6306  0.0250
17588TIP3    H174179   1.084   4.861  12.036  0.3582  1.0072  2.1036
17588TIP3    H274180   0.966   4.781  11.985  1.6895 -0.0344  0.5667
17589TIP3   OH274181   2.227   5.083  10.654  0.6523  0.1938 -0.0629
17589TIP3    H174182   2.222   4.999  10.609 -2.2028 -1.2274  2.4982
17589TIP3    H274183   2.163   5.138  10.608 -2.2605 -1.2545  1.8910
17590TIP3   OH274184   0.372   3.694   1.956  0.1495  0.3190 -0.0217
17590TIP3    H174185   0.365   3.686   2.051  1.9578 -0.4493  0.0786
17590TIP3    H274186   0.348   3.785   1.938 -2.4439 -0.0936  0.8759
17591TIP3   OH274187   3.345   5.114   3.545  0.3450  0.0177  0.0562
17591TIP3    H174188   3.300   5.175   3.487 -0.8074 -2.1324 -1.4714
17591TIP3    H274189   3.344   5.031   3.498  0.5764 -1.5403  2.5897
17592TIP3   OH274190   4.087   0.074   1.497  0.4598 -0.1089  0.1864
17592TIP3    H174191   4.026   0.027   1.555  1.6289 -1.8561  0.0654
17592TIP3    H274192   4.032   0.101   1.423 -0.4402 -0.5117  0.6820
17593TIP3   OH274193   2.026   5.415  11.804 -0.2411  0.1389 -0.0486
17593TIP3    H174194   1.993   5.505  11.809 -1.6432 -0.3302 -0.3448
17593TIP3    H274195   1.979   5.376  11.730  1.4448 -0.4243 -0.8854
17594TIP3   OH274196   1.311   0.527  11.265  0.4010 -0.2715 -0.0794
17594TIP3    H174197   1.232   0.568  11.230 -0.0686  0.3697  1.6335
17594TIP3    H274198   1.382   0.583  11.236  0.0995 -0.1507 -0.5966
17595TIP3   OH274199   1.338   1.013  12.391 -0.8652 -0.0062  0.1762
17595TIP3    H174200   1.428   0.989  12.369 -0.7561 -1.2557  1.7410
17595TIP3    H274201   1.301   1.046  12.310  0.4881 -1.1059 -0.9420
17596TIP3   OH274202   2.600   3.622  15.766  0.4271 -0.2148  0.8934
17596TIP3    H174203   2.675   3.581  15.810  0.8607  0.3512  0.6854
17596TIP3    H274204   2.583   3.565  15.691  0.7337 -0.2726  0.8638
17597TIP3   OH274205   3.048   0.826   5.255  0.5339  0.1744  0.0917
17597TIP3    H174206   3.069   0.844   5.346  2.1434 -0.5295 -0.1068
17597TIP3    H274207   2.953   0.810   5.255  0.4258  0.6789  1.5358
17598TIP3   OH274208   3.719   0.444   0.383 -0.1667 -0.0847 -0.9743
17598TIP3    H174209   3.708   0.530   0.342  0.6645 -0.1321 -1.3169
17598TIP3    H274210   3.788   0.456   0.447  0.9156 -0.7839 -1.9596
17599TIP3   OH274211   0.919   0.571   2.521  0.1207 -1.0415 -0.1531
17599TIP3    H174212   0.901   0.659   2.489 -0.5779 -1.7517 -1.7907
17599TIP3    H274213   0.962   0.585   2.606 -0.9280  0.8466  0.1265
17600TIP3   OH274214   5.172   1.195   0.630  0.0117  0.0436  0.1729
17600TIP3    H174215   5.244   1.231   0.682  0.4473  0.9183 -0.9790
17600TIP3    H274216   5.093   1.226   0.673  0.3799  1.9002 -0.4153
17601TIP3   OH274217   2.790   4.587   5.197 -0.4028  0.0445 -0.1706
17601TIP3    H174218   2.715   4.537   5.232 -0.4117  0.1988  0.0337
17601TIP3    H274219   2.754   4.674   5.181  0.1670  0.6787  1.6927
17602TIP3   OH274220   1.184   2.948  13.528  0.3650 -0.0327 -0.3191
17602TIP3    H174221   1.138   3.023  13.565 -1.0916 -0.3958 -1.2830
17602TIP3    H274222   1.140   2.932  13.444  0.4162 -2.1520  0.0019
17603TIP3   OH274223   3.244   2.289  16.054  0.3979  0.1585  0.1684
17603TIP3    H174224   3.212   2.220  16.112  2.7383 -0.4695  0.8061
17603TIP3    H274225   3.251   2.367  16.110 -0.0200  0.3107  0.0152
17604TIP3   OH274226   6.398   3.248   0.618  0.1412  0.1733  0.0864
17604TIP3    H174227   6.324   3.254   0.680  0.0886  1.4640 -0.0917
17604TIP3    H274228   6.416   3.338   0.593 -1.1203 -0.3657 -3.3259
17605TIP3   OH274229   3.056   1.146   5.912 -0.4353 -0.2374 -0.4478
17605TIP3    H174230   2.962   1.143   5.932 -0.1237  2.1722  1.9274
17605TIP3    H274231   3.065   1.221   5.853 -0.0150 -0.5483 -0.7795
17606TIP3   OH274232   0.330   0.285   1.253 -0.2129  0.1066 -0.2340
17606TIP3    H174233   0.323   0.253   1.343  3.4636  0.8243  0.4874
17606TIP3    H274234   0.336   0.380   1.263  1.8536  0.1074 -0.9862
17607TIP3   OH274235   6.419   1.666   5.203  0.2063  0.0879 -0.3280
17607TIP3    H174236   6.342   1.645   5.257  1.0535  1.3500  1.4422
17607TIP3    H274237   6.423   1.761   5.203  0.5737  0.1128 -2.2239
17608TIP3   OH274238   0.182   1.842   1.590  0.0428 -0.0399 -0.1126
17608TIP3    H174239   0.135   1.843   1.673  1.0197  0.9159  0.4624
17608TIP3    H274240   0.156   1.923   1.546 -0.1673 -0.3508 -0.5759
17609TIP3   OH274241   5.093   2.641  13.615  0.2413 -0.3576  1.2791
17609TIP3    H174242   5.173   2.594  13.641  0.5202  0.0108  1.0862
17609TIP3    H274243   5.124   2.720  13.572 -0.1849 -1.4829 -1.2578
17610TIP3   OH274244   2.198   0.379  11.536 -0.3333 -0.0183  0.0057
17610TIP3    H174245   2.283   0.338  11.521 -0.4828  0.0988 -1.2328
17610TIP3    H274246   2.135   0.309  11.520 -0.4959 -0.0264  0.6391
17611TIP3   OH274247   2.645   3.717   1.021 -0.0568 -0.7371 -0.7121
17611TIP3    H174248   2.678   3.807   1.031 -0.8485 -0.4873 -0.2867
17611TIP3    H274249   2.709   3.664   1.069 -0.3456 -0.2384  0.2635
17612TIP3   OH274250   2.405   5.423  12.732  0.6026  0.2834  0.0922
17612TIP3    H174251   2.323   5.440  12.687  0.7716  2.6778  0.5054
17612TIP3    H274252   2.471   5.466  12.677  1.2326  0.4007  0.9195
17613TIP3   OH274253   2.341   5.365   3.246 -0.1519  0.8417 -0.1040
17613TIP3    H174254   2.361   5.458   3.241 -5.2532  2.1804 -0.0802
17613TIP3    H274255   2.294   5.354   3.328 -0.0760 -1.7409 -0.3159
17614TIP3   OH274256   0.742   1.014   0.912  0.0517  0.6445 -0.0386
17614TIP3    H174257   0.785   1.087   0.957 -1.4830  1.5119  0.0695
17614TIP3    H274258   0.749   1.036   0.819 -0.6921  1.1141  0.0080
17615TIP3   OH274259   4.129   5.731  11.892 -0.0626 -0.4764  0.6215
17615TIP3    H174260   4.119   5.802  11.954  1.1465  0.0652  0.2344
17615TIP3    H274261   4.117   5.772  11.806 -0.0967 -0.8822  0.4288
17616TIP3   OH274262   6.067   5.428  11.470  0.6228 -0.3940 -0.1557
17616TIP3    H174263   6.107   5.347  11.437 -0.7322 -1.5069  0.8159
17616TIP3    H274264   5.983   5.434  11.423  0.6746  0.4071 -0.1592
17617TIP3   OH274265   5.909   0.923  15.587 -0.3327 -0.2836  0.3286
17617TIP3    H174266   5.868   0.950  15.669 -1.2436 -0.6980  0.0217
17617TIP3    H274267   5.882   0.832  15.576 -0.9650  0.0301 -0.8809
17618TIP3   OH274268   2.502   0.738   2.780  0.2749 -0.3125 -0.1017
17618TIP3    H174269   2.460   0.653   2.768 -1.1534  0.1409  1.3658
17618TIP3    H274270   2.453   0.797   2.723  1.4308 -0.4900 -1.3172
17619TIP3   OH274271   2.689   5.866  12.167 -0.8041  0.4785  0.1378
17619TIP3    H174272   2.702   5.937  12.230  0.8098 -0.8202  1.3631
17619TIP3    H274273   2.757   5.880  12.101 -1.4567  0.9044 -0.4637
17620TIP3   OH274274   1.049   4.835   0.476 -0.3456  0.3417 -0.0280
17620TIP3    H174275   1.001   4.817   0.396 -2.9210 -0.6548  1.6075
17620TIP3    H274276   0.997   4.903   0.520  1.3217  1.2920  0.5485
17621TIP3   OH274277   6.161   0.095   3.578  0.0840 -0.2696 -0.6021
17621TIP3    H174278   6.130   0.042   3.504  0.5501 -1.3528 -0.0429
17621TIP3    H274279   6.162   0.035   3.652 -0.4592  0.8243  0.3267
17622TIP3   OH274280   3.688   4.481  12.476  0.3865  0.6866  0.2153
17622TIP3    H174281   3.737   4.545  12.527  3.3020 -1.6759  0.6923
17622TIP3    H274282   3.728   4.485  12.389  0.3273 -0.1433  0.1384
17623TIP3   OH274283   3.387   4.837   1.087 -0.6287 -0.1176  0.0706
17623TIP3    H174284   3.367   4.787   1.166  0.0326  0.2662  0.4910
17623TIP3    H274285   3.443   4.909   1.117  0.2499 -0.3914 -0.8469
17624TIP3   OH274286   1.474   6.018  14.773 -0.3261 -0.2111 -0.1397
17624TIP3    H174287   1.521   6.087  14.727  0.4566 -0.7963 -0.2428
17624TIP3    H274288   1.419   6.064  14.837 -0.0516  0.5139 -0.4209
17625TIP3   OH274289   0.512   2.444  16.301  0.2760  0.2202 -0.0814
17625TIP3    H174290   0.451   2.509  16.335  0.3716  0.2371  0.0576
17625TIP3    H274291   0.541   2.395  16.379 -1.1568 -1.1749 -0.3727
17626TIP3   OH274292   0.885   6.093  11.525  0.6577  0.2240 -0.1736
17626TIP3    H174293   0.927   6.058  11.603  1.0528  1.1945  0.0620
17626TIP3    H274294   0.822   6.025  11.499  1.2044 -0.5279  0.4146
17627TIP3   OH274295   4.212   2.602  17.116 -0.0526 -0.1226 -0.0257
17627TIP3    H174296   4.216   2.507  17.101 -0.0988 -0.1711  0.2621
17627TIP3    H274297   4.181   2.610  17.206  0.3560  0.1582  0.0909
17628TIP3   OH274298   1.212   5.876  12.771 -0.1442  0.0864  0.2593
17628TIP3    H174299   1.297   5.913  12.750 -0.5057  0.9543  0.2837
17628TIP3    H274300   1.231   5.805  12.831  0.5080  0.7675  0.8774
17629TIP3   OH274301   4.169   4.238  16.950  0.1670 -0.3999 -0.3595
17629TIP3    H174302   4.255   4.269  16.977  0.4064 -1.0310 -0.3950
17629TIP3    H274303   4.121   4.224  17.032 -0.3691  1.2048 -0.3533
17630TIP3   OH274304   1.303   0.566  14.654  0.1161 -0.0115 -0.0075
17630TIP3    H174305   1.390   0.576  14.692  0.2183  1.5867 -0.6128
17630TIP3    H274306   1.311   0.489  14.597  0.7406 -0.6817  0.9469
17631TIP3   OH274307   5.892   0.384   1.478 -0.1817  0.7345 -0.1064
17631TIP3    H174308   5.810   0.345   1.447  0.0246 -0.8301  1.1745
17631TIP3    H274309   5.960   0.339   1.427 -0.0614  1.6371 -0.7738
17632TIP3   OH274310   5.597   0.667  14.763  0.5285  0.3114 -0.2716
17632TIP3    H174311   5.686   0.645  14.734  0.3829 -1.1736  0.3163
17632TIP3    H274312   5.607   0.683  14.857  0.0131 -0.8875 -0.0040
17633TIP3   OH274313   2.686   6.374  15.535  0.3639 -0.2608 -0.2460
17633TIP3    H174314   2.610   6.353  15.479 -0.2064  0.8073  0.1074
17633TIP3    H274315   2.719   6.288  15.562 -0.7510 -0.7507 -0.3660
17634TIP3   OH274316   5.726   4.593  15.845  0.0713  0.0639  0.4819
17634TIP3    H174317   5.759   4.676  15.881  1.1436 -0.6529  1.1953
17634TIP3    H274318   5.733   4.604  15.750 -0.2432  0.9631  0.5515
17635TIP3   OH274319   2.581   6.468  13.553 -0.3314 -0.2242  0.4805
17635TIP3    H174320   2.585   6.506  13.641  0.8120  0.0175  0.3423
17635TIP3    H274321   2.629   6.531  13.498 -0.2559 -0.8176 -0.1398
17636TIP3   OH274322   6.115   4.164   3.385 -0.1295  0.0772 -0.6434
17636TIP3    H174323   6.119   4.093   3.321  1.4668 -1.3307  0.9265
17636TIP3    H274324   6.207   4.181   3.407 -0.6206  0.8280  0.9299
17637TIP3   OH274325   6.013   1.449   1.834  0.3578  0.3892 -0.4091
17637TIP3    H174326   5.953   1.375   1.840 -2.2813  2.4107  0.5427
17637TIP3    H274327   6.019   1.482   1.923 -0.3050  2.5108 -1.0687
17638TIP3   OH274328   5.755   2.872   5.081 -0.1452 -0.7733  0.5408
17638TIP3    H174329   5.674   2.880   5.132 -0.8553 -0.2668 -0.6106
17638TIP3    H274330   5.803   2.800   5.122 -1.8384 -2.0523  0.3887
17639TIP3   OH274331   0.257   2.367  10.630 -0.3629  0.2512  0.2556
17639TIP3    H174332   0.264   2.274  10.606 -1.1307 -0.2681  1.8446
17639TIP3    H274333   0.323   2.379  10.698 -1.6671  0.2606  1.5907
17640TIP3   OH274334   6.648   2.056  16.592 -0.8466  0.7717 -0.1508
17640TIP3    H174335   6.695   2.085  16.515 -0.5094  1.2662  0.2344
17640TIP3    H274336   6.612   1.971  16.568 -2.3479  1.7263 -1.5212
17641TIP3   OH274337   1.956   1.739  16.914  0.1867  0.0861 -0.1477
17641TIP3    H174338   1.910   1.822  16.909 -0.2359 -0.2043 -1.9195
17641TIP3    H274339   1.985   1.723  16.824  2.0867 -0.6785  0.5389
17642TIP3   OH274340   0.003   6.269   4.982 -0.5221  0.0891  0.5829
17642TIP3    H174341   0.082   6.323   4.981 -0.9239  0.6926 -0.7523
17642TIP3    H274342  -0.001   6.234   5.071  2.0583 -1.1800  0.3080
17643TIP3   OH274343   2.661   1.123  11.958  0.3471  0.5190  0.4567
17643TIP3    H174344   2.613   1.056  12.006 -0.4353  1.6813  1.3317
17643TIP3    H274345   2.632   1.114  11.868 -1.7998  1.3816  1.0019
17644TIP3   OH274346   1.220   0.588   3.766 -0.3218 -0.5277  0.8772
17644TIP3    H174347   1.169   0.519   3.723  0.7693  0.4503 -2.2871
17644TIP3    H274348   1.310   0.555   3.766 -0.2204 -0.2953  2.0783
17645TIP3   OH274349   5.239   4.967  11.919  1.0032  0.3660 -0.0852
17645TIP3    H174350   5.166   4.910  11.892  0.4669  1.5912 -1.3618
17645TIP3    H274351   5.241   4.959  12.014 -1.0428  0.5538  0.0272
17646TIP3   OH274352   1.081   4.612  13.542  0.1576 -0.0953  0.2542
17646TIP3    H174353   1.094   4.662  13.622  0.5783  0.0017  0.1327
17646TIP3    H274354   1.141   4.538  13.551 -0.7455 -0.7975  0.6103
17647TIP3   OH274355   0.329   3.921   1.785  0.6996  0.4545 -0.6527
17647TIP3    H174356   0.399   3.894   1.725  1.4623 -0.2457  0.4919
17647TIP3    H274357   0.269   3.972   1.732  0.8595 -0.9078 -2.2260
17648TIP3   OH274358   5.137   0.860  15.705  0.3695  0.3189 -0.1859
17648TIP3    H174359   5.070   0.922  15.732 -0.3751 -1.0674  1.2817
17648TIP3    H274360   5.213   0.880  15.761  0.3564  0.3149 -0.1669
17649TIP3   OH274361   5.485   0.128  13.517 -0.9820 -0.2245  0.2331
17649TIP3    H174362   5.477   0.112  13.423 -0.4562 -0.7804  0.2823
17649TIP3    H274363   5.439   0.211  13.530  0.3116  0.7106 -0.7899
17650TIP3   OH274364   2.693   6.708  17.131  0.4862 -0.1743  0.4634
17650TIP3    H174365   2.785   6.733  17.143 -0.3460  2.7895  1.4388
17650TIP3    H274366   2.673   6.734  17.041  0.6036 -0.9836  0.1907
17651TIP3   OH274367   2.790   3.525  13.962 -0.3004 -0.2005 -0.4820
17651TIP3    H174368   2.854   3.591  13.989 -0.4464 -0.5654  0.8104
17651TIP3    H274369   2.718   3.535  14.024 -0.8673 -0.7578 -1.0408
17652TIP3   OH274370   0.625   0.462   1.052 -0.1793  0.0718 -0.5257
17652TIP3    H174371   0.612   0.375   1.091 -3.3629  0.5041 -0.3407
17652TIP3    H274372   0.719   0.468   1.039  0.4935 -2.2319  2.1703
17653TIP3   OH274373   1.306   1.116  16.650  0.5241  0.2809  0.4846
17653TIP3    H174374   1.231   1.070  16.611  0.1980  1.4794 -0.3752
17653TIP3    H274375   1.289   1.113  16.744 -0.7467  0.7413  0.2985
17654TIP3   OH274376   5.223   6.077  12.433 -0.2482  0.1265  0.4035
17654TIP3    H174377   5.278   6.108  12.505  1.7617  1.1221 -1.4412
17654TIP3    H274378   5.168   6.151  12.411  0.1933  0.3432 -0.0058
17655TIP3   OH274379   2.829   6.315  13.113 -0.4012 -0.0676  0.1678
17655TIP3    H174380   2.915   6.340  13.146  0.4826  0.7083 -2.4252
17655TIP3    H274381   2.789   6.398  13.085 -2.2015 -0.3628  1.6144
17656TIP3   OH274382   4.450   6.401   6.309 -0.2467  0.4921 -0.1089
17656TIP3    H174383   4.354   6.410   6.308 -0.2332  1.0542  1.2296
17656TIP3    H274384   4.475   6.423   6.399  1.1823  0.6738 -0.5288
17657TIP3   OH274385   1.319   6.332  14.653  0.2501  0.0576 -0.2829
17657TIP3    H174386   1.300   6.313  14.561  0.6209 -0.8739 -0.1789
17657TIP3    H274387   1.383   6.404  14.650  0.0944  0.1791 -0.7413
17658TIP3   OH274388   6.478   6.302  13.808  0.1670  0.0373 -0.0639
17658TIP3    H174389   6.488   6.216  13.849  0.8793  0.2912  0.3044
17658TIP3    H274390   6.566   6.327  13.782  0.1440  1.1674  0.8775
17659TIP3   OH274391   3.772   2.795   5.158 -0.0126  0.0488  0.1717
17659TIP3    H174392   3.754   2.866   5.220  0.1365  0.5843 -0.3934
17659TIP3    H274393   3.834   2.832   5.095 -0.4498 -0.3702 -0.5220
17660TIP3   OH274394   3.534   5.151  13.307 -0.4908  0.6484 -0.2782
17660TIP3    H174395   3.459   5.114  13.354 -1.1715  1.8391 -0.3863
17660TIP3    H274396   3.574   5.076  13.264 -1.2710 -0.1044  0.2578
17661TIP3   OH274397   2.775   3.194  17.079  0.1603  0.1450  0.1925
17661TIP3    H174398   2.842   3.170  17.015 -0.7581 -0.4121 -0.5878
17661TIP3    H274399   2.785   3.288  17.090 -0.8337  0.6053 -2.2022
17662TIP3   OH274400   3.318   0.148  15.797 -0.0193 -0.0258  0.0523
17662TIP3    H174401   3.351   0.223  15.847 -1.2922  0.4441  0.2129
17662TIP3    H274402   3.280   0.090  15.864  0.3991 -0.5325 -0.1398
17663TIP3   OH274403   5.373   2.907   2.823 -0.3865 -0.6578  0.5571
17663TIP3    H174404   5.349   2.982   2.768 -0.4743  0.4606  2.0550
17663TIP3    H274405   5.469   2.907   2.823 -0.3864 -0.4748  0.6479
17664TIP3   OH274406   0.822   6.664   0.708  0.0018 -0.0123  0.2573
17664TIP3    H174407   0.782   6.581   0.683  1.3345 -0.5125 -0.2413
17664TIP3    H274408   0.825   6.661   0.804  2.4169 -1.7252  0.2067
17665TIP3   OH274409   2.399   1.591   4.155 -0.4805  0.5245 -0.1041
17665TIP3    H174410   2.403   1.572   4.061  1.1296 -0.4892  0.1338
17665TIP3    H274411   2.491   1.590   4.184 -0.9945  0.0407  1.6309
17666TIP3   OH274412   4.014   5.499   2.692 -0.1662 -0.9499 -0.1274
17666TIP3    H174413   4.090   5.554   2.677  0.4615 -2.2104 -1.8938
17666TIP3    H274414   3.972   5.490   2.606 -0.2176 -3.2097  0.0584
17667TIP3   OH274415   1.196   0.359  16.078  0.5130 -0.0893 -0.1158
17667TIP3    H174416   1.286   0.391  16.077  2.4392 -4.7313 -0.2491
17667TIP3    H274417   1.193   0.296  16.150 -2.0634 -1.4027 -1.2243
17668TIP3   OH274418   4.111   5.353  11.067 -0.5317  0.2079 -0.1612
17668TIP3    H174419   4.141   5.354  10.976 -0.4874  0.2878 -0.1470
17668TIP3    H274420   4.058   5.432  11.075  0.9118  1.1842  0.3523
17669TIP3   OH274421   1.466   1.753   5.675  0.5921  0.0850  0.1238
17669TIP3    H174422   1.428   1.817   5.736  0.9891  0.1961  0.2571
17669TIP3    H274423   1.559   1.774   5.674  0.6974 -0.3884  0.0385
17670TIP3   OH274424   6.757   0.004   1.501  0.5529  0.1139  0.3978
17670TIP3    H174425   6.696   0.076   1.483 -0.7168 -0.0376  3.5318
17670TIP3    H274426   6.711  -0.075   1.472  1.7133  0.3618 -2.4990
17671TIP3   OH274427   3.100   6.546  11.411 -0.1048  0.4287  0.5670
17671TIP3    H174428   3.086   6.497  11.329 -1.5014  3.9913 -1.5386
17671TIP3    H274429   3.056   6.493  11.478  1.1294 -2.6692 -0.8560
17672TIP3   OH274430   0.918   2.330   2.383 -0.2754 -0.8460  0.5826
17672TIP3    H174431   1.007   2.316   2.417  0.3844 -0.4376 -0.9200
17672TIP3    H274432   0.880   2.396   2.441  1.4214  1.0856 -0.3855
17673TIP3   OH274433   6.210   3.203   0.816  0.0260 -0.1001  0.2699
17673TIP3    H174434   6.215   3.107   0.821  0.2096 -0.0664  0.8874
17673TIP3    H274435   6.122   3.221   0.784 -0.6816 -0.4499  1.9162
17674TIP3   OH274436   0.465   6.382   5.483 -0.7907 -0.0236 -0.1612
17674TIP3    H174437   0.504   6.460   5.522 -0.1878 -0.3902 -0.0183
17674TIP3    H274438   0.420   6.338   5.555  1.2850 -1.3039  0.4205
17675TIP3   OH274439   5.027   5.835  11.162  0.6660  0.2327  0.1948
17675TIP3    H174440   5.070   5.792  11.237  0.3793 -1.3343 -0.5022
17675TIP3    H274441   5.092   5.830  11.092  0.4044  0.4565 -0.0617
17676TIP3   OH274442   2.514   6.161  13.334  0.1305 -0.1344  0.4108
17676TIP3    H174443   2.592   6.214  13.353 -0.2117  0.7828 -0.6337
17676TIP3    H274444   2.463   6.165  13.416  0.5261  0.4360  0.6399
17677TIP3   OH274445   6.646   2.753   1.295 -0.4169 -0.4466 -0.4467
17677TIP3    H174446   6.667   2.660   1.285 -0.2346 -0.3601 -0.8672
17677TIP3    H274447   6.582   2.755   1.366  0.9911 -0.6985  0.8793
17678TIP3   OH274448   6.105   6.345   1.952  0.5598 -0.2622 -0.2937
17678TIP3    H174449   6.037   6.354   1.885  0.9508  2.4003 -0.4583
17678TIP3    H274450   6.085   6.263   1.997 -1.4304 -0.6516 -1.7702
17679TIP3   OH274451   4.134   2.706  13.654  0.4750 -0.3753 -0.2474
17679TIP3    H174452   4.088   2.636  13.702  0.5209 -1.1354 -1.2633
17679TIP3    H274453   4.138   2.779  13.716 -0.1630 -1.0461  0.6217
17680TIP3   OH274454   3.037   0.177   4.058 -0.5817 -0.2022  0.0614
17680TIP3    H174455   2.984   0.098   4.066 -0.4349 -0.1964  1.1978
17680TIP3    H274456   3.127   0.146   4.051 -0.5794 -0.1509 -0.1585
17681TIP3   OH274457   4.791   5.774   3.176 -0.4176 -0.0792  0.4501
17681TIP3    H174458   4.840   5.767   3.258 -0.4894 -2.0624  0.3793
17681TIP3    H274459   4.709   5.728   3.193 -1.0411  0.7152 -0.3152
17682TIP3   OH274460   3.549   5.318   0.744 -0.5917 -0.0389  0.1040
17682TIP3    H174461   3.610   5.306   0.671 -0.6022  0.0429  0.0815
17682TIP3    H274462   3.549   5.233   0.789 -0.6575 -0.1183 -0.0457
17683TIP3   OH274463   6.395   1.966   4.453 -0.0873 -0.2836 -0.0592
17683TIP3    H174464   6.486   1.941   4.465  0.4597  1.8277  0.6072
17683TIP3    H274465   6.399   2.055   4.419 -1.8713 -1.3177 -3.3672
17684TIP3   OH274466   6.705   3.448  13.583  0.2742 -0.2042  0.0888
17684TIP3    H174467   6.610   3.459  13.584  0.3345  0.6993 -1.5389
17684TIP3    H274468   6.719   3.376  13.521  0.6786  0.1598 -0.2444
17685TIP3   OH274469   3.674   0.864   4.948 -0.2149 -0.0314  0.4720
17685TIP3    H174470   3.750   0.832   4.995 -0.6757 -2.8890 -0.5406
17685TIP3    H274471   3.649   0.792   4.890  0.3335  3.0985 -4.2278
17686TIP3   OH274472   1.949   4.029  15.062  0.7341 -0.0630  0.4210
17686TIP3    H174473   1.860   4.035  15.029  0.7269 -1.1251  0.1858
17686TIP3    H274474   1.968   4.115  15.099  0.0652  0.5677 -0.6598
17687TIP3   OH274475   6.624   3.244  15.806  0.0347  0.4210  0.2010
17687TIP3    H174476   6.566   3.170  15.823 -0.0848  0.2686 -0.7825
17687TIP3    H274477   6.566   3.320  15.805  0.4724  0.9311  3.6549
17688TIP3   OH274478   4.217   5.345   6.376  0.4674 -0.3667  0.1298
17688TIP3    H174479   4.217   5.378   6.466 -0.5608  0.4693 -0.1640
17688TIP3    H274480   4.222   5.250   6.386  0.2638 -0.2873  1.0735
17689TIP3   OH274481   0.786   1.623   3.121 -0.0543 -0.9663  0.0989
17689TIP3    H174482   0.739   1.540   3.116 -1.6364 -0.4500  3.3871
17689TIP3    H274483   0.873   1.600   3.155 -0.5555 -1.2904  1.1931
17690TIP3   OH274484   1.194   5.113  12.527 -0.0256  0.3984  0.7202
17690TIP3    H174485   1.109   5.113  12.483  0.4556 -2.3781 -0.4187
17690TIP3    H274486   1.178   5.072  12.611  0.4017 -1.8435 -0.2165
17691TIP3   OH274487   2.300   3.839   2.870  0.2436 -0.5025  0.6842
17691TIP3    H174488   2.336   3.753   2.890 -0.3026 -1.1008 -0.7256
17691TIP3    H274489   2.208   3.822   2.851  0.1175  0.4019  0.4653
17692TIP3   OH274490   4.201   5.635   4.527 -0.1659 -0.7155  0.4303
17692TIP3    H174491   4.141   5.710   4.530  0.6924  0.0191 -0.1493
17692TIP3    H274492   4.288   5.674   4.537  0.3587 -1.5308 -0.7286
17693TIP3   OH274493   0.312   2.899  12.882 -0.1421  0.1968 -0.4378
17693TIP3    H174494   0.357   2.956  12.820  1.0424  1.6469  1.6084
17693TIP3    H274495   0.382   2.861  12.935 -1.1053 -0.8250  0.1633
17694TIP3   OH274496   2.444   1.316  11.999  0.0873  0.0427  0.4605
17694TIP3    H174497   2.373   1.313  11.935  1.0700  0.4291 -0.6826
17694TIP3    H274498   2.516   1.269  11.957  0.6945  0.1314  1.3683
17695TIP3   OH274499   1.701   0.418  16.256 -0.4122 -0.3597 -0.3812
17695TIP3    H174500   1.664   0.365  16.327 -1.5712 -0.6429 -1.1701
17695TIP3    H274501   1.719   0.503  16.296 -1.6918 -0.2997  0.1048
17696TIP3   OH274502   5.165   1.045  13.861  0.3135 -0.0539 -0.0739
17696TIP3    H174503   5.258   1.045  13.839  0.1398  0.7113 -0.8860
17696TIP3    H274504   5.133   1.129  13.830 -1.5053 -1.8347 -3.7338
17697TIP3   OH274505   6.559   1.158  14.125 -0.3691  0.0302 -0.4194
17697TIP3    H174506   6.594   1.157  14.036  1.5169 -1.2468  0.2785
17697TIP3    H274507   6.512   1.075  14.133 -2.9957  1.3506 -1.0594
17698TIP3   OH274508   6.001   0.697   4.599  0.3067 -0.3443 -0.0549
17698TIP3    H174509   6.043   0.680   4.683 -1.5684 -0.8755  0.8476
17698TIP3    H274510   5.907   0.689   4.618 -0.1467 -1.0951 -2.3270
17699TIP3   OH274511   3.200   0.500  14.428 -0.7424 -0.1211  0.4585
17699TIP3    H174512   3.169   0.417  14.392 -1.6591  0.1048  0.6941
17699TIP3    H274513   3.288   0.510  14.393 -0.5790 -1.2444  0.5125
17700TIP3   OH274514   2.267   2.730  13.702  0.4180  0.0139 -0.1514
17700TIP3    H174515   2.308   2.699  13.622  0.7419  0.1926 -0.0557
17700TIP3    H274516   2.190   2.778  13.673  0.8214  0.5254 -0.3850
17701TIP3   OH274517   5.305   2.603   1.094 -0.8009 -0.2118 -0.5653
17701TIP3    H174518   5.311   2.558   1.010 -1.3829 -1.9026  0.2557
17701TIP3    H274519   5.381   2.573   1.143 -0.2074  1.1321 -0.6386
17702TIP3   OH274520   6.084   0.488  10.898 -0.0537 -0.2051 -0.0958
17702TIP3    H174521   6.061   0.396  10.884 -0.2986 -0.5843  2.3524
17702TIP3    H274522   6.178   0.491  10.881 -0.1864 -0.7369 -0.9581
17703TIP3   OH274523   6.764   4.227  11.537 -0.0370  0.0211  0.2838
17703TIP3    H174524   6.816   4.220  11.458  1.9730  1.2146  1.4102
17703TIP3    H274525   6.684   4.272  11.509 -1.1124 -2.8213 -1.6835
17704TIP3   OH274526   2.555   3.535  11.244  0.7179 -0.3522 -0.4875
17704TIP3    H174527   2.634   3.571  11.284  0.5276 -1.3471  0.8605
17704TIP3    H274528   2.529   3.600  11.179  1.2996  1.1571  0.7247
17705TIP3   OH274529   1.053   0.143  14.197  0.0375  0.5880  0.0985
17705TIP3    H174530   1.134   0.142  14.146 -0.4479  1.2138 -0.7045
17705TIP3    H274531   1.054   0.228  14.242 -0.3078  0.7123 -0.1295
17706TIP3   OH274532   6.596   0.907   1.771  0.3605 -0.2680  0.0280
17706TIP3    H174533   6.655   0.903   1.846  0.4874 -0.1044 -0.0628
17706TIP3    H274534   6.648   0.877   1.697 -0.1125 -1.6069  0.2068
17707TIP3   OH274535   4.591   1.831   0.824 -0.0675  0.2891 -0.0116
17707TIP3    H174536   4.537   1.792   0.893  2.1049 -2.1672  0.4544
17707TIP3    H274537   4.681   1.814   0.851  0.9394  2.2563 -1.8408
17708TIP3   OH274538   1.810   3.432   3.395  0.1470  0.4271 -0.6516
17708TIP3    H174539   1.805   3.434   3.490 -0.7110  0.5831 -0.6908
17708TIP3    H274540   1.724   3.463   3.365  0.5787  0.8850 -1.4790
17709TIP3   OH274541   1.123   3.640   3.076 -0.5048 -0.4393 -0.3698
17709TIP3    H174542   1.192   3.608   3.018  0.6401  1.2335 -0.0042
17709TIP3    H274543   1.045   3.644   3.021 -0.0913 -1.4011 -1.0586
17710TIP3   OH274544   2.999   5.991   6.692 -0.5361  0.1105  0.5205
17710TIP3    H174545   2.905   6.009   6.700 -0.5575  0.1604  0.1932
17710TIP3    H274546   3.039   6.077   6.687 -0.5925  0.0953 -0.5571
17711TIP3   OH274547   0.895   0.548   0.226 -0.0652  0.4241  0.8122
17711TIP3    H174548   0.980   0.589   0.241 -0.6343  1.4524  1.3613
17711TIP3    H274549   0.878   0.498   0.307 -0.5074  1.1929  1.2030
17712TIP3   OH274550   1.848   3.287   4.571  0.2596  0.2775 -0.0741
17712TIP3    H174551   1.829   3.201   4.535  2.0178 -0.5917  0.9260
17712TIP3    H274552   1.863   3.343   4.495 -0.7631 -0.3113 -0.7263
17713TIP3   OH274553   4.895   0.006  13.987 -0.0390  0.3016 -0.5522
17713TIP3    H174554   4.818   0.030  13.934 -0.0286 -0.1690 -0.7882
17713TIP3    H274555   4.862  -0.060  14.048  0.1426  0.2098 -0.5530
17714TIP3   OH274556   0.859   2.393  14.782  0.5340  0.2164  0.1459
17714TIP3    H174557   0.833   2.469  14.730  0.2463  0.8746  1.2221
17714TIP3    H274558   0.955   2.396  14.782  0.5814 -0.4696 -1.2973
17715TIP3   OH274559   1.479   2.831   1.726 -0.0009  0.4581  0.7942
17715TIP3    H174560   1.443   2.864   1.643 -0.5644 -0.7240  0.5549
17715TIP3    H274561   1.466   2.904   1.787 -2.8864  0.1281  0.7194
17716TIP3   OH274562   0.584   2.836  13.124 -0.3802  0.0756  0.2967
17716TIP3    H174563   0.679   2.828  13.132 -0.5096 -2.4953  0.2302
17716TIP3    H274564   0.553   2.848  13.213  0.0280  2.1629  0.2073
17717TIP3   OH274565   2.498   0.204  13.167  0.3357 -0.0177  0.2509
17717TIP3    H174566   2.497   0.209  13.071  1.2347 -3.7342 -0.1070
17717TIP3    H274567   2.591   0.202  13.190  0.1343  1.4776  1.3226
17718TIP3   OH274568   4.552   2.603   3.515  0.7002 -0.3559 -0.3921
17718TIP3    H174569   4.569   2.682   3.566  2.3095 -2.0132  1.8397
17718TIP3    H274570   4.572   2.628   3.425 -2.7621  2.8542 -0.5210
17719TIP3   OH274571   3.629   4.423  16.641 -0.5980  0.5786  0.1232
17719TIP3    H174572   3.561   4.445  16.577 -0.7615  0.0614  0.1165
17719TIP3    H274573   3.613   4.331  16.663 -0.6028  0.7713  0.9738
17720TIP3   OH274574   3.518   1.886   3.429 -0.2645  0.8172  0.3107
17720TIP3    H174575   3.607   1.906   3.457 -0.1139 -0.9569  1.2509
17720TIP3    H274576   3.463   1.954   3.467  0.6335  1.7374 -0.0097
17721TIP3   OH274577   2.333   3.790  14.126  0.3791 -0.6033  0.3362
17721TIP3    H174578   2.239   3.777  14.118  0.2518  0.2364  0.3610
17721TIP3    H274579   2.345   3.885  14.121  0.8680 -0.3657  3.9088
17722TIP3   OH274580   1.971   5.461  13.611  0.2925 -0.0212  0.6515
17722TIP3    H174581   1.978   5.542  13.662 -1.1764 -0.3202  1.3826
17722TIP3    H274582   2.050   5.411  13.633 -0.3697 -0.2035  2.7783
17723TIP3   OH274583   4.513   5.125   5.700  0.5958 -0.3333 -0.4444
17723TIP3    H174584   4.607   5.108   5.711  0.6162 -0.0686 -0.1869
17723TIP3    H274585   4.499   5.124   5.605  0.5204 -2.1515 -0.4445
17724TIP3   OH274586   5.742   3.088  12.859 -0.1059  0.4732  0.0186
17724TIP3    H174587   5.811   3.034  12.898 -0.2641  0.7064  0.6390
17724TIP3    H274588   5.767   3.096  12.767  0.3434  0.0098  0.0937
17725TIP3   OH274589   0.659   3.438   5.410 -0.1747  0.1941 -0.8053
17725TIP3    H174590   0.703   3.492   5.344  1.5766 -0.8658 -0.5900
17725TIP3    H274591   0.668   3.488   5.492  3.3220 -1.1605 -0.1639
17726TIP3   OH274592   6.536   3.107   0.185  0.0837 -0.2074  0.3921
17726TIP3    H174593   6.511   3.136   0.097  1.0221 -0.3265  0.0782
17726TIP3    H274594   6.515   3.182   0.242 -0.6193 -0.1662  0.0962
17727TIP3   OH274595   3.938   0.204  16.989 -0.3992  0.3373 -0.5159
17727TIP3    H174596   3.961   0.279  16.933 -0.3385 -0.1738 -1.1822
17727TIP3    H274597   3.866   0.161  16.943 -0.3928 -0.0551 -0.1658
17728TIP3   OH274598   3.458   0.170   0.741  0.2450  0.7877  0.2624
17728TIP3    H174599   3.476   0.241   0.803  0.9414 -0.0126  1.0052
17728TIP3    H274600   3.525   0.104   0.761 -0.6853 -0.2824 -0.0941
17729TIP3   OH274601   2.987   0.302  15.687  0.2459 -0.1802  0.4696
17729TIP3    H174602   2.993   0.206  15.679 -1.0858 -0.1496 -1.3522
17729TIP3    H274603   2.893   0.320  15.687  0.4765  1.1076  1.4363
17730TIP3   OH274604   3.660   4.635   3.157 -0.3046  0.2428  0.2111
17730TIP3    H174605   3.754   4.635   3.171 -0.4265 -1.0953  1.3145
17730TIP3    H274606   3.638   4.725   3.136  1.0522  0.8333  1.1796
17731TIP3   OH274607   1.212   6.300  15.286 -0.7094  0.5944  0.5075
17731TIP3    H174608   1.234   6.210  15.312  0.1874  0.7616  0.3572
17731TIP3    H274609   1.122   6.294  15.252 -1.1711  0.0200  1.7883
17732TIP3   OH274610   4.336   2.025  12.025 -0.2698 -0.5440 -0.5420
17732TIP3    H174611   4.393   2.089  12.068 -0.8686  0.7305 -1.5544
17732TIP3    H274612   4.392   1.980  11.962 -0.4062  0.9861 -1.8241
17733TIP3   OH274613   4.544   3.601   4.676 -0.0498  0.3855 -0.1887
17733TIP3    H174614   4.484   3.657   4.625 -0.5630  0.2182  0.2237
17733TIP3    H274615   4.629   3.615   4.635 -0.5309 -0.1377 -1.4300
17734TIP3   OH274616   3.009   1.464  12.117  0.1275  0.2129 -0.1872
17734TIP3    H174617   3.023   1.529  12.048 -1.8454  0.0079 -0.8409
17734TIP3    H274618   2.948   1.401  12.078  0.1008 -0.7043  1.2604
17735TIP3   OH274619   2.445   4.861  14.700  0.0785  0.7444 -0.1649
17735TIP3    H174620   2.474   4.908  14.778 -0.8106  0.2668  0.4768
17735TIP3    H274621   2.385   4.922  14.657 -0.6798  0.4127  0.3974
17736TIP3   OH274622   4.819   2.648  15.010 -0.7231 -0.1801  0.3121
17736TIP3    H174623   4.835   2.736  14.977  2.5995 -0.5765  0.5483
17736TIP3    H274624   4.805   2.659  15.104 -2.4352  0.2390  0.0328
17737TIP3   OH274625   2.213   4.471   3.888  0.5064 -0.2338  0.6386
17737TIP3    H174626   2.295   4.484   3.936  1.1258 -0.2628 -0.3714
17737TIP3    H274627   2.171   4.556   3.888 -0.6289 -0.7003  3.1536
17738TIP3   OH274628   1.418   4.664   5.403 -0.0563 -0.0519 -0.5634
17738TIP3    H174629   1.491   4.723   5.385  1.5812 -1.6100  0.6160
17738TIP3    H274630   1.347   4.696   5.347  1.3028  1.9056 -1.2874
17739TIP3   OH274631   1.718   1.812   5.715  0.4182  0.2421 -0.7416
17739TIP3    H174632   1.765   1.777   5.639  3.2741  3.0314 -0.5045
17739TIP3    H274633   1.787   1.838   5.776 -1.6545  0.9836  1.4613
17740TIP3   OH274634   5.799   6.277   5.634  0.6235  0.2429 -0.7815
17740TIP3    H174635   5.753   6.292   5.716  0.9569  0.5705 -0.6536
17740TIP3    H274636   5.737   6.228   5.580 -0.1228  1.2313 -0.8482
17741TIP3   OH274637   6.407   5.178  15.970  0.0473  0.1416 -0.5610
17741TIP3    H174638   6.331   5.127  16.000 -0.3516 -0.1997 -2.0519
17741TIP3    H274639   6.426   5.142  15.884  3.2136 -1.1694  0.5430
17742TIP3   OH274640   5.704   5.142  12.788 -0.9284  0.2519  0.1590
17742TIP3    H174641   5.751   5.210  12.740 -1.8626  0.5023 -0.4169
17742TIP3    H274642   5.646   5.103  12.723 -1.2100 -0.3439  0.7604
17743TIP3   OH274643   2.661   3.304  14.772  0.2610  0.2682 -0.1410
17743TIP3    H174644   2.646   3.249  14.849 -1.6362 -0.2369 -0.8217
17743TIP3    H274645   2.595   3.372  14.778 -0.3855 -0.1919 -1.6701
17744TIP3   OH274646   0.740   2.855  14.493  0.0701 -0.0627  0.1803
17744TIP3    H174647   0.699   2.852  14.407  1.6540 -0.3692 -0.6149
17744TIP3    H274648   0.683   2.911  14.546 -2.9617 -2.8491  0.1064
17745TIP3   OH274649   4.646   1.654  17.195  0.0759 -0.0635 -0.2633
17745TIP3    H174650   4.600   1.738  17.193  0.0466 -0.0855 -0.5869
17745TIP3    H274651   4.625   1.617  17.281 -1.5757 -0.6628 -0.8856
17746TIP3   OH274652   0.755   3.845   5.765 -0.1170 -0.5264 -0.2199
17746TIP3    H174653   0.846   3.874   5.775 -0.6964  1.4615 -0.3115
17746TIP3    H274654   0.714   3.864   5.849 -0.5183 -1.2342 -0.2445
17747TIP3   OH274655   3.499   2.328   1.845  0.1205  0.3449  0.6003
17747TIP3    H174656   3.497   2.255   1.906  0.4124 -0.7156 -0.6051
17747TIP3    H274657   3.408   2.339   1.818 -0.0238  0.8782  1.2751
17748TIP3   OH274658   6.289   4.120  16.801 -0.2516 -0.2010 -0.2479
17748TIP3    H174659   6.363   4.179  16.784 -0.6650  0.8330  1.3817
17748TIP3    H274660   6.239   4.119  16.720 -0.0595  1.4627 -0.4039
17749TIP3   OH274661   5.845   1.363  15.294 -0.2867  0.8678 -0.5337
17749TIP3    H174662   5.843   1.296  15.363  1.2602  1.5203  0.1975
17749TIP3    H274663   5.936   1.364  15.265 -0.6730  1.4444 -1.7859
17750TIP3   OH274664   1.825   6.702  17.088  0.3598  0.3661  0.1486
17750TIP3    H174665   1.794   6.735  17.172  1.0583  0.0568  0.5403
17750TIP3    H274666   1.797   6.610  17.087  2.9410 -0.5427  1.4336
17751TIP3   OH274667   2.864   3.670   0.188  0.0341 -0.4006 -0.3439
17751TIP3    H174668   2.801   3.737   0.162 -0.8684 -1.2482 -0.4069
17751TIP3    H274669   2.849   3.598   0.126  0.7068 -0.8221 -0.0258
17752TIP3   OH274670   3.735   0.446  12.436  0.7013  0.2222  0.5717
17752TIP3    H174671   3.692   0.417  12.355 -1.3050 -0.8776  1.9223
17752TIP3    H274672   3.786   0.370  12.464  0.1068  0.0159  1.1269
17753TIP3   OH274673   3.050   4.823   3.157 -0.3842 -0.8184 -0.4678
17753TIP3    H174674   3.056   4.870   3.241 -3.2944  1.7289 -1.4769
17753TIP3    H274675   3.102   4.876   3.097  1.2398 -2.3344 -0.4775
17754TIP3   OH274676   1.774   5.216   4.628 -0.5490 -0.3878  0.4884
17754TIP3    H174677   1.703   5.280   4.618 -0.2751 -0.2477 -0.7446
17754TIP3    H274678   1.852   5.269   4.646 -0.1191 -0.2343 -1.5398
17755TIP3   OH274679   6.127   5.466  12.620  0.1136  0.1430  0.8250
17755TIP3    H174680   6.206   5.433  12.663  0.9279  0.3989 -0.4140
17755TIP3    H274681   6.155   5.544  12.573 -0.6586 -0.2340 -0.3347
17756TIP3   OH274682   5.331   1.791  13.293 -0.3717  0.5743 -0.1822
17756TIP3    H174683   5.249   1.840  13.292 -2.0685 -2.0367 -0.0172
17756TIP3    H274684   5.339   1.760  13.383  1.0820  1.1566 -0.0892
17757TIP3   OH274685   3.995   2.693   0.478 -0.2454  0.6200 -0.3550
17757TIP3    H174686   4.055   2.712   0.405  0.2937 -1.6277 -0.5790
17757TIP3    H274687   3.923   2.644   0.437 -0.4100  0.1608  0.4623
17758TIP3   OH274688   2.122   2.245  11.483  0.1162 -0.1726 -0.3522
17758TIP3    H174689   2.142   2.151  11.487  0.6090 -0.2346 -2.8864
17758TIP3    H274690   2.133   2.268  11.391 -1.9423  1.9708 -0.1426
17759TIP3   OH274691   2.089   4.707   3.628 -0.5053 -0.3014 -0.2245
17759TIP3    H174692   2.109   4.738   3.716 -3.9231 -0.4362  0.7321
17759TIP3    H274693   2.156   4.747   3.573 -0.2524  2.6092  1.9645
17760TIP3   OH274694   2.643   3.335   1.018  0.1185  0.1874 -0.4367
17760TIP3    H174695   2.585   3.266   1.051 -0.6259  0.7064 -0.6344
17760TIP3    H274696   2.681   3.374   1.096  0.2488 -0.2001 -0.3072
17761TIP3   OH274697   1.368   6.006  15.067 -0.3060  0.2964  0.1833
17761TIP3    H174698   1.380   6.042  15.155  0.5126 -0.0249  0.2138
17761TIP3    H274699   1.422   5.927  15.065  0.6953  0.9647 -0.9929
17762TIP3   OH274700   1.729   5.518   1.506 -0.3624 -0.2371 -0.5070
17762TIP3    H174701   1.766   5.431   1.499 -0.1125 -0.1375 -0.4259
17762TIP3    H274702   1.740   5.556   1.419 -2.5465 -1.1048 -1.2402
17763TIP3   OH274703   3.073   4.655   0.353 -0.2524 -0.1857  0.3329
17763TIP3    H174704   3.123   4.716   0.407 -0.4307  0.4816 -0.2370
17763TIP3    H274705   2.999   4.707   0.320 -1.9999 -1.4319  2.0620
17764TIP3   OH274706   5.420   6.338  14.450 -0.4589  0.9215 -0.3947
17764TIP3    H174707   5.480   6.406  14.420 -1.0493  1.6809  0.1198
17764TIP3    H274708   5.371   6.314  14.371  0.0731  0.7511 -0.6793
17765TIP3   OH274709   5.825   3.888  15.409 -0.4162 -0.2793 -0.1657
17765TIP3    H174710   5.900   3.839  15.377 -1.4997 -1.2170 -1.4202
17765TIP3    H274711   5.779   3.828  15.467  0.1500  0.5272  1.1485
17766TIP3   OH274712   5.779   4.764  12.678 -0.5031 -0.4837  0.9899
17766TIP3    H174713   5.829   4.710  12.739 -2.4694 -0.6779  2.5729
17766TIP3    H274714   5.694   4.775  12.722 -1.2876  1.1217 -0.8166
17767TIP3   OH274715   3.608   6.699   0.845  0.2298  0.2163 -0.1737
17767TIP3    H174716   3.545   6.629   0.826  1.3503 -0.8281 -0.1944
17767TIP3    H274717   3.630   6.686   0.938 -0.4442  1.3218  0.1661
17768TIP3   OH274718   6.133   0.251  14.020  0.3394  0.2352 -0.1970
17768TIP3    H174719   6.178   0.174  14.054 -1.7389 -0.5947  0.8737
17768TIP3    H274720   6.162   0.259  13.929  1.6664 -0.9418  0.0963
17769TIP3   OH274721   6.099   2.604  15.595 -1.0248  0.9310  0.6643
17769TIP3    H174722   6.075   2.527  15.545 -1.8780  0.9545  0.9990
17769TIP3    H274723   6.084   2.678  15.536  0.9581  0.7970 -0.0664
17770TIP3   OH274724   1.131   4.147   2.708  0.2934 -0.8493  0.3343
17770TIP3    H174725   1.150   4.078   2.772  0.3519 -0.9753  0.1790
17770TIP3    H274726   1.037   4.163   2.718  0.4563 -0.2501  1.0772
17771TIP3   OH274727   2.080   0.346  13.483 -0.2706  0.8281  0.7382
17771TIP3    H174728   2.084   0.433  13.521  1.4517  1.9076 -1.6798
17771TIP3    H274729   2.152   0.343  13.420  0.8403 -2.9691  1.8863
17772TIP3   OH274730   4.167   4.649  11.796  1.1736 -0.4354 -0.2717
17772TIP3    H174731   4.117   4.673  11.717  0.4445 -0.6578  0.1113
17772TIP3    H274732   4.128   4.703  11.865  0.9308 -1.1801  0.1855
17773TIP3   OH274733   6.058   0.854  11.250  0.8554  0.2828 -0.1746
17773TIP3    H174734   6.054   0.781  11.312  1.2268  0.3480 -0.0693
17773TIP3    H274735   6.009   0.824  11.173  0.7454  0.0424 -0.0110
17774TIP3   OH274736   0.035   0.237   1.799 -0.1786 -0.4336 -0.3339
17774TIP3    H174737   0.075   0.323   1.797  2.1386 -1.4474 -1.6954
17774TIP3    H274738  -0.036   0.241   1.735  0.5389  0.1910 -1.0990
17775TIP3   OH274739   2.705   0.935   2.301  0.3182 -0.1433 -0.9235
17775TIP3    H174740   2.748   0.945   2.216  2.1427  1.3363  0.1014
17775TIP3    H274741   2.727   1.015   2.349 -0.0085 -1.2651  1.2369
17776TIP3   OH274742   6.322   2.618  15.327  0.2173  0.1598  0.5655
17776TIP3    H174743   6.244   2.648  15.374  0.5791  1.0672  0.6185
17776TIP3    H274744   6.315   2.523  15.326 -0.9682  0.2290  0.4377
17777TIP3   OH274745   4.526   4.760  13.084 -0.1916  0.2262 -0.5638
17777TIP3    H174746   4.577   4.841  13.091 -0.9400  0.6694 -0.1401
17777TIP3    H274747   4.591   4.694  13.060  0.6320  0.7327  0.1723
17778TIP3   OH274748   3.552   4.853   3.714  0.8065 -0.1379  0.0573
17778TIP3    H174749   3.472   4.826   3.669  0.5290 -0.8768  0.9727
17778TIP3    H274750   3.608   4.887   3.644 -0.6168  1.2003 -0.5111
17779TIP3   OH274751   2.874   3.653  15.907 -0.0363 -0.1070  0.2892
17779TIP3    H174752   2.877   3.734  15.957 -2.7832  0.9404 -1.0718
17779TIP3    H274753   2.938   3.665  15.837 -1.4738  1.6111 -0.8067
17780TIP3   OH274754   4.526   0.555  13.126 -0.5607  0.4734 -0.3413
17780TIP3    H174755   4.547   0.644  13.153 -3.2553  1.4140 -1.0268
17780TIP3    H274756   4.603   0.527  13.076 -0.6336  3.4395 -2.3943
17781TIP3   OH274757   1.031   5.009   3.517 -0.5886  0.3174 -0.2862
17781TIP3    H174758   1.093   5.057   3.571 -0.5559  1.0349 -0.9382
17781TIP3    H274759   0.981   4.956   3.578 -0.1099  0.6079  0.3675
17782TIP3   OH274760   3.642   5.155  15.084 -0.1033  0.3906  0.0449
17782TIP3    H174761   3.644   5.216  15.159 -0.9139 -0.0222  0.4130
17782TIP3    H274762   3.573   5.189  15.028  0.3602  0.5739 -0.4207
17783TIP3   OH274763   4.731   1.514   1.664  0.5720 -0.3084 -0.4330
17783TIP3    H174764   4.653   1.474   1.626 -0.2593  0.0763  0.8176
17783TIP3    H274765   4.780   1.440   1.701 -0.8398 -0.2560  1.6531
17784TIP3   OH274766   3.352   5.323  11.795 -0.1573 -0.8465 -0.5219
17784TIP3    H174767   3.362   5.408  11.838  2.5865 -0.9772 -0.7499
17784TIP3    H274768   3.265   5.327  11.754 -0.4127  1.5186  0.1065
17785TIP3   OH274769   5.428   2.003   2.420  0.5099 -0.0959  0.2694
17785TIP3    H174770   5.519   2.030   2.410  0.5622 -0.5991 -0.8193
17785TIP3    H274771   5.383   2.044   2.346 -0.4238  1.2509  1.5471
17786TIP3   OH274772   1.132   2.465  17.022 -0.3601  0.0744 -0.8467
17786TIP3    H174773   1.068   2.461  17.093  2.4765 -1.1385  1.8429
17786TIP3    H274774   1.176   2.549  17.033  1.9572 -1.2374  0.7387
17787TIP3   OH274775   0.624   4.723  11.687 -0.1437 -0.0980  0.0972
17787TIP3    H174776   0.685   4.657  11.653 -0.9363 -1.2173  0.7884
17787TIP3    H274777   0.565   4.674  11.744  0.3843  1.5100  2.1206
17788TIP3   OH274778   0.434   2.448   4.248  0.4522  0.2596  0.1904
17788TIP3    H174779   0.349   2.461   4.206  0.1039 -0.2012  0.7385
17788TIP3    H274780   0.443   2.523   4.308  0.7344  0.6619 -0.3497
17789TIP3   OH274781   5.805   5.297   0.368 -0.2594  0.0254 -0.4445
17789TIP3    H174782   5.714   5.271   0.383 -0.5546  0.7175 -0.9796
17789TIP3    H274783   5.805   5.336   0.281  0.1604  1.6863  0.2550
17790TIP3   OH274784   5.581   4.304  14.952 -0.0874  0.1078  0.1964
17790TIP3    H174785   5.671   4.303  14.985 -0.7793 -1.6345  2.2462
17790TIP3    H274786   5.538   4.232  14.997 -2.3471  0.4187 -1.2983
17791TIP3   OH274787   4.654   5.143   4.362  0.9419 -0.0727  0.0781
17791TIP3    H174788   4.737   5.155   4.408  0.6460 -1.6798  1.1365
17791TIP3    H274789   4.666   5.187   4.278  1.1611  3.9677  1.9983
17792TIP3   OH274790   2.017   0.048  14.881  1.1359 -0.0729 -0.1616
17792TIP3    H174791   2.030  -0.046  14.869  2.5713  0.0950 -0.0388
17792TIP3    H274792   1.932   0.066  14.840  1.8003 -1.0486 -2.0961
17793TIP3   OH274793   5.441   2.384  15.919  0.2419 -0.2032  0.5929
17793TIP3    H174794   5.432   2.293  15.948 -0.7372 -0.5365 -0.6654
17793TIP3    H274795   5.477   2.377  15.830 -0.8698  0.5786  0.0647
17794TIP3   OH274796   1.830   5.135   2.247  0.1815 -0.4713  0.3570
17794TIP3    H174797   1.827   5.089   2.331 -1.8545 -0.8404  0.1378
17794TIP3    H274798   1.859   5.224   2.270  0.8191 -0.8964  1.2688
17795TIP3   OH274799   0.439   1.493   3.077 -0.3376 -0.4550  0.8397
17795TIP3    H174800   0.478   1.543   3.149  1.1729  0.2636 -0.4141
17795TIP3    H274801   0.511   1.477   3.017 -1.7755  0.1149 -1.1583
17796TIP3   OH274802   4.899   6.661  12.495  0.3627  0.3557  0.0961
17796TIP3    H174803   4.948   6.636  12.417  1.0420  0.8797  0.3442
17796TIP3    H274804   4.817   6.612  12.489 -0.0182  1.1491 -1.4521
17797TIP3   OH274805   6.440   6.381  12.000 -0.4205  0.1951 -0.2718
17797TIP3    H174806   6.359   6.421  12.030 -0.3729  1.1422 -1.3523
17797TIP3    H274807   6.507   6.414  12.061 -0.9888 -1.7040  1.5136
17798TIP3   OH274808   1.652   0.516  15.086 -0.3845  0.3002  0.1505
17798TIP3    H174809   1.651   0.540  15.179 -0.5323  1.3250 -0.0980
17798TIP3    H274810   1.563   0.531  15.056 -1.1678 -2.9775  0.5071
17799TIP3   OH274811   5.230   2.638  14.779  0.3486 -0.5380 -0.0304
17799TIP3    H174812   5.212   2.550  14.746  0.6618 -0.9683  0.9024
17799TIP3    H274813   5.285   2.623  14.857 -0.5418  0.4188  0.7993
17800TIP3   OH274814   5.847   1.856   3.323  0.0513 -1.0758 -0.6211
17800TIP3    H174815   5.935   1.833   3.354  0.3865  0.0775 -0.6615
17800TIP3    H274816   5.794   1.779   3.342  1.3825 -2.3801 -1.9170
17801TIP3   OH274817   5.571   1.381   4.380 -0.4676  0.1847  0.1857
17801TIP3    H174818   5.664   1.392   4.396 -0.2829 -1.1588  0.1708
17801TIP3    H274819   5.566   1.343   4.292 -1.0663  0.7316 -0.0281
17802TIP3   OH274820   3.807   6.177   0.332 -0.4358  0.0183 -0.6365
17802TIP3    H174821   3.862   6.195   0.256  1.6109 -0.8407  0.5677
17802TIP3    H274822   3.794   6.262   0.373 -1.1269  0.4135 -1.6288
17803TIP3   OH274823   0.831   2.664  16.799 -0.5927  0.1790 -0.5635
17803TIP3    H174824   0.774   2.646  16.723 -1.3737 -0.6778  0.1965
17803TIP3    H274825   0.916   2.628  16.773 -1.0748 -0.9025 -0.7200
17804TIP3   OH274826   1.866   0.307   1.797  0.8457 -0.3995 -0.4616
17804TIP3    H174827   1.959   0.292   1.818  1.2214  1.6330 -0.4770
17804TIP3    H274828   1.843   0.385   1.846 -0.5040 -0.1398 -1.4635
17805TIP3   OH274829   3.107   6.484  12.175  0.1232 -0.1056 -0.1051
17805TIP3    H174830   3.060   6.411  12.215 -0.8001  0.1825 -0.6355
17805TIP3    H274831   3.158   6.444  12.104  1.2231 -0.5155  0.8913
17806TIP3   OH274832   6.174   5.524   4.928 -0.3733 -0.0138 -0.0306
17806TIP3    H174833   6.200   5.433   4.919 -1.3568 -0.2729 -0.4124
17806TIP3    H274834   6.106   5.537   4.861  0.0601  1.1177 -0.2745
17807TIP3   OH274835   0.309   6.299  15.061  0.0109 -0.3615 -0.3892
17807TIP3    H174836   0.301   6.243  15.138  0.0240 -0.0932 -0.1912
17807TIP3    H274837   0.246   6.263  14.999 -0.2972 -0.3294 -0.1009
17808TIP3   OH274838   0.682   1.377   6.133  0.1291  0.3082 -0.3261
17808TIP3    H174839   0.676   1.400   6.040 -0.7128 -0.2807 -0.4306
17808TIP3    H274840   0.654   1.456   6.179 -0.7069  0.1930 -0.6179
17809TIP3   OH274841   0.169   0.352  13.919  0.2206 -0.3774 -0.9017
17809TIP3    H174842   0.155   0.295  13.995 -1.3867  0.5144 -0.4950
17809TIP3    H274843   0.090   0.341  13.866  0.3120  0.7608 -1.2939
17810TIP3   OH274844   2.091   1.460  12.851  0.3119 -0.1849  0.0654
17810TIP3    H174845   2.117   1.551  12.836 -0.5010  0.1076  0.3472
17810TIP3    H274846   2.057   1.430  12.766 -0.3286  0.0979  0.2148
17811TIP3   OH274847   5.265   0.718  12.569  0.2704 -0.4852  0.2487
17811TIP3    H174848   5.179   0.682  12.590 -1.1991  2.5325  0.0642
17811TIP3    H274849   5.299   0.749  12.653  0.7062 -0.7080  0.1588
17812TIP3   OH274850   3.646   4.609   4.163 -0.3043 -0.4064  0.6574
17812TIP3    H174851   3.607   4.522   4.152  0.9159 -0.8333 -0.5080
17812TIP3    H274852   3.740   4.594   4.156 -0.0348  0.9147  1.1938
17813TIP3   OH274853   2.121   1.526   3.712  0.3805  0.0389 -0.3577
17813TIP3    H174854   2.116   1.498   3.620 -2.5264  0.7339 -0.5289
17813TIP3    H274855   2.169   1.608   3.710 -1.9277  1.4852 -1.7784
17814TIP3   OH274856   6.741   1.561  11.785 -0.7381  0.0480  0.8576
17814TIP3    H174857   6.820   1.614  11.799 -0.1448 -0.7486  0.6470
17814TIP3    H274858   6.773   1.471  11.787 -1.7736 -0.3211  1.5024
17815TIP3   OH274859   4.899   0.307  11.163 -0.0016 -0.4539  0.1381
17815TIP3    H174860   4.986   0.267  11.165  1.1462  1.9577  2.1622
17815TIP3    H274861   4.912   0.392  11.121 -1.1605  0.3779  1.3874
17816TIP3   OH274862   0.598   6.389  15.274  0.4935 -0.5716 -0.4003
17816TIP3    H174863   0.607   6.375  15.180 -0.9745 -0.1728 -0.6263
17816TIP3    H274864   0.569   6.304  15.308 -0.5776 -0.3001 -0.5793
17817TIP3   OH274865   4.750   3.215   5.483 -0.0703 -0.1538 -0.3750
17817TIP3    H174866   4.721   3.197   5.572  0.4357 -1.3730 -0.4330
17817TIP3    H274867   4.702   3.294   5.457 -0.3719  0.0978  0.8953
17818TIP3   OH274868   4.236   2.965  13.829  0.2090  0.0993  0.3531
17818TIP3    H174869   4.208   3.057  13.826  0.0758  0.0562  0.2909
17818TIP3    H274870   4.257   2.950  13.922  0.3335  0.2221  0.3465
17819TIP3   OH274871   5.250   3.752   5.043 -0.4523  0.8371  0.4021
17819TIP3    H174872   5.186   3.820   5.063 -1.8620 -0.3242  0.0077
17819TIP3    H274873   5.222   3.676   5.094  1.9817  0.9217  2.0531
17820TIP3   OH274874   0.752   1.937   4.342 -0.4824  0.2463 -0.2078
17820TIP3    H174875   0.765   2.018   4.390 -0.5141  0.6133 -0.8143
17820TIP3    H274876   0.719   1.875   4.408  2.5642 -0.2436  1.0074
17821TIP3   OH274877   1.833   2.533  11.415 -0.3282 -0.3999 -0.3480
17821TIP3    H174878   1.754   2.499  11.458 -0.5836  0.2404 -0.2972
17821TIP3    H274879   1.874   2.456  11.376  1.3891 -1.5356  3.2999
17822TIP3   OH274880   1.633   6.659   5.814 -0.5759 -0.3223 -0.4060
17822TIP3    H174881   1.677   6.734   5.773 -0.4989 -0.8883 -1.4005
17822TIP3    H274882   1.601   6.607   5.740 -3.2868  0.2521  0.2553
17823TIP3   OH274883   5.776   4.914  13.967  0.2091  0.4023 -0.0224
17823TIP3    H174884   5.855   4.926  13.916 -0.1303 -0.9181 -0.9154
17823TIP3    H274885   5.704   4.926  13.905 -0.2240 -0.6713  0.2281
17824TIP3   OH274886   3.683   0.053  15.068 -0.3472  0.4993  0.1573
17824TIP3    H174887   3.595   0.035  15.102  0.1583  0.3840  1.4759
17824TIP3    H274888   3.734  -0.024  15.094 -0.2853 -0.3686 -2.3281
17825TIP3   OH274889   4.529   1.452  15.042 -0.4218 -0.1106 -0.1083
17825TIP3    H174890   4.507   1.404  15.122 -1.5452  2.3018  1.1472
17825TIP3    H274891   4.619   1.481  15.056 -0.8645  0.9540  0.6876
17826TIP3   OH274892   3.597   2.411  15.078  0.0469  0.1431 -0.5274
17826TIP3    H174893   3.556   2.411  14.991 -4.0068 -0.8573  1.1614
17826TIP3    H274894   3.597   2.503  15.104  1.6164  0.4982 -1.6402
17827TIP3   OH274895   2.316   4.048   3.689  0.7949 -0.1756  0.0677
17827TIP3    H174896   2.390   4.108   3.703  0.7915 -0.0429 -0.4857
17827TIP3    H274897   2.292   4.060   3.598 -0.7532  0.7378  0.5670
17828TIP3   OH274898   0.970   5.918  11.744 -0.1893  0.4510  0.4188
17828TIP3    H174899   1.012   5.854  11.802 -1.5963 -1.1435 -0.2408
17828TIP3    H274900   1.042   5.956  11.694  0.5690 -1.8889 -0.3817
17829TIP3   OH274901   5.096   3.921   4.673  0.4840 -0.7040 -0.0247
17829TIP3    H174902   5.030   3.896   4.737 -1.2642  0.0633 -1.4482
17829TIP3    H274903   5.047   3.936   4.592  2.1566  1.4239 -0.7531
17830TIP3   OH274904   3.707   3.400   4.828  0.3041 -0.2352 -0.6459
17830TIP3    H174905   3.797   3.380   4.854  0.4209  0.6986 -0.3118
17830TIP3    H274906   3.653   3.367   4.900  0.5070  0.7718 -0.0210
17831TIP3   OH274907   1.941   5.533  16.490 -0.2882  0.1114  0.1682
17831TIP3    H174908   1.918   5.546  16.582  0.0160  0.9338  0.1376
17831TIP3    H274909   1.976   5.617  16.462 -1.0595  0.0849 -0.9132
17832TIP3   OH274910   2.130   4.561   0.336  0.3723  0.7676  0.3561
17832TIP3    H174911   2.187   4.516   0.397 -0.2908 -2.5296 -1.2247
17832TIP3    H274912   2.184   4.572   0.257 -0.3483 -0.0585 -0.2750
17833TIP3   OH274913   4.470   3.247   4.691  0.8367  0.0747  0.1287
17833TIP3    H174914   4.526   3.308   4.643 -0.1482  0.9221  0.0019
17833TIP3    H274915   4.522   3.167   4.699  1.2464  0.0720 -1.9077
17834TIP3   OH274916   4.822   0.802   6.045  0.2166  0.7405 -0.6148
17834TIP3    H174917   4.859   0.864   5.981  1.1648  1.1391  0.2945
17834TIP3    H274918   4.858   0.830   6.129 -0.6262 -0.0793  0.0388
17835TIP3   OH274919   0.296   5.278   2.559  0.0344  0.3244 -0.1830
17835TIP3    H174920   0.385   5.273   2.595  0.4573  0.1733 -1.2059
17835TIP3    H274921   0.272   5.370   2.568 -0.2795  0.1233  1.3737
17836TIP3   OH274922   6.742   3.687  16.173  0.6876  0.0391  0.7193
17836TIP3    H174923   6.688   3.754  16.132  3.8503  1.8623 -0.8467
17836TIP3    H274924   6.764   3.723  16.259 -0.9345 -0.9942  1.6310
17837TIP3   OH274925   2.668   3.963   3.465  0.0251  0.0790 -0.5475
17837TIP3    H174926   2.760   3.963   3.438 -0.1794  0.5603 -1.2847
17837TIP3    H274927   2.654   3.875   3.501  0.4097 -0.5023 -1.7503
17838TIP3   OH274928   6.638   0.047   2.076 -0.2087 -0.2500 -0.4143
17838TIP3    H174929   6.569  -0.014   2.051 -1.1477  0.8368 -0.5532
17838TIP3    H274930   6.594   0.113   2.130  0.8910 -0.0209  0.2458
17839TIP3   OH274931   1.131   6.721   2.948  0.1531  0.5244  0.0166
17839TIP3    H174932   1.226   6.726   2.964  0.0347 -1.1852  1.6473
17839TIP3    H274933   1.097   6.671   3.022 -2.3316  2.6862  0.5015
17840TIP3   OH274934   5.254   3.476   0.123 -0.3663  0.0523 -0.1469
17840TIP3    H174935   5.266   3.463   0.217  0.0757  1.4045  0.0021
17840TIP3    H274936   5.342   3.483   0.088 -0.5279 -0.5046 -0.6864
17841TIP3   OH274937   6.212   1.392   4.934 -0.1320 -0.2882 -0.2247
17841TIP3    H174938   6.232   1.397   5.028 -1.5998 -0.8942  0.1437
17841TIP3    H274939   6.287   1.347   4.896  0.0542 -0.8862  0.8159
17842TIP3   OH274940   4.576   2.684  15.763 -0.4471  0.0375 -0.1710
17842TIP3    H174941   4.565   2.627  15.687 -1.5074  0.1456 -0.1202
17842TIP3    H274942   4.488   2.692  15.800  0.0245  0.1175  0.9752
17843TIP3   OH274943   0.186   0.958   2.205  0.1574  0.1625  0.4109
17843TIP3    H174944   0.177   1.028   2.140 -0.4056  2.1108  2.4806
17843TIP3    H274945   0.256   0.987   2.263  1.2483 -1.9504  0.2609
17844TIP3   OH274946   4.962   6.329  16.864 -0.3953 -0.2148 -0.6369
17844TIP3    H174947   4.910   6.401  16.829 -0.9659  0.6336  1.7687
17844TIP3    H274948   4.900   6.277  16.915  0.4887 -1.0500 -0.3871
17845TIP3   OH274949   4.999   3.289   2.984 -0.4301 -0.1908 -0.3116
17845TIP3    H174950   4.938   3.363   2.988  0.3517  0.5413 -1.2780
17845TIP3    H274951   4.987   3.253   2.896 -0.2604 -0.7339 -0.1157
17846TIP3   OH274952   4.719   5.955   6.711  0.1258 -0.2960  0.0712
17846TIP3    H174953   4.796   6.003   6.681 -1.4757  1.2969 -1.8149
17846TIP3    H274954   4.652   6.022   6.722 -0.7037 -1.4412  2.9851
17847TIP3   OH274955   2.518   0.678   2.202  0.1619 -0.6116 -0.5876
17847TIP3    H174956   2.544   0.762   2.163  0.2262 -0.3444  0.0204
17847TIP3    H274957   2.598   0.627   2.204 -0.0380 -0.9935 -1.6958
17848TIP3   OH274958   6.594   5.282  15.288  0.0137 -0.0854  0.5542
17848TIP3    H174959   6.644   5.300  15.209 -1.8721  2.1750 -0.2367
17848TIP3    H274960   6.542   5.204  15.266  2.0017 -1.5937  0.8974
17849TIP3   OH274961   1.708   5.263  14.006  0.3976  0.2782 -0.1623
17849TIP3    H174962   1.706   5.358  14.003 -1.9414  0.2827 -0.1183
17849TIP3    H274963   1.617   5.237  14.019  1.1653 -1.9301  1.4624
17850TIP3   OH274964   0.173   0.814   4.339 -0.3292  0.4302  0.5258
17850TIP3    H174965   0.207   0.800   4.428 -0.8890 -0.5323  0.6025
17850TIP3    H274966   0.118   0.892   4.347 -0.5713  0.2077  1.0814
17851TIP3   OH274967   4.079   3.669   1.333  0.8639 -0.0999  0.0151
17851TIP3    H174968   4.078   3.579   1.367  0.0356 -0.6333 -1.3313
17851TIP3    H274969   4.023   3.666   1.256  0.6447  1.6446  0.0666
17852TIP3   OH274970   4.360   6.385   1.566 -0.4128  0.3903  0.3441
17852TIP3    H174971   4.302   6.310   1.579 -0.9725  0.9176  0.8925
17852TIP3    H274972   4.399   6.370   1.479  0.6661 -1.3240  1.0839
17853TIP3   OH274973   4.352   5.787  15.832  0.1128  0.1030 -0.0081
17853TIP3    H174974   4.398   5.770  15.914 -0.1586 -0.3060  0.0606
17853TIP3    H274975   4.295   5.712  15.820  1.0259 -0.4510 -1.1934
17854TIP3   OH274976   3.268   2.374  12.500  0.0406  0.1574 -0.1455
17854TIP3    H174977   3.340   2.427  12.465  1.6885 -0.7440  1.6665
17854TIP3    H274978   3.307   2.327  12.574 -2.3632 -0.6043  0.7280
17855TIP3   OH274979   1.325   5.879  13.835  0.0706 -0.2874 -0.5350
17855TIP3    H174980   1.405   5.908  13.877 -0.8163  0.8036  0.4581
17855TIP3    H274981   1.347   5.875  13.742  1.4776 -0.7779 -0.2064
17856TIP3   OH274982   5.177   0.433   5.298 -0.0900  0.2875 -0.1707
17856TIP3    H174983   5.207   0.523   5.314  0.4545  0.2385 -0.8698
17856TIP3    H274984   5.183   0.423   5.203 -1.8580  0.1031 -0.2819
17857TIP3   OH274985   0.347   5.367   1.041 -0.0219  0.1404  0.6149
17857TIP3    H174986   0.278   5.373   0.975 -0.3332 -1.4454  0.7578
17857TIP3    H274987   0.301   5.350   1.122  0.4419  0.8841  1.0474
17858TIP3   OH274988   5.383   1.010   5.410  0.1725 -0.1310  0.2564
17858TIP3    H174989   5.455   1.072   5.399 -0.1222  0.0972 -0.4429
17858TIP3    H274990   5.356   1.021   5.501  0.6015  0.2464  0.3419
17859TIP3   OH274991   4.939   1.922   5.292  0.0634 -0.1916 -0.0762
17859TIP3    H174992   5.002   1.905   5.361 -0.5882 -1.6367  0.2033
17859TIP3    H274993   4.981   1.890   5.212 -0.1332 -0.7788  0.0478
17860TIP3   OH274994   6.694   0.562  15.652  0.2172  0.0438  0.4063
17860TIP3    H174995   6.659   0.488  15.702 -1.3257 -0.1214 -0.8312
17860TIP3    H274996   6.740   0.520  15.578 -1.1372  0.2840 -0.6047
17861TIP3   OH274997   1.383   3.974   0.967  0.6375 -0.4144  0.2563
17861TIP3    H174998   1.380   4.053   0.913 -1.1520 -1.5420 -1.4182
17861TIP3    H274999   1.472   3.973   1.002  1.5131  1.0428 -1.6945
17862TIP3   OH275000   5.995   4.588  15.655 -0.1074 -0.4499 -0.0349
17862TIP3    H175001   6.054   4.588  15.731 -0.7047  1.5746  0.4912
17862TIP3    H275002   6.029   4.657  15.598 -1.1898 -0.1648 -0.3519
17863TIP3   OH275003   4.185   1.213   0.518 -0.1867  0.0114  0.0135
17863TIP3    H175004   4.201   1.280   0.584 -0.9804 -0.2618  0.4916
17863TIP3    H275005   4.127   1.255   0.455 -2.8282 -0.9627  1.6462
17864TIP3   OH275006   6.068   6.548  12.675  0.3587 -0.5516 -0.4908
17864TIP3    H175007   6.140   6.486  12.667  1.2136  0.2025  0.8767
17864TIP3    H275008   6.058   6.561  12.769  0.1107  1.2423 -0.7259
17865TIP3   OH275009   3.418   2.647  17.016 -0.4301 -0.5849 -0.2684
17865TIP3    H175010   3.445   2.655  16.924  1.2656 -0.8585  0.1638
17865TIP3    H275011   3.342   2.588  17.014 -0.9484  0.0984 -1.5617
17866TIP3   OH275012   5.474   5.883   0.704 -0.3387 -0.1150  1.0218
17866TIP3    H175013   5.531   5.933   0.645  0.6992 -2.2572  0.1198
17866TIP3    H275014   5.448   5.947   0.770  0.0143  1.9054 -0.6528
17867TIP3   OH275015   5.470   4.792   0.871 -0.0343  1.0744 -0.4322
17867TIP3    H175016   5.459   4.738   0.949 -0.7938 -0.1673 -1.3678
17867TIP3    H275017   5.503   4.732   0.804 -0.7482  1.7887 -1.4610
17868TIP3   OH275018   0.928   5.105   0.537  0.0850 -0.4259 -0.1688
17868TIP3    H175019   0.958   5.178   0.484  0.5177 -0.3643  0.1602
17868TIP3    H275020   0.851   5.139   0.583 -1.0760 -0.8577 -1.6913
17869TIP3   OH275021   2.788   6.334   2.968  0.3685 -0.3649 -0.1601
17869TIP3    H175022   2.770   6.282   2.890 -0.7861  1.1656 -0.9603
17869TIP3    H275023   2.734   6.295   3.036  1.2206 -1.5808 -0.1529
17870TIP3   OH275024   2.090   1.591  11.274 -0.1261  0.0878 -0.3488
17870TIP3    H175025   2.087   1.646  11.195  0.7933 -1.1219 -1.2715
17870TIP3    H275026   2.016   1.532  11.265  0.9048 -1.1298 -1.1701
17871TIP3   OH275027   6.108   3.062   1.831  0.0014 -0.1224  0.4933
17871TIP3    H175028   6.136   3.103   1.913  0.4012  0.4996  0.0566
17871TIP3    H275029   6.024   3.104   1.811  0.9628  1.3972 -0.5628
17872TIP3   OH275030   3.941   2.642  16.183  0.7414  0.3307  0.6251
17872TIP3    H175031   3.931   2.642  16.278  0.5312 -0.1431  0.6053
17872TIP3    H275032   3.957   2.551  16.161  1.2377  0.5039  0.2470
17873TIP3   OH275033   4.080   6.466  10.965 -0.1988  0.2338  0.1865
17873TIP3    H175034   4.031   6.546  10.985  1.6525  1.4127  0.2394
17873TIP3    H275035   4.106   6.477  10.873  1.0011  0.2463  0.5115
17874TIP3   OH275036   6.529   2.984  13.317  0.3538 -0.0605  0.0823
17874TIP3    H175037   6.463   3.035  13.363  0.8456 -0.5813  1.4356
17874TIP3    H275038   6.516   2.894  13.349 -0.7911 -0.9382 -2.5625
17875TIP3   OH275039   0.488   6.388   3.042  0.1783 -0.0336 -0.0788
17875TIP3    H175040   0.573   6.345   3.040 -0.0284 -0.5560  1.3032
17875TIP3    H275041   0.498   6.464   2.984  0.8310 -1.3878 -1.8211
17876TIP3   OH275042   0.356   0.186   3.156  0.1580  0.1094  0.6643
17876TIP3    H175043   0.423   0.213   3.219 -1.1128  1.7410  1.3935
17876TIP3    H275044   0.325   0.267   3.117 -1.2823 -0.6026  0.2407
17877TIP3   OH275045   0.420   5.388   4.081  0.0755  0.7931 -0.0279
17877TIP3    H175046   0.388   5.301   4.057  2.1686 -0.2746  0.7581
17877TIP3    H275047   0.410   5.440   4.002 -0.2285 -0.4727 -0.8549
17878TIP3   OH275048   5.221   5.208  13.457  0.1927  0.3075 -0.3818
17878TIP3    H175049   5.165   5.279  13.426 -2.3516 -1.9809 -1.4131
17878TIP3    H275050   5.259   5.171  13.378  0.9714  0.0649  0.0922
17879TIP3   OH275051   2.132   0.385   4.193 -0.5709 -0.6567 -0.0341
17879TIP3    H175052   2.205   0.447   4.192 -1.1925  0.1316 -2.3348
17879TIP3    H275053   2.124   0.358   4.284  1.5061  0.5178  0.5449
17880TIP3   OH275054   6.237   4.693   5.494 -0.0629 -0.2182  0.0331
17880TIP3    H175055   6.151   4.681   5.535  0.7071 -1.0065  1.5082
17880TIP3    H275056   6.284   4.611   5.513  0.6921 -0.1878 -1.5772
17881TIP3   OH275057   5.387   0.768  16.297  0.3389  0.1235  0.2016
17881TIP3    H175058   5.344   0.684  16.312 -2.4595  1.6396  1.6348
17881TIP3    H275059   5.428   0.789  16.381  1.6241 -0.0939 -0.3596
17882TIP3   OH275060   4.852   4.368   3.194 -0.5447  0.1739  0.4344
17882TIP3    H175061   4.801   4.317   3.131 -0.0462 -2.2305  1.8546
17882TIP3    H275062   4.856   4.456   3.156 -2.0321 -0.6431 -1.8164
17883TIP3   OH275063   3.636   3.076   1.872  0.6847  1.1597  0.0968
17883TIP3    H175064   3.549   3.106   1.846  0.0475  0.7985  1.7161
17883TIP3    H275065   3.633   2.981   1.857 -0.9254  0.3063  4.3937
17884TIP3   OH275066   6.278   4.616  14.062 -0.0731 -0.0001 -0.1428
17884TIP3    H175067   6.291   4.700  14.105  1.3723 -0.4659  0.3907
17884TIP3    H275068   6.185   4.614  14.042 -0.6621  0.6212  2.2042
17885TIP3   OH275069   5.159   4.819   2.334 -0.3370 -0.2976 -0.5344
17885TIP3    H175070   5.218   4.790   2.404 -0.2408 -1.2234 -0.9720
17885TIP3    H275071   5.168   4.751   2.266 -1.8708 -0.4426 -0.6285
17886TIP3   OH275072   2.866   2.348  10.941  0.8432  0.3442  0.6333
17886TIP3    H175073   2.895   2.366  10.852 -0.4608  0.5073  0.2134
17886TIP3    H275074   2.875   2.253  10.951 -2.3974 -0.2831 -1.0246
17887TIP3   OH275075   1.972   2.336   2.222  0.6416  0.1103 -0.4775
17887TIP3    H175076   1.903   2.280   2.257 -0.8912  1.8379 -0.5172
17887TIP3    H275077   1.954   2.340   2.128  1.6484 -0.5068 -0.7049
17888TIP3   OH275078   3.054   6.120   2.505 -0.6507 -0.1118 -0.5687
17888TIP3    H175079   2.982   6.092   2.449 -0.4156 -1.4141 -0.2645
17888TIP3    H275080   3.128   6.067   2.476 -0.1208  0.3580 -0.0924
17889TIP3   OH275081   3.496   5.940  14.326 -0.0099  0.5988 -0.1871
17889TIP3    H175082   3.445   5.877  14.274 -2.7455  2.1070  0.4789
17889TIP3    H275083   3.497   6.020  14.273 -0.6154  1.3733  0.9333
17890TIP3   OH275084   4.173   4.029   5.216  0.1125 -0.0334  0.2767
17890TIP3    H175085   4.247   4.089   5.218  0.1550 -0.0820  0.2124
17890TIP3    H275086   4.142   4.033   5.126 -0.5690  0.7102  0.5418
17891TIP3   OH275087   5.671   3.761  15.004  0.5778  0.2360  0.4705
17891TIP3    H175088   5.722   3.758  15.085 -0.7961  1.0987  1.4019
17891TIP3    H275089   5.599   3.699  15.018  0.4288  0.2503 -0.1828
17892TIP3   OH275090   3.311   1.123  11.876  0.0798 -0.1905 -0.6801
17892TIP3    H175091   3.347   1.054  11.821  0.4109  0.1966 -0.9534
17892TIP3    H275092   3.387   1.163  11.918 -0.2322 -1.0696  0.7707
17893TIP3   OH275093   4.339   5.068   2.107 -0.0956  0.6250  0.0123
17893TIP3    H175094   4.403   5.083   2.037  0.1303  1.3437  0.3619
17893TIP3    H275095   4.374   4.993   2.156  0.0219  0.4604 -0.3234
17894TIP3   OH275096   1.949   5.531   4.270 -0.0127 -0.6641  0.3638
17894TIP3    H175097   1.900   5.597   4.221  2.6261  1.3994  0.2376
17894TIP3    H275098   1.900   5.520   4.351 -0.7736  1.2259  0.2167
17895TIP3   OH275099   1.937   3.183  12.274 -0.1060 -0.4363 -0.6856
17895TIP3    H175100   1.853   3.189  12.321 -0.2448  2.6007 -1.0981
17895TIP3    H275101   1.946   3.269  12.231  2.4291 -1.2932 -2.0513
17896TIP3   OH275102   6.555   0.196   2.455  0.1982 -0.2144  0.1179
17896TIP3    H175103   6.507   0.224   2.532 -0.2575 -0.2437 -0.1494
17896TIP3    H275104   6.596   0.113   2.481 -1.1610 -1.0009 -0.1169
17897TIP3   OH275105   4.914   5.154   0.554 -0.0067  0.3040 -0.1491
17897TIP3    H175106   4.933   5.188   0.641 -0.0311 -1.8405  0.7454
17897TIP3    H275107   4.854   5.219   0.516 -1.8670  0.1724  2.3202
17898TIP3   OH275108   6.062   5.076  16.463 -0.4640 -0.1743  0.1806
17898TIP3    H175109   6.118   5.139  16.510 -2.5762  0.4533  2.0811
17898TIP3    H275110   5.979   5.123  16.451 -1.8734 -2.3223  0.9944
17899TIP3   OH275111   3.844   4.784   3.554  0.4618  0.3180  0.2441
17899TIP3    H175112   3.831   4.818   3.465 -0.7450 -0.3689  0.1361
17899TIP3    H275113   3.913   4.839   3.591  1.5991  0.0728 -1.4178
17900TIP3   OH275114   5.676   0.098  16.985 -0.3304 -0.5265 -0.0994
17900TIP3    H175115   5.716   0.132  16.905  0.6037  0.4751  0.7653
17900TIP3    H275116   5.643   0.012  16.961  0.8301 -0.6636 -1.3051
17901TIP3   OH275117   2.132   1.669  16.465  0.2657 -0.7957 -0.3987
17901TIP3    H175118   2.209   1.688  16.518  0.1450 -1.1669 -0.0838
17901TIP3    H275119   2.152   1.705  16.378  0.3727  0.0112 -0.0458
17902TIP3   OH275120   2.741   2.746   4.510  0.1089 -0.0582  0.7068
17902TIP3    H175121   2.650   2.738   4.537  0.5544 -1.7359  1.8877
17902TIP3    H275122   2.785   2.784   4.586  0.3861  0.9696  0.0576
17903TIP3   OH275123   4.080   4.651  13.364  0.1793  0.0148  0.1058
17903TIP3    H175124   4.140   4.706  13.415 -0.0250  1.6491 -1.3357
17903TIP3    H275125   4.122   4.643  13.279 -0.4763 -0.9276 -0.1380
17904TIP3   OH275126   5.065   6.007  13.859  0.5124 -0.0415 -0.7245
17904TIP3    H175127   5.073   5.986  13.952 -1.3076 -1.0288 -0.7417
17904TIP3    H275128   5.092   5.927  13.814  2.2795  0.7334 -1.1115
17905TIP3   OH275129   0.438   1.975   5.438  0.3725 -0.0219 -0.5979
17905TIP3    H175130   0.483   2.060   5.440 -1.5408  1.0494  0.6306
17905TIP3    H275131   0.368   1.987   5.374 -2.6339  0.9726  2.5512
17906TIP3   OH275132   0.418   4.266  16.456 -0.0283  0.1588  0.3250
17906TIP3    H175133   0.438   4.353  16.421 -0.8580 -0.4047 -1.6920
17906TIP3    H275134   0.503   4.233  16.487  0.7179  0.8368 -0.9195
17907TIP3   OH275135   5.580   6.215   4.908  0.1159 -0.5235 -0.0513
17907TIP3    H175136   5.565   6.285   4.846  0.4981 -0.0393  0.3917
17907TIP3    H275137   5.592   6.137   4.854  1.5772  0.0881 -0.6604
17908TIP3   OH275138   2.217   4.324   3.093  0.5476  0.1022  0.3919
17908TIP3    H175139   2.217   4.382   3.016  0.0696 -1.0345 -0.4908
17908TIP3    H275140   2.150   4.361   3.150 -0.0399  0.1973 -0.3404
17909TIP3   OH275141   0.707   6.610   3.285 -0.1697  0.5387  0.0891
17909TIP3    H175142   0.758   6.547   3.335 -1.3423 -0.3410  0.2335
17909TIP3    H275143   0.661   6.661   3.352 -1.0832 -0.0782 -0.0450
17910TIP3   OH275144   6.748   0.217  11.655 -0.4077 -0.0130  0.0433
17910TIP3    H175145   6.777   0.142  11.707  0.5072  0.6486  0.5174
17910TIP3    H275146   6.803   0.290  11.685  0.2979  0.3608 -1.9635
17911TIP3   OH275147   4.649   1.753  14.200  0.1539 -0.2441 -0.0192
17911TIP3    H175148   4.724   1.812  14.199 -0.5814  0.7858  1.3958
17911TIP3    H275149   4.622   1.749  14.292  0.8835 -3.7792  0.2025
17912TIP3   OH275150   5.942   4.524  13.198  0.0497  0.2059  0.5719
17912TIP3    H175151   5.913   4.613  13.177  0.0898 -0.0046 -0.4110
17912TIP3    H275152   6.008   4.504  13.131  0.5420 -0.3058  1.1997
17913TIP3   OH275153   3.593   4.191  12.043 -0.1228  0.8884 -0.6085
17913TIP3    H175154   3.616   4.125  11.978 -1.0337  0.3147 -0.3752
17913TIP3    H275155   3.670   4.198  12.099 -0.1975 -0.3942 -0.3046
17914TIP3   OH275156   6.327   1.490   0.446  0.1391 -0.1851  0.6542
17914TIP3    H175157   6.284   1.573   0.425 -0.2241 -0.4301  0.4249
17914TIP3    H275158   6.262   1.442   0.498 -0.2160 -0.9135 -0.4240
17915TIP3   OH275159   0.098   5.197  16.591 -0.2768  0.0722 -0.0235
17915TIP3    H175160   0.112   5.169  16.681 -1.9886  1.6811  0.8164
17915TIP3    H275161   0.171   5.256  16.572 -0.5689  0.6871  0.7551
17916TIP3   OH275162   3.232   5.479   0.264 -0.0414  0.0874 -0.2084
17916TIP3    H175163   3.231   5.386   0.239 -2.2452 -0.9309  3.0116
17916TIP3    H275164   3.302   5.485   0.328  0.1826  0.7036 -0.5069
17917TIP3   OH275165   0.669   3.531  16.025 -0.2555 -0.5072  0.1532
17917TIP3    H175166   0.711   3.615  16.038 -0.2609 -0.5791  0.6446
17917TIP3    H275167   0.586   3.552  15.982 -0.2449 -0.2652  0.2505
17918TIP3   OH275168   6.045   0.772   3.993 -0.0808  0.9034 -0.1786
17918TIP3    H175169   6.130   0.794   3.954  0.8358 -1.1617  0.5279
17918TIP3    H275170   6.016   0.695   3.944 -0.8827  0.7659  0.4961
17919TIP3   OH275171   5.780   3.438  10.879 -0.4578 -0.2151 -0.3400
17919TIP3    H175172   5.813   3.349  10.887 -1.1373 -0.4231  0.2899
17919TIP3    H275173   5.716   3.434  10.809  1.3933  0.3756 -2.1733
17920TIP3   OH275174   4.225   2.164   0.711 -0.0154  0.5116  0.2994
17920TIP3    H175175   4.306   2.140   0.665  1.3557 -1.8089  3.5747
17920TIP3    H275176   4.255   2.214   0.787 -1.7473  0.4594  1.0466
17921TIP3   OH275177   0.648   2.186   4.952  1.0263 -0.3727  0.3358
17921TIP3    H175178   0.679   2.166   4.863 -0.1937  0.9948 -0.4451
17921TIP3    H275179   0.592   2.263   4.941  3.4201  1.9273  2.7546
17922TIP3   OH275180   0.904   1.538   1.704  0.2137  0.2693  0.6393
17922TIP3    H175181   0.857   1.478   1.646  0.5311  0.0840  0.5713
17922TIP3    H275182   0.928   1.484   1.779  0.8532  0.2037  0.3953
17923TIP3   OH275183   6.609   3.760  17.365 -0.2281  1.0082 -0.3499
17923TIP3    H175184   6.536   3.749  17.304  0.8176  0.8952 -1.6086
17923TIP3    H275185   6.687   3.740  17.314  0.7543  1.7945  0.7906
17924TIP3   OH275186   0.015   3.580   1.310  0.1987  0.4405 -0.3680
17924TIP3    H175187  -0.063   3.573   1.365  1.8889  0.0970  2.1454
17924TIP3    H275188   0.006   3.509   1.247 -0.6207 -0.8069  1.0882
17925TIP3   OH275189   4.737   4.530  15.136 -0.5436 -0.3119  0.4752
17925TIP3    H175190   4.802   4.581  15.087 -0.4576  0.1496  1.0508
17925TIP3    H275191   4.755   4.439  15.113 -0.4171 -0.1155 -0.2376
17926TIP3   OH275192   5.542   0.404   3.445 -0.2842 -0.1778  0.1926
17926TIP3    H175193   5.562   0.484   3.398 -0.0804 -1.0202 -1.2208
17926TIP3    H275194   5.626   0.375   3.481 -0.3284  0.1288  0.5575
17927TIP3   OH275195   1.058   2.574   2.021  0.2342  0.3686 -0.5131
17927TIP3    H175196   1.075   2.596   2.113 -0.9664  1.5512 -0.5447
17927TIP3    H275197   1.007   2.493   2.025  0.1203  0.4566 -0.1235
17928TIP3   OH275198   5.520   0.970   3.549  0.2897 -0.3400 -0.2512
17928TIP3    H175199   5.560   1.050   3.583 -0.2783  0.0638 -0.5247
17928TIP3    H275200   5.543   0.902   3.613  0.4128  0.1255  0.2021
17929TIP3   OH275201   3.036   1.584   1.808 -0.6106 -0.1260  0.5340
17929TIP3    H175202   3.097   1.514   1.829 -0.8092 -0.1229  1.1386
17929TIP3    H275203   3.019   1.575   1.715  0.8757  0.3225  0.1996
17930TIP3   OH275204   3.682   6.612   6.184 -0.1382 -0.2681  0.6056
17930TIP3    H175205   3.603   6.666   6.178  0.8603  1.2383  0.2932
17930TIP3    H275206   3.650   6.524   6.200 -1.8329  0.7202  3.3757
17931TIP3   OH275207   1.543   0.182   1.479 -0.0415  0.5240  0.0497
17931TIP3    H175208   1.463   0.130   1.478 -0.3625  1.0174 -0.3233
17931TIP3    H275209   1.557   0.206   1.387  1.1592 -0.4913 -0.0654
17932TIP3   OH275210   0.261   2.817   4.078 -0.1655  0.4839  0.0600
17932TIP3    H175211   0.234   2.753   4.012  0.1453  0.4751 -0.0591
17932TIP3    H275212   0.241   2.902   4.038  1.2153  0.5249 -0.5877
17933TIP3   OH275213   0.704   0.298  17.149  0.6868  0.2747  0.3286
17933TIP3    H175214   0.784   0.274  17.102  1.0288  0.9794  0.5362
17933TIP3    H275215   0.710   0.393  17.158 -1.0932  0.5966 -1.3286
17934TIP3   OH275216   5.084   1.274   3.581  0.2776  0.3944  0.7942
17934TIP3    H175217   5.160   1.258   3.525  2.0495  0.1188  3.1368
17934TIP3    H275218   5.062   1.366   3.566  0.9449  0.4278 -0.0536
17935TIP3   OH275219   0.623   2.155   5.255  0.5849  0.2190 -0.0522
17935TIP3    H175220   0.584   2.149   5.168  1.2630  2.5844 -0.5934
17935TIP3    H275221   0.698   2.214   5.244  0.0986  1.3957  2.2917
17936TIP3   OH275222   4.768   6.459  16.715  0.1577  0.3495 -0.5888
17936TIP3    H175223   4.747   6.552  16.700 -1.1926 -0.0362 -1.1814
17936TIP3    H275224   4.728   6.414  16.641  0.7310 -0.7310 -0.2519
17937TIP3   OH275225   3.481   1.433  11.389  0.2105 -0.0546  0.4107
17937TIP3    H175226   3.576   1.423  11.393  0.1681 -0.2238  1.1239
17937TIP3    H275227   3.456   1.391  11.306  0.9589  1.8487 -0.8493
17938TIP3   OH275228   1.358   0.611   5.527 -0.4393 -0.3000  0.1387
17938TIP3    H175229   1.306   0.559   5.588  0.1956 -0.9505  0.1276
17938TIP3    H275230   1.428   0.553   5.498 -0.6145  0.0556 -1.0697
17939TIP3   OH275231   3.137   4.679  12.944  0.4044 -0.2050 -0.4886
17939TIP3    H175232   3.190   4.602  12.920 -2.1328 -1.7280 -1.6004
17939TIP3    H275233   3.070   4.684  12.876 -1.7034  0.7987  1.5254
17940TIP3   OH275234   4.091   3.146  12.671 -0.0958 -0.4343 -0.5274
17940TIP3    H175235   4.050   3.062  12.686 -0.2759 -0.7681 -2.5701
17940TIP3    H275236   4.122   3.142  12.581  2.8851  0.4444  0.3333
17941TIP3   OH275237   4.356   5.073   0.974  0.2390 -0.5771 -0.6598
17941TIP3    H175238   4.400   5.128   0.909  3.1030 -1.6392  0.2090
17941TIP3    H275239   4.319   5.000   0.923  1.8273 -1.0278 -1.2189
17942TIP3   OH275240   5.983   2.870   6.224  0.8320 -0.5664 -0.3895
17942TIP3    H175241   6.059   2.839   6.273  1.3924  0.3058 -0.6806
17942TIP3    H275242   5.910   2.817   6.256  1.6900 -1.9561 -0.6512
17943TIP3   OH275243   0.379   0.864  14.209  0.3094 -0.2406 -0.6349
17943TIP3    H175244   0.302   0.893  14.159 -0.0990 -1.2066 -0.5820
17943TIP3    H275245   0.417   0.795  14.156  1.0231  0.0813 -0.5458
17944TIP3   OH275246   2.377   4.613   3.493  0.9523 -0.2240  0.3589
17944TIP3    H175247   2.460   4.569   3.511  0.1001 -0.8589  3.2429
17944TIP3    H275248   2.311   4.544   3.502 -0.0258  0.5990 -0.2892
17945TIP3   OH275249   2.761   5.923  14.472 -0.4491  0.2163 -0.7089
17945TIP3    H175250   2.826   5.855  14.453 -0.9436 -0.6874  0.6378
17945TIP3    H275251   2.779   5.992  14.409  1.8156 -0.0100 -0.4056
17946TIP3   OH275252   4.112   2.382   0.599 -0.1500  0.1795  0.5356
17946TIP3    H175253   4.069   2.436   0.665  0.1872  0.6962  0.3338
17946TIP3    H275254   4.120   2.296   0.641 -1.8974 -0.1129  0.3733
17947TIP3   OH275255   0.011   4.214   5.768 -0.1208 -0.6571 -0.3614
17947TIP3    H175256   0.049   4.299   5.744  2.5391 -1.1159  1.6693
17947TIP3    H275257  -0.078   4.216   5.732  0.9129  1.6270 -3.2120
17948TIP3   OH275258   6.626   5.416   6.572  0.7704 -0.5807 -0.0178
17948TIP3    H175259   6.602   5.326   6.549  1.9908 -1.2141  0.9836
17948TIP3    H275260   6.661   5.408   6.661 -0.0654  1.0744  0.4933
17949TIP3   OH275261   4.269   3.008  14.116 -0.3794  0.3368  0.2991
17949TIP3    H175262   4.245   3.101  14.125  1.3128  1.1552 -2.4230
17949TIP3    H275263   4.343   2.997  14.176  0.3857  1.1844 -0.4622
17950TIP3   OH275264   3.097   2.287   1.147 -0.5979 -0.4958  0.0644
17950TIP3    H175265   3.158   2.354   1.116 -2.2994  0.5304 -1.2578
17950TIP3    H275266   3.056   2.326   1.224  0.2906 -1.1250  0.8668
17951TIP3   OH275267   4.913   4.511  15.719 -0.4039 -0.0269 -0.6913
17951TIP3    H175268   4.995   4.484  15.760 -0.5618  0.6950  0.1381
17951TIP3    H275269   4.884   4.587  15.770 -0.8617  0.6117 -1.8477
17952TIP3   OH275270   0.587   1.549   3.310 -0.7352 -0.0514 -0.8451
17952TIP3    H175271   0.553   1.599   3.384 -1.0595 -0.4536 -0.7227
17952TIP3    H275272   0.661   1.499   3.346 -1.4614 -0.9495 -0.5739
17953TIP3   OH275273   2.455   0.210  15.510 -0.0053 -0.4656  0.7906
17953TIP3    H175274   2.376   0.192  15.459 -1.9945  0.1161  3.4434
17953TIP3    H275275   2.458   0.140  15.575  1.2594 -0.0277  1.2286
17954TIP3   OH275276   6.594   4.330   0.781  0.2784  0.5196  0.2797
17954TIP3    H175277   6.551   4.352   0.699 -1.1965  0.8124  1.0990
17954TIP3    H275278   6.663   4.268   0.756 -2.6845 -2.6595 -0.8005
17955TIP3   OH275279   1.738   0.371   3.150 -0.2020  0.4079  0.2986
17955TIP3    H175280   1.807   0.304   3.154 -0.4265  0.0174 -1.3577
17955TIP3    H275281   1.656   0.321   3.145 -0.2914  0.6502 -2.5989
17956TIP3   OH275282   2.421   0.642   0.714  0.1735  0.9441  0.3317
17956TIP3    H175283   2.427   0.672   0.623  0.7843 -1.2988 -0.4195
17956TIP3    H275284   2.352   0.576   0.712 -2.8692  3.7259  2.4181
17957TIP3   OH275285   5.001   3.797   0.098  0.1893  0.3659 -0.4368
17957TIP3    H175286   5.065   3.827   0.033 -0.4203  1.1779 -0.6762
17957TIP3    H275287   4.988   3.873   0.155 -1.5042  0.6382 -1.1421
17958TIP3   OH275288   5.336   5.652   2.175 -0.4704 -0.1889 -0.6848
17958TIP3    H175289   5.314   5.575   2.122  1.1036 -0.2493 -1.2924
17958TIP3    H275290   5.324   5.726   2.116  2.6908 -0.3558 -1.6888
17959TIP3   OH275291   3.869   2.487  14.943 -0.2237 -0.0989  0.6725
17959TIP3    H175292   3.808   2.448  15.006  0.1815 -0.1080  1.0584
17959TIP3    H275293   3.868   2.426  14.869 -0.7972 -0.0238  0.6082
17960TIP3   OH275294   2.586   2.309  15.135  0.0387  0.4130 -0.2416
17960TIP3    H175295   2.511   2.261  15.099 -1.9690 -0.3969  4.3075
17960TIP3    H275296   2.649   2.240  15.157  1.5837  0.9620 -2.6039
17961TIP3   OH275297   5.393   5.917  14.357  0.1355  0.4777  0.3435
17961TIP3    H175298   5.307   5.947  14.328 -0.2248 -0.3017  0.5803
17961TIP3    H275299   5.437   5.890  14.277 -0.8425 -1.6347  0.4701
17962TIP3   OH275300   3.151   0.476  11.530 -0.3304 -0.2948 -0.0973
17962TIP3    H175301   3.171   0.536  11.459  3.2315 -0.5084  0.5321
17962TIP3    H275302   3.177   0.390  11.498 -1.8428 -0.9559  0.3403
17963TIP3   OH275303   2.566   6.713   1.760  0.2697  0.5388 -0.4841
17963TIP3    H175304   2.625   6.779   1.796 -0.0895  0.3862  0.4355
17963TIP3    H275305   2.491   6.763   1.727 -0.6162  0.5599  1.4056
17964TIP3   OH275306   1.103   2.925  14.111 -0.0103 -0.3142  0.2025
17964TIP3    H175307   1.104   3.015  14.144 -0.0108 -0.8303  1.7003
17964TIP3    H275308   1.155   2.876  14.175 -0.3508 -1.4530 -0.3706
17965TIP3   OH275309   4.299   1.567  13.929  0.2591  0.6673 -0.7524
17965TIP3    H175310   4.268   1.524  13.849  0.8965  0.8988 -1.1329
17965TIP3    H275311   4.226   1.558  13.991  0.5123 -1.2834 -0.6771
17966TIP3   OH275312   2.273   5.633  15.704  0.4287 -0.2166  0.0674
17966TIP3    H175313   2.252   5.714  15.751 -0.0361  0.4874 -1.2964
17966TIP3    H275314   2.289   5.661  15.614  2.4262 -1.3795  0.0104
17967TIP3   OH275315   4.385   3.821  15.043  0.2609 -0.7974  0.8619
17967TIP3    H175316   4.386   3.857  14.954 -0.8063 -0.8948  0.7983
17967TIP3    H275317   4.463   3.765  15.048  0.4667 -0.5892  0.0807
17968TIP3   OH275318   3.421   5.517   4.622 -0.1604  0.4325  0.0313
17968TIP3    H175319   3.339   5.486   4.662  0.4746  0.0974  1.0907
17968TIP3    H275320   3.490   5.488   4.682  0.7128  1.0394 -0.6579
17969TIP3   OH275321   2.942   1.326   1.991 -0.3768  0.6701 -0.5115
17969TIP3    H175322   2.980   1.333   1.903  0.7563  1.5820  0.0251
17969TIP3    H275323   2.889   1.405   2.001 -1.3070  0.0907 -0.7227
17970TIP3   OH275324   6.638   2.619   6.231  0.5829 -0.2265 -0.3564
17970TIP3    H175325   6.625   2.676   6.307  0.2992 -1.0443  0.2204
17970TIP3    H275326   6.679   2.541   6.267 -2.8515 -2.2178 -0.3518
17971TIP3   OH275327   6.526   4.946  17.184  0.1022  0.8077 -0.1102
17971TIP3    H175328   6.547   5.031  17.221 -0.1684  1.0933 -0.6015
17971TIP3    H275329   6.438   4.926  17.217  0.8638 -0.1325  1.4957
17972TIP3   OH275330   2.139   2.297  14.183 -0.6183 -0.0488  0.1238
17972TIP3    H175331   2.166   2.315  14.093 -2.9295  0.2144 -0.5752
17972TIP3    H275332   2.188   2.360  14.236  0.2775  0.2390 -0.9974
17973TIP3   OH275333   2.380   6.088   0.167 -0.0438  0.3564  0.2560
17973TIP3    H175334   2.405   6.159   0.108  1.9174 -0.1319  0.4204
17973TIP3    H275335   2.339   6.132   0.242  1.2386  1.3514  0.4109
17974TIP3   OH275336   4.633   1.367  12.226 -0.0451  0.2041 -0.3692
17974TIP3    H175337   4.711   1.318  12.203  0.8676  1.1886  0.5116
17974TIP3    H275338   4.655   1.458  12.205 -0.8549  0.5315  0.1545
17975TIP3   OH275339   2.335   0.927   0.023  0.2757 -0.2761  0.8560
17975TIP3    H175340   2.263   0.900  -0.033  0.1791  1.1956  0.2197
17975TIP3    H275341   2.383   0.846   0.043 -1.6266 -1.2998  1.4505
17976TIP3   OH275342   3.222   3.494   6.264  0.4624 -0.0313  1.1280
17976TIP3    H175343   3.185   3.550   6.196 -0.9115 -3.0171 -0.8371
17976TIP3    H275344   3.309   3.470   6.232  1.0781  0.9729  1.9972
17977TIP3   OH275345   0.144   3.207  11.092  0.1327 -0.4682 -0.1663
17977TIP3    H175346   0.188   3.174  11.014  1.5501  0.2110  0.3158
17977TIP3    H275347   0.158   3.139  11.158 -0.5739 -0.7798 -0.3215
17978TIP3   OH275348   3.052   5.436   1.742  0.0579  0.1051  0.5321
17978TIP3    H175349   3.005   5.358   1.712  0.3254  0.3251 -0.5118
17978TIP3    H275350   3.144   5.415   1.724  0.0203  1.2189 -1.1441
17979TIP3   OH275351   1.383   0.359   5.688 -0.4666  0.2725  0.2996
17979TIP3    H175352   1.455   0.375   5.627 -0.5360  0.3138  0.2274
17979TIP3    H275353   1.424   0.322   5.766 -0.2453  1.2642  0.6598
17980TIP3   OH275354   4.154   4.815   5.607  0.2970  0.1804 -0.1034
17980TIP3    H175355   4.066   4.787   5.633 -0.3380  1.7776 -0.4203
17980TIP3    H275356   4.179   4.879   5.674  1.5768 -0.8457  0.4393
17981TIP3   OH275357   1.597   2.710  14.435 -0.1213 -0.4628  0.8405
17981TIP3    H175358   1.611   2.802  14.411  0.8031 -0.8363 -0.1114
17981TIP3    H275359   1.553   2.714  14.520 -0.6513  0.8705  0.5322
17982TIP3   OH275360   2.190   5.937   3.560  0.1337 -0.2158  0.0698
17982TIP3    H175361   2.262   5.936   3.624  0.2759 -0.9476 -0.0992
17982TIP3    H275362   2.233   5.925   3.475 -0.1122  0.1719 -0.1112
17983TIP3   OH275363   4.915   3.618   3.325  0.0255 -0.4798 -0.2536
17983TIP3    H175364   4.999   3.571   3.335 -0.3441 -1.6394 -1.9735
17983TIP3    H275365   4.855   3.551   3.292 -0.9958  0.8378 -1.1484
17984TIP3   OH275366   0.294   0.420  11.626 -0.1220 -0.3958  0.0574
17984TIP3    H175367   0.282   0.423  11.531  1.3900 -0.9402 -0.1899
17984TIP3    H275368   0.374   0.368  11.638 -0.7346 -1.0325  1.6785
17985TIP3   OH275369   2.922   0.642   0.356  0.4464  0.2277 -0.0057
17985TIP3    H175370   2.999   0.619   0.408 -0.0255  0.1211  0.6564
17985TIP3    H275371   2.876   0.560   0.343 -0.8488  0.6346  1.7288
17986TIP3   OH275372   1.673   0.958  16.068  0.1748  0.5429  0.2559
17986TIP3    H175373   1.682   0.925  15.978 -2.7063 -0.7638  0.3426
17986TIP3    H275374   1.647   1.050  16.057  2.0717  1.0839 -0.1227
17987TIP3   OH275375   0.917   1.940  16.008  0.1254  0.4675 -0.4628
17987TIP3    H175376   0.826   1.955  15.983 -0.4059  0.9904  1.6487
17987TIP3    H275377   0.931   1.994  16.085  2.4685  0.9760 -1.1489
17988TIP3   OH275378   6.317   6.412  12.561 -0.5015  0.5016  0.6087
17988TIP3    H175379   6.297   6.322  12.536 -2.9356  0.3040  2.8489
17988TIP3    H275380   6.398   6.406  12.611  0.4918 -0.0794 -0.9951
17989TIP3   OH275381   4.211   1.931   1.328  0.3017 -0.3852  0.3252
17989TIP3    H175382   4.137   1.918   1.388 -0.4569 -1.1569 -0.7344
17989TIP3    H275383   4.256   2.008   1.362 -0.4536 -0.4469  1.5372
17990TIP3   OH275384   5.445   3.534  15.711 -0.6918 -0.0310 -0.0869
17990TIP3    H175385   5.476   3.472  15.777 -0.3211  0.9449  0.6817
17990TIP3    H275386   5.522   3.588  15.690 -1.0688  0.3475 -0.5354
17991TIP3   OH275387   5.135   4.002  14.484 -0.3758 -0.6927 -0.3865
17991TIP3    H175388   5.217   4.028  14.442  0.3927 -1.4297  0.6292
17991TIP3    H275389   5.069   4.056  14.442  0.7248  0.4229 -0.7340
17992TIP3   OH275390   4.570   3.219  16.972  0.4034  0.3386  0.2195
17992TIP3    H175391   4.539   3.199  17.060 -0.3541 -1.6859 -0.4329
17992TIP3    H275392   4.507   3.175  16.914  0.6297  1.9919 -1.3566
17993TIP3   OH275393   0.071   4.936   2.373  0.4459  0.2091 -0.0644
17993TIP3    H175394   0.027   4.932   2.288  0.9052  0.4261 -0.3194
17993TIP3    H275395   0.077   5.030   2.392  0.9520  0.1878 -0.1166
17994TIP3   OH275396   0.645   0.307   5.343 -0.2619  0.4036 -0.5036
17994TIP3    H175397   0.682   0.260   5.269  1.1068 -0.2884  0.5831
17994TIP3    H275398   0.710   0.298   5.413 -1.5863  0.8797  0.8489
17995TIP3   OH275399   1.959   0.396   0.806  0.0236  0.5631  0.5564
17995TIP3    H175400   1.914   0.342   0.741  0.4431 -1.5977  1.9628
17995TIP3    H275401   2.039   0.425   0.762 -0.5745  0.6872 -0.4769
17996TIP3   OH275402   1.819   0.574   5.026 -0.0870  0.3236 -0.4100
17996TIP3    H175403   1.790   0.589   4.936  1.4803  0.1775 -0.9685
17996TIP3    H275404   1.896   0.518   5.017  1.0668  1.6289  0.9232
17997TIP3   OH275405   1.885   5.796   1.842  0.2600  0.2451 -0.3712
17997TIP3    H175406   1.857   5.718   1.794  0.6923  0.1035 -0.4002
17997TIP3    H275407   1.804   5.833   1.878 -0.0376  0.2026 -0.9831
17998TIP3   OH275408   4.703   1.420  12.790 -0.0556  0.3295 -0.3209
17998TIP3    H175409   4.769   1.391  12.853  0.0207  1.1538 -0.0097
17998TIP3    H275410   4.620   1.397  12.830 -0.0635  1.9393  0.6868
17999TIP3   OH275411   5.831   1.600  14.113  0.2624  0.6750 -0.6230
17999TIP3    H175412   5.758   1.545  14.084 -1.5092  2.1144  0.8282
17999TIP3    H275413   5.909   1.554  14.083 -1.1919 -1.4475 -1.4082
18000TIP3   OH275414   4.826   3.477  17.093  0.4237 -0.7719 -0.5388
18000TIP3    H175415   4.747   3.429  17.119  0.1492 -1.2980 -2.2225
18000TIP3    H275416   4.833   3.549  17.156 -1.2095 -0.9047 -0.1768
18001TIP3   OH275417   5.047   0.987  15.987  0.0240 -0.1106  0.1337
18001TIP3    H175418   4.982   1.039  15.939  1.0961 -0.2950 -1.6398
18001TIP3    H275419   5.002   0.958  16.066 -2.6648 -1.7785 -1.8568
18002TIP3   OH275420   4.783   5.372   1.263  0.0377 -0.1546  0.1498
18002TIP3    H175421   4.739   5.288   1.272  0.5531 -0.2791  1.8900
18002TIP3    H275422   4.849   5.357   1.195 -0.8320 -0.7180 -0.5860
18003TIP3   OH275423   5.014   3.248   0.676  0.2972 -0.0926 -0.6232
18003TIP3    H175424   5.107   3.232   0.659  0.1343 -0.1660 -1.5122
18003TIP3    H275425   5.008   3.342   0.693  0.8467 -0.4290  1.7277
18004TIP3   OH275426   4.711   4.524  15.508 -0.2027 -0.1667  0.9033
18004TIP3    H175427   4.798   4.528  15.548  0.4987  0.1633 -0.6197
18004TIP3    H275428   4.709   4.438  15.465  0.5461  0.9800 -1.5837
18005TIP3   OH275429   3.595   4.893  15.218 -0.2893  0.1216  0.5598
18005TIP3    H175430   3.566   4.951  15.148 -1.7581  0.3219  1.2955
18005TIP3    H275431   3.515   4.860  15.257  0.3330  1.6276  3.4801
18006TIP3   OH275432   5.782   6.248   0.039 -0.2417  0.1691  0.6724
18006TIP3    H175433   5.718   6.184   0.007 -0.8297  0.4955  1.1767
18006TIP3    H275434   5.847   6.196   0.086  0.7953 -0.3629 -1.2169
18007TIP3   OH275435   1.257   2.998  16.341 -0.5324 -0.0078 -0.1783
18007TIP3    H175436   1.316   3.041  16.279  1.5785 -0.6858  1.2255
18007TIP3    H275437   1.303   2.917  16.365 -2.7233 -1.2829 -0.0413
18008TIP3   OH275438   4.282   0.245  16.277  0.3281 -0.6906  0.0430
18008TIP3    H175439   4.315   0.310  16.339 -2.2658  0.2231  0.6022
18008TIP3    H275440   4.253   0.296  16.202  2.1225 -1.6614 -1.3990
18009TIP3   OH275441   0.497   6.196   3.908  0.5209  0.5827 -0.6743
18009TIP3    H175442   0.591   6.197   3.923  0.5887  2.0703 -1.0526
18009TIP3    H275443   0.463   6.269   3.959 -0.4834 -0.1075 -0.3095
18010TIP3   OH275444   3.848   3.271   4.519  0.3653 -0.3512 -0.4765
18010TIP3    H175445   3.799   3.190   4.509  0.4117 -0.4338 -0.0452
18010TIP3    H275446   3.812   3.329   4.452 -1.2592  0.0398  0.6888
18011TIP3   OH275447   4.138   3.773   5.900  0.5381  0.2674  0.2687
18011TIP3    H175448   4.181   3.694   5.867 -0.1633  0.6196 -1.5587
18011TIP3    H275449   4.210   3.834   5.917  0.9752 -0.2274  0.2146
18012TIP3   OH275450   2.747   4.640   3.726  0.0061 -0.1645 -0.1774
18012TIP3    H175451   2.811   4.686   3.672 -0.0586 -0.3113 -0.3823
18012TIP3    H275452   2.784   4.641   3.814 -0.0331  0.3477 -0.1649
18013TIP3   OH275453   1.592   3.088  12.863  0.2544 -0.3657  0.9958
18013TIP3    H175454   1.660   3.156  12.873 -0.4704  1.0600 -2.2801
18013TIP3    H275455   1.640   3.012  12.831  0.4726  0.5962 -1.1889
18014TIP3   OH275456   1.784   1.730   6.538  0.0357  0.2059 -0.6100
18014TIP3    H175457   1.847   1.659   6.534 -1.0309 -0.9098  0.9886
18014TIP3    H275458   1.710   1.700   6.484 -0.2024  0.3208 -0.3525
18015TIP3   OH275459   2.259   2.262  14.712 -0.7936 -0.4164  0.4217
18015TIP3    H175460   2.321   2.189  14.714 -0.9318 -0.5693  3.2956
18015TIP3    H275461   2.175   2.224  14.736 -1.7268  0.0838 -1.8185
18016TIP3   OH275462   0.107   6.197   5.765  0.2015  0.1037 -0.4399
18016TIP3    H175463   0.101   6.111   5.807  0.3236  0.1448 -0.3384
18016TIP3    H275464   0.096   6.259   5.837  0.2772  0.1738 -0.4887
18017TIP3   OH275465   6.383   3.692  15.421  0.5037  0.1554 -0.1469
18017TIP3    H175466   6.412   3.737  15.342 -0.2837  0.9042 -0.0221
18017TIP3    H275467   6.436   3.732  15.491 -0.7517  1.4970  0.0754
18018TIP3   OH275468   4.464   5.376  16.564 -0.2184  0.3843  0.2100
18018TIP3    H175469   4.377   5.391  16.602 -1.2535 -0.0533 -1.8388
18018TIP3    H275470   4.454   5.294  16.514  1.6968 -0.2600  0.8212
18019TIP3   OH275471   6.565   1.521   5.917 -0.0851 -0.2810  0.1063
18019TIP3    H175472   6.575   1.436   5.874  0.0121  0.7891 -2.1069
18019TIP3    H275473   6.649   1.565   5.904 -1.3365  1.6336 -2.3440
18020TIP3   OH275474   4.939   0.557   1.436  0.0837  0.5418 -0.0231
18020TIP3    H175475   5.023   0.529   1.471 -0.4920 -0.0774  0.9454
18020TIP3    H275476   4.876   0.495   1.474 -1.2246  2.8579  1.8385
18021TIP3   OH275477   1.435   5.393  16.778  0.1182 -0.4629  0.5623
18021TIP3    H175478   1.490   5.428  16.708  0.7164  0.4028  1.4442
18021TIP3    H275479   1.496   5.349  16.837 -0.4090 -1.3936  0.4399
18022TIP3   OH275480   2.982   3.116   3.276 -0.4069 -0.0475  0.1975
18022TIP3    H175481   3.013   3.193   3.322 -3.1283  1.6292 -0.5515
18022TIP3    H275482   2.892   3.104   3.306 -0.6039 -1.9321 -0.9561
18023TIP3   OH275483   2.597   3.817   4.282 -0.0204 -0.0243 -0.3057
18023TIP3    H175484   2.623   3.764   4.207 -0.1634  1.1093 -1.1814
18023TIP3    H275485   2.670   3.878   4.294 -0.3108  0.2622  0.0364
18024TIP3   OH275486   5.397   4.736  13.982  0.0660 -0.3375 -0.2717
18024TIP3    H175487   5.444   4.734  14.065 -0.1873  0.8692 -0.0813
18024TIP3    H275488   5.305   4.746  14.006  0.1763  2.4539 -0.6642
18025TIP3   OH275489   2.187   2.381  11.255  0.2991  0.0420  0.4557
18025TIP3    H175490   2.269   2.416  11.288  2.4865 -1.1637 -3.1172
18025TIP3    H275491   2.143   2.456  11.215  0.2989  0.4345  1.1800
18026TIP3   OH275492   1.892   4.254   0.413 -0.9440 -0.0785  0.7672
18026TIP3    H175493   1.862   4.182   0.469  1.7305 -2.0454 -0.0948
18026TIP3    H275494   1.972   4.285   0.456  0.0245 -0.2509 -0.8141
18027TIP3   OH275495   1.815   4.202   5.799  0.0585  0.1810 -0.5084
18027TIP3    H175496   1.881   4.132   5.793  1.0851  1.0992 -0.2261
18027TIP3    H275497   1.860   4.274   5.843 -0.0293  2.1029 -3.3156
18028TIP3   OH275498   5.666   0.010   4.860 -0.0443  0.6525 -0.0162
18028TIP3    H175499   5.689   0.043   4.946  0.6220  1.4217 -0.4704
18028TIP3    H275500   5.750  -0.003   4.816 -0.0818 -3.3828  0.6816
18029TIP3   OH275501   1.129   5.959   2.380  0.0961  0.8662 -0.2707
18029TIP3    H175502   1.175   5.955   2.464  0.7418  0.6343 -0.6259
18029TIP3    H275503   1.118   6.052   2.362  0.6078  0.9293 -0.2703
18030TIP3   OH275504   3.872   1.082   0.093  0.0245  0.1601  0.3554
18030TIP3    H175505   3.965   1.065   0.106  0.4439  1.0144 -1.2799
18030TIP3    H275506   3.853   1.155   0.152  0.3734 -0.0557  0.7403
18031TIP3   OH275507   1.304   3.543   2.899 -0.2396 -0.2439 -0.0442
18031TIP3    H175508   1.291   3.531   2.805 -0.7832 -0.3176  0.0349
18031TIP3    H275509   1.397   3.526   2.914  0.5387  2.6188 -1.0123
18032TIP3   OH275510   4.632   0.990  13.872  0.3663 -0.1615 -0.3821
18032TIP3    H175511   4.635   0.966  13.965 -1.6261 -1.0331 -0.4814
18032TIP3    H275512   4.572   1.065  13.869 -0.3185 -0.7133 -1.0361
18033TIP3   OH275513   2.020   6.052   0.090  0.2878  0.2589 -0.2439
18033TIP3    H175514   2.069   5.971   0.079 -0.3930 -0.1894 -0.0590
18033TIP3    H275515   2.030   6.074   0.183  0.4182  0.3589 -0.2803
18034TIP3   OH275516   2.052   0.925   2.863 -0.2984 -0.3060 -0.4013
18034TIP3    H175517   2.015   0.997   2.812  0.2423 -1.2568 -2.2060
18034TIP3    H275518   2.144   0.951   2.878 -0.9612  1.0065  2.1486
18035TIP3   OH275519   0.021   6.155  16.581  0.4603  0.2097  0.4062
18035TIP3    H175520  -0.036   6.231  16.569 -0.9036 -0.8679 -0.2259
18035TIP3    H275521   0.069   6.174  16.661 -0.5892  1.2903  0.8130
18036TIP3   OH275522   5.714   6.647  15.984 -0.0734 -0.1171  0.8766
18036TIP3    H175523   5.675   6.734  15.985  0.5897  0.3293 -2.1317
18036TIP3    H275524   5.666   6.599  15.917  1.5310 -1.0303  0.3025
18037TIP3   OH275525   1.086   2.293   3.833 -0.4407  0.0870  0.0396
18037TIP3    H175526   1.156   2.231   3.813 -0.8541 -1.5239  2.8900
18037TIP3    H275527   1.025   2.286   3.760  1.0253 -0.5537 -1.1612
18038TIP3   OH275528   4.436   2.334  15.006  0.4585  0.4638 -0.3143
18038TIP3    H175529   4.445   2.259  14.946  0.8406 -0.4908  0.8820
18038TIP3    H275530   4.526   2.357  15.030  0.2895  0.1437  0.6857
18039TIP3   OH275531   5.500   2.563   2.415  0.1265 -0.2159  0.3274
18039TIP3    H175532   5.538   2.596   2.496  0.7325 -1.3804  0.5391
18039TIP3    H275533   5.544   2.480   2.400  1.4680  0.8459 -2.2284
18040TIP3   OH275534   2.116   0.658   2.181  0.2369  0.6640 -0.3380
18040TIP3    H175535   2.037   0.710   2.169 -0.4166  0.0424  1.0293
18040TIP3    H275536   2.109   0.625   2.271  1.8865  0.3245 -0.3082
18041TIP3   OH275537   1.423   2.031   3.491 -0.6500 -0.5742  0.2587
18041TIP3    H175538   1.468   1.988   3.563 -0.7703  0.3273  0.8772
18041TIP3    H275539   1.343   1.979   3.478  0.4020 -2.0456 -0.6994
18042TIP3   OH275540   1.140   5.150  16.454  0.2047 -0.0062  0.0833
18042TIP3    H175541   1.154   5.226  16.398  0.0749 -1.5449 -2.1723
18042TIP3    H275542   1.218   5.146  16.508 -0.0546  2.0408  0.6887
18043TIP3   OH275543   4.351   3.996   4.395 -0.0376 -0.4383  0.9234
18043TIP3    H175544   4.263   4.024   4.421 -0.2884 -0.6366  0.3050
18043TIP3    H275545   4.366   4.038   4.311  1.4511  1.5782  2.1184
18044TIP3   OH275546   3.249   2.023  15.561  0.7822 -0.1139  0.1073
18044TIP3    H175547   3.313   2.009  15.631  2.2914  2.1396 -0.6843
18044TIP3    H275548   3.190   2.089  15.596 -1.5569 -2.5297  1.0152
18045TIP3   OH275549   3.294   0.397   0.844  0.4418  0.1297 -0.7692
18045TIP3    H175550   3.254   0.399   0.931  2.0017 -1.0987  0.0150
18045TIP3    H275551   3.266   0.313   0.807  0.6239  0.1891 -1.0461
18046TIP3   OH275552   1.857   6.273  11.989 -0.0089  0.3817 -0.5088
18046TIP3    H175553   1.890   6.184  12.003  1.2338  0.8603 -0.2734
18046TIP3    H275554   1.818   6.297  12.073  1.7722  0.9055  0.2139
18047TIP3   OH275555   2.727   2.334   2.207 -0.0113  0.7083 -0.0399
18047TIP3    H175556   2.699   2.420   2.237 -0.7001  0.5397 -0.1868
18047TIP3    H275557   2.733   2.281   2.286 -0.8977  0.5303 -0.0734
18048TIP3   OH275558   4.327   3.181  12.311  0.3964  0.4468 -0.6556
18048TIP3    H175559   4.378   3.258  12.337  0.1453  0.5703 -0.5273
18048TIP3    H275560   4.327   3.183  12.215  2.3828 -0.6914 -0.7517
18049TIP3   OH275561   5.220   1.505  15.858  0.1524  0.4323  0.4992
18049TIP3    H175562   5.315   1.492  15.860  0.3569  1.7890  0.1337
18049TIP3    H275563   5.184   1.417  15.872  1.4562 -0.1556  0.3197
18050TIP3   OH275564   4.926   1.593  16.160  0.5129  0.0390  0.0948
18050TIP3    H175565   4.844   1.599  16.209  0.9756  0.6591  0.8197
18050TIP3    H275566   4.931   1.501  16.133 -1.1398  0.3000 -1.2751
18051TIP3   OH275567   5.357   5.124  14.820  0.1216  0.5342  0.4990
18051TIP3    H175568   5.263   5.119  14.839 -0.0761 -0.0842 -0.5803
18051TIP3    H275569   5.361   5.157  14.730  0.9673  1.3056  0.8084
18052TIP3   OH275570   4.402   1.430   5.363  0.1327 -0.6552  0.3186
18052TIP3    H175571   4.417   1.509   5.416 -3.0743  1.7339 -1.9298
18052TIP3    H275572   4.404   1.358   5.427  2.8648  1.1560  2.5386
18053TIP3   OH275573   1.552   2.887  16.101 -0.3912 -0.2952  0.1981
18053TIP3    H175574   1.621   2.912  16.040 -2.0324  2.3711 -0.7523
18053TIP3    H275575   1.476   2.870  16.045 -1.4625  0.4820  1.3685
18054TIP3   OH275576   4.128   2.697  11.814  0.1231 -0.2959 -0.6995
18054TIP3    H175577   4.164   2.761  11.875 -0.7741  1.3679 -1.8230
18054TIP3    H275578   4.133   2.741  11.729 -0.8224 -1.6129 -1.4645
18055TIP3   OH275579   1.033   0.702   1.020  0.2509 -0.2408  0.0333
18055TIP3    H175580   1.052   0.792   1.047  1.3961 -0.3485 -0.3667
18055TIP3    H275581   1.020   0.707   0.925  0.2449 -0.4902  0.0197
18056TIP3   OH275582   5.794   3.485  14.336 -0.0046  0.6263  0.2994
18056TIP3    H175583   5.778   3.401  14.294 -3.4613  1.0041  0.5908
18056TIP3    H275584   5.869   3.522  14.289  1.7515 -2.5813  0.2721
18057TIP3   OH275585   6.256   6.154   3.790  0.4457 -0.7345 -0.6059
18057TIP3    H175586   6.322   6.142   3.858  0.0237  0.5263  0.0495
18057TIP3    H275587   6.173   6.157   3.838  0.1410  0.1383 -1.1763
18058TIP3   OH275588   5.155   3.690  15.701  0.6147 -0.3338 -0.5730
18058TIP3    H175589   5.062   3.707  15.693  0.4701 -0.2352  0.9672
18058TIP3    H275590   5.196   3.752  15.640 -0.1753  2.0558  1.1393
18059TIP3   OH275591   3.326   4.167   3.694 -0.3961  0.6874  0.5549
18059TIP3    H175592   3.325   4.087   3.642 -3.0562  1.3161 -0.5007
18059TIP3    H275593   3.414   4.203   3.681 -0.0923 -0.6033 -1.2788
18060TIP3   OH275594   0.492   5.116  14.515  0.3561 -0.2943  0.5568
18060TIP3    H175595   0.482   5.183  14.446  1.0518 -1.1316 -0.3869
18060TIP3    H275596   0.446   5.153  14.590  0.3472  1.0591 -0.0715
18061TIP3   OH275597   1.184   1.373   3.444 -0.2264 -0.4781 -0.1733
18061TIP3    H175598   1.135   1.316   3.502 -0.2797  0.7050  0.9957
18061TIP3    H275599   1.261   1.322   3.419  0.2415 -0.7500  1.6533
18062TIP3   OH275600   0.133   3.216  15.739  0.3397 -0.1238  0.8365
18062TIP3    H175601   0.049   3.215  15.785 -0.0270  0.5521  0.2064
18062TIP3    H275602   0.176   3.297  15.769  0.6615 -0.3401  0.9677
18063TIP3   OH275603   3.693   3.799  14.751 -0.5498 -0.0717  0.4599
18063TIP3    H175604   3.782   3.769  14.770 -0.5678 -0.1700  0.3880
18063TIP3    H275605   3.642   3.719  14.741  0.0916 -0.1759 -3.2078
18064TIP3   OH275606   0.672   0.209  13.813 -0.2595  0.4956 -0.1438
18064TIP3    H175607   0.590   0.255  13.794  0.2120  0.9113 -1.2973
18064TIP3    H275608   0.678   0.142  13.745  1.1155  1.5069 -1.0667
18065TIP3   OH275609   0.163   0.452   5.779 -0.0763 -0.9806 -0.0585
18065TIP3    H175610   0.075   0.454   5.817 -0.9888 -1.0229 -2.0726
18065TIP3    H275611   0.204   0.374   5.819 -1.1868 -1.3674  0.3690
18066TIP3   OH275612   1.356   1.671  12.473  0.1348 -0.1124 -0.3828
18066TIP3    H175613   1.416   1.744  12.489 -3.2519  2.3725  2.7453
18066TIP3    H275614   1.296   1.703  12.406  1.3817 -2.0742 -2.5664
18067TIP3   OH275615   5.228   3.007  14.772  0.3153 -0.1224 -0.3958
18067TIP3    H175616   5.267   2.984  14.857 -0.7304 -1.4496 -0.2482
18067TIP3    H275617   5.142   3.044  14.794  0.0644 -0.4151 -0.8768
18068TIP3   OH275618   2.638   0.524  13.789 -0.4498  0.5219  0.3422
18068TIP3    H175619   2.708   0.535  13.725 -0.6020  1.3202  0.2974
18068TIP3    H275620   2.666   0.451  13.844 -0.0337  0.2217 -0.2594
18069TIP3   OH275621   1.449   0.874   0.926  1.1701  0.3399 -0.6813
18069TIP3    H175622   1.409   0.917   1.002  3.1840  0.9793  0.0938
18069TIP3    H275623   1.405   0.790   0.920 -1.2950  1.5729 -0.8317
18070TIP3   OH275624   2.637   4.357   1.016 -0.6105 -0.0353 -0.2026
18070TIP3    H175625   2.608   4.445   1.041 -0.0032  0.2406 -0.4338
18070TIP3    H275626   2.598   4.299   1.081  1.5488  0.7248  1.9048
18071TIP3   OH275627   4.760   4.379   2.594  0.3345 -0.4074 -0.0717
18071TIP3    H175628   4.815   4.302   2.578 -2.6465 -2.9136  0.8255
18071TIP3    H275629   4.782   4.439   2.522  1.9476 -2.5979 -1.5472
18072TIP3   OH275630   2.355   4.324   2.279 -0.4205  0.0346 -0.1266
18072TIP3    H175631   2.269   4.363   2.294 -0.2451  0.1294  0.6978
18072TIP3    H275632   2.346   4.274   2.198 -1.6878 -1.2141  0.7468
18073TIP3   OH275633   4.399   1.074   6.409 -0.2414 -0.9515  0.3715
18073TIP3    H175634   4.407   1.136   6.481  1.5480 -1.1267  0.3763
18073TIP3    H275635   4.316   1.028   6.426 -0.0977 -0.6609  2.0501
18074TIP3   OH275636   4.853   3.320  17.384 -0.2297 -0.7164  0.2278
18074TIP3    H175637   4.807   3.370  17.452 -0.0207  0.9565 -0.7924
18074TIP3    H275638   4.934   3.368  17.369 -0.5958 -0.6090 -1.6910
18075TIP3   OH275639   0.986   5.565   3.540 -0.1942  0.2426 -0.2143
18075TIP3    H175640   0.933   5.605   3.471  1.2598  2.8384  0.0458
18075TIP3    H275641   1.073   5.556   3.501  0.6597  1.7835  1.2001
18076TIP3   OH275642   6.612   0.351  17.369  0.0596 -0.5483  0.4225
18076TIP3    H175643   6.594   0.445  17.373  1.6429 -0.1441 -0.7798
18076TIP3    H275644   6.541   0.315  17.316  0.4062  0.2988 -0.6608
18077TIP3   OH275645   1.314   3.453  12.390  0.0798  0.0012 -0.2823
18077TIP3    H175646   1.240   3.470  12.332 -0.7656  3.0669  1.4537
18077TIP3    H275647   1.365   3.534  12.388  1.8803 -1.0446  0.6862
18078TIP3   OH275648   1.065   4.199   2.444 -0.3298  0.2844  0.0663
18078TIP3    H175649   1.114   4.146   2.507  1.1655  0.6928 -0.6948
18078TIP3    H275650   1.028   4.135   2.383 -0.6101 -0.0274  0.5566
18079TIP3   OH275651   2.409   1.928   5.035  0.1844 -0.5749  0.4064
18079TIP3    H175652   2.415   1.923   4.940 -2.7509 -0.4164  0.1134
18079TIP3    H275653   2.438   1.843   5.067 -0.6775 -1.3265 -0.7801
18080TIP3   OH275654   1.736   3.448  11.793 -0.0773 -0.5465 -0.2281
18080TIP3    H175655   1.693   3.527  11.760 -0.1189 -0.4563  0.0371
18080TIP3    H275656   1.830   3.467  11.784 -0.0928 -0.6520 -0.5954
18081TIP3   OH275657   2.611   4.707   1.389 -0.2372 -0.5268 -0.2238
18081TIP3    H175658   2.692   4.758   1.379  0.5394 -1.7649 -0.4844
18081TIP3    H275659   2.640   4.616   1.389 -1.4538 -0.9569  1.5017
18082TIP3   OH275660   6.760   3.801   5.873 -0.6180  0.1792  0.5442
18082TIP3    H175661   6.719   3.845   5.947  0.1632  1.2191  0.3742
18082TIP3    H275662   6.758   3.866   5.803  2.7830  0.9259  0.9890
18083TIP3   OH275663   2.726   2.390   5.554 -0.2956 -0.0135 -0.0322
18083TIP3    H175664   2.818   2.385   5.580 -0.2907 -1.3838 -0.2748
18083TIP3    H275665   2.724   2.462   5.491  0.0099  2.1622  2.2562
18084TIP3   OH275666   5.963   3.137   1.088 -0.5594  0.4590 -0.3259
18084TIP3    H175667   5.898   3.186   1.137  0.7771  2.6577 -0.6155
18084TIP3    H275668   5.989   3.196   1.016  2.1434 -0.0323  0.1174
18085TIP3   OH275669   6.694   3.639   0.217 -0.1088  0.2030 -0.4835
18085TIP3    H175670   6.663   3.675   0.134 -0.1634  1.5508  0.1016
18085TIP3    H275671   6.787   3.662   0.220  0.0600 -0.4496 -0.4711
18086TIP3   OH275672   4.612   5.228  14.284 -0.2016  0.0344  0.2289
18086TIP3    H175673   4.691   5.243  14.337 -0.4063 -2.4274  1.3653
18086TIP3    H275674   4.619   5.137  14.256 -1.5360  0.4660 -1.6245
18087TIP3   OH275675   6.207   0.419   5.874  0.1552 -0.1926  0.5815
18087TIP3    H175676   6.114   0.427   5.854  0.3460 -1.7870 -1.2454
18087TIP3    H275677   6.217   0.330   5.908  1.5202 -1.8572 -3.4704
18088TIP3   OH275678   1.476   2.295  15.948 -0.4700 -0.3886  0.0069
18088TIP3    H175679   1.476   2.391  15.947  0.4737 -0.2373 -4.0266
18088TIP3    H275680   1.569   2.271  15.947 -0.6925 -1.4255  1.1750
18089TIP3   OH275681   1.383   5.448  13.078 -0.2541  0.2255 -0.2351
18089TIP3    H175682   1.434   5.436  12.998 -1.5237 -1.9120 -0.8203
18089TIP3    H275683   1.417   5.381  13.137 -0.2983  0.8442  0.4939
18090TIP3   OH275684   1.764   3.415  13.248  0.0239  0.5370  0.2667
18090TIP3    H175685   1.699   3.409  13.178 -0.7235 -0.0030  0.9755
18090TIP3    H275686   1.816   3.492  13.227  2.2520 -1.6006 -2.8749
18091TIP3   OH275687   1.546   1.871  15.878  0.1292 -0.2753  0.0044
18091TIP3    H175688   1.535   1.791  15.826  4.1113 -2.1179  1.5815
18091TIP3    H275689   1.602   1.927  15.823  0.1858 -0.0582  0.2804
18092TIP3   OH275690   4.307   2.716   1.604 -0.2002  0.2494 -0.2844
18092TIP3    H175691   4.315   2.661   1.683  1.3728 -0.4451 -0.8908
18092TIP3    H275692   4.228   2.683   1.561  0.2099 -0.9462 -0.1675
18093TIP3   OH275693   1.161   2.995   5.673 -0.4730 -0.7722 -0.1266
18093TIP3    H175694   1.160   3.089   5.657 -2.4665 -0.2970  2.2372
18093TIP3    H275695   1.076   2.976   5.714  0.1979 -3.4531  0.2483
18094TIP3   OH275696   1.185   6.379  13.470 -0.6792 -0.0341  0.1365
18094TIP3    H175697   1.177   6.332  13.553 -1.1583  0.2107  0.2294
18094TIP3    H275698   1.190   6.471  13.494 -0.5331  0.0187 -0.0912
18095TIP3   OH275699   0.047   4.241   2.433  0.1928 -0.4882  0.1484
18095TIP3    H175700   0.008   4.165   2.476 -1.0286 -1.0109 -1.7937
18095TIP3    H275701   0.123   4.206   2.387  0.3187 -0.3187  0.2297
18096TIP3   OH275702   1.338   1.462  14.772  0.1128  0.3239  0.0637
18096TIP3    H175703   1.366   1.431  14.858 -0.9655  0.2010  0.3810
18096TIP3    H275704   1.383   1.546  14.761 -0.4595  0.7905  1.1561
18097TIP3   OH275705   1.546   2.278  11.968 -0.3206 -0.1051 -0.1137
18097TIP3    H175706   1.544   2.258  12.061  0.0781  1.5704  0.2917
18097TIP3    H275707   1.479   2.222  11.929 -0.9499 -0.3455  1.2806
18098TIP3   OH275708   3.573   1.757  11.333 -0.0944  0.4868 -0.5237
18098TIP3    H175709   3.620   1.679  11.303  1.6327  1.2855 -0.0464
18098TIP3    H275710   3.546   1.801  11.252 -0.5121 -0.2538 -0.8022
18099TIP3   OH275711   1.885   0.309  12.733  0.0232  0.0323  0.6900
18099TIP3    H175712   1.823   0.346  12.795  0.1325  0.4356  0.5648
18099TIP3    H275713   1.936   0.385  12.702  0.7148 -0.3183  0.9474
18100TIP3   OH275714   5.189   6.401   2.097  0.3526  0.7227  0.0497
18100TIP3    H175715   5.102   6.439   2.107  0.4112  0.8137  0.2333
18100TIP3    H275716   5.213   6.375   2.186  0.1363 -0.1340 -0.1349
18101TIP3   OH275717   0.908   3.728   4.220 -0.6254 -0.2302 -0.0755
18101TIP3    H175718   0.820   3.747   4.253 -0.5214  0.1364 -0.0096
18101TIP3    H275719   0.942   3.813   4.192  0.2512 -0.1456  1.1895
18102TIP3   OH275720   4.309   5.338   2.140  0.1673  0.1846  0.1330
18102TIP3    H175721   4.311   5.242   2.144  0.0613  0.0981 -1.2990
18102TIP3    H275722   4.232   5.363   2.191 -0.3204 -0.5652 -0.2141
18103TIP3   OH275723   1.096   5.436  16.843 -0.0094 -0.2507  0.2704
18103TIP3    H175724   1.153   5.480  16.906  0.7672  1.3888 -1.4856
18103TIP3    H275725   1.082   5.501  16.774 -0.9559 -1.9235 -1.1820
18104TIP3   OH275726   4.786   4.469   4.049  0.5449 -0.0492 -0.1844
18104TIP3    H175727   4.716   4.484   3.986  1.0394  2.5360 -0.2233
18104TIP3    H275728   4.861   4.441   3.996  0.1774 -0.6871 -0.3798
18105TIP3   OH275729   4.564   5.517   0.141  1.0006  0.1281 -0.6038
18105TIP3    H175730   4.613   5.550   0.216 -0.2632  0.3516  0.1380
18105TIP3    H275731   4.629   5.511   0.071  2.0962  0.3646  0.3677
18106TIP3   OH275732   5.090   4.879  11.514 -0.0387 -0.1181 -0.6197
18106TIP3    H175733   5.079   4.967  11.550  0.2110 -0.4067  0.1952
18106TIP3    H275734   5.063   4.820  11.585 -0.9364 -0.6987 -1.4199
18107TIP3   OH275735   0.408   2.582   5.684  0.4064 -0.9973  0.4842
18107TIP3    H175736   0.499   2.560   5.704  0.9202 -1.0060 -1.6436
18107TIP3    H275737   0.371   2.608   5.768  3.1895  1.8765  0.9951
18108TIP3   OH275738   5.739   6.719   6.164  0.1810  0.3164 -0.2499
18108TIP3    H175739   5.766   6.629   6.144 -1.9929 -0.4782  0.1593
18108TIP3    H275740   5.669   6.710   6.228 -0.3233  2.2986 -0.4465
18109TIP3   OH275741   5.905   2.351  13.022 -0.2753  0.2570  0.4111
18109TIP3    H175742   5.971   2.401  12.973 -1.4586  1.0114 -0.4866
18109TIP3    H275743   5.825   2.403  13.012 -0.8501 -0.2539  2.0872
18110TIP3   OH275744   6.334   3.141  14.913 -0.3418  0.3557 -0.0951
18110TIP3    H175745   6.383   3.187  14.845  0.7054  0.4400  0.6907
18110TIP3    H275746   6.357   3.049  14.902 -2.5983 -0.1000 -1.7996
18111TIP3   OH275747   0.021   6.170   0.558  0.4130  0.1100  0.2196
18111TIP3    H175748   0.093   6.155   0.619  1.8243 -0.6063 -1.5124
18111TIP3    H275749  -0.035   6.093   0.568  0.7295 -0.0900  0.4748
18112TIP3   OH275750   2.324   5.371  14.749 -0.1397 -0.8744 -0.1984
18112TIP3    H175751   2.293   5.392  14.837 -1.0009 -0.1152 -0.6610
18112TIP3    H275752   2.348   5.455  14.711  0.8421 -1.2642 -0.4806
18113TIP3   OH275753   3.032   6.734   4.683  0.2362  0.4891 -0.3067
18113TIP3    H175754   2.936   6.730   4.688 -0.0552  3.5266 -1.3584
18113TIP3    H275755   3.055   6.677   4.610 -0.9586  1.0450 -1.1361
18114TIP3   OH275756   0.542   0.945  17.390 -0.0278 -0.1872 -0.4247
18114TIP3    H175757   0.508   0.964  17.478 -0.2681  1.7917 -0.8816
18114TIP3    H275758   0.464   0.921  17.340  0.0286 -0.7965 -0.2189
18115TIP3   OH275759   2.471   1.301  14.468  0.2773 -0.8095  0.0220
18115TIP3    H175760   2.499   1.215  14.437 -1.0020 -0.1669 -3.3755
18115TIP3    H275761   2.530   1.362  14.425  0.6941  0.1064  1.8099
18116TIP3   OH275762   5.213   1.509  13.359 -0.7093 -0.3313 -0.5242
18116TIP3    H175763   5.135   1.454  13.363 -0.6978 -0.2987  2.3148
18116TIP3    H275764   5.181   1.593  13.326 -1.6945 -0.6071 -0.3087
18117TIP3   OH275765   1.488   2.496  12.403 -0.0148  0.0788  0.6097
18117TIP3    H175766   1.533   2.544  12.333 -1.5849  2.1205  0.9237
18117TIP3    H275767   1.551   2.430  12.430  1.5343  0.7348 -1.1371
18118TIP3   OH275768   3.109   0.328  12.628 -0.0019  0.2123  0.2855
18118TIP3    H175769   3.173   0.266  12.592  0.7860  2.0999 -1.7533
18118TIP3    H275770   3.154   0.368  12.703  0.3914  0.0696  0.1268
18119TIP3   OH275771   2.719   2.398   4.146  0.0871  0.4486  0.1467
18119TIP3    H175772   2.766   2.467   4.099  0.6248  0.6914  1.0221
18119TIP3    H275773   2.787   2.352   4.196 -0.2500 -0.7507 -0.4503
18120TIP3   OH275774   0.343   4.968   4.939  0.4389  0.0908  0.0320
18120TIP3    H175775   0.404   5.002   5.006 -0.2921  1.8920 -0.1446
18120TIP3    H275776   0.325   5.044   4.884 -1.5022 -0.5545 -0.2790
18121TIP3   OH275777   1.525   0.159  16.257 -0.2058  0.2757 -0.1292
18121TIP3    H175778   1.514   0.175  16.350  0.1820  1.5598 -0.2898
18121TIP3    H275779   1.592   0.090  16.252 -0.2505  0.1800  0.5313
18122TIP3   OH275780   4.446   0.150  14.353 -0.1436 -0.0561  0.3296
18122TIP3    H175781   4.424   0.242  14.344 -0.4893 -0.2572 -1.2055
18122TIP3    H275782   4.458   0.119  14.263 -2.9195 -2.2095  0.5563
18123TIP3   OH275783   2.656   2.055   0.364 -0.2638 -0.0325 -0.5010
18123TIP3    H175784   2.591   1.988   0.342  0.2662 -1.1221  1.1259
18123TIP3    H275785   2.738   2.007   0.374 -0.0489  0.6863  1.6239
18124TIP3   OH275786   2.021   6.281  10.673  0.4586  0.1202  0.3468
18124TIP3    H175787   2.015   6.368  10.635 -0.9669 -0.0836  0.0761
18124TIP3    H275788   2.103   6.245  10.638  0.3770  0.8362 -0.5973
18125TIP3   OH275789   0.204   2.280  16.640 -0.3549 -0.4299 -0.6994
18125TIP3    H175790   0.147   2.331  16.584 -2.5259 -1.0156  0.8519
18125TIP3    H275791   0.273   2.341  16.667 -0.3870  0.3821 -2.3506
18126TIP3   OH275792   2.597   2.718  11.305 -0.3266  0.7023 -0.2457
18126TIP3    H175793   2.603   2.780  11.233  0.2227  1.7686  0.6945
18126TIP3    H275794   2.652   2.755  11.375 -0.7123 -0.3727  0.6741
18127TIP3   OH275795   3.355   3.750   0.251  0.6019 -0.3045 -0.2382
18127TIP3    H175796   3.368   3.709   0.336  0.2677  2.2561  1.1459
18127TIP3    H275797   3.307   3.831   0.270 -0.8513 -0.3829 -3.0457
18128TIP3   OH275798   5.174   0.312  11.575  0.1857  0.3113 -0.4326
18128TIP3    H175799   5.131   0.361  11.505 -0.3480  0.5269  0.0389
18128TIP3    H275800   5.129   0.340  11.655  1.8473  1.3281  0.2075
18129TIP3   OH275801   0.969   4.687  16.818 -0.5765  0.2549 -0.0024
18129TIP3    H175802   1.050   4.683  16.767 -1.3041  1.3712 -1.3232
18129TIP3    H275803   0.945   4.595  16.832  0.4131 -0.0791 -0.4296
18130TIP3   OH275804   3.887   0.611   4.271  0.0051 -0.4979  0.2428
18130TIP3    H175805   3.903   0.520   4.249 -1.0538 -0.6414 -0.0131
18130TIP3    H275806   3.807   0.633   4.223  0.0257  0.4391  0.6204
18131TIP3   OH275807   3.991   3.469  12.420 -0.0863 -0.4171 -0.2967
18131TIP3    H175808   3.921   3.443  12.360 -0.9595 -0.5528  0.7583
18131TIP3    H275809   4.035   3.541  12.375 -0.4345 -0.8127 -1.3021
18132TIP3   OH275810   0.732   0.697   2.228 -0.0204 -0.2591  0.1754
18132TIP3    H175811   0.753   0.734   2.142 -0.1998 -1.1283 -0.2533
18132TIP3    H275812   0.767   0.760   2.291  2.7514 -1.0031 -0.5057
18133TIP3   OH275813   6.392   3.252   1.225  0.3626  0.5760 -0.4344
18133TIP3    H175814   6.349   3.241   1.310  0.9282  2.3674  0.1426
18133TIP3    H275815   6.331   3.305   1.174  0.5459  0.5202 -0.7131
18134TIP3   OH275816   0.714   2.020   0.961 -0.2554 -0.1652 -0.5740
18134TIP3    H175817   0.755   1.977   0.886  1.6963  0.9571 -0.2360
18134TIP3    H275818   0.682   2.103   0.926  0.4122  0.2380 -0.2530
18135TIP3   OH275819   3.640   4.363   3.413 -0.2636  0.0998 -0.2234
18135TIP3    H175820   3.700   4.435   3.395 -0.5269 -0.0292 -1.7930
18135TIP3    H275821   3.558   4.388   3.369  0.2334 -2.0041 -2.6237
18136TIP3   OH275822   1.634   5.038  15.850  0.0041 -0.0105  0.5694
18136TIP3    H175823   1.543   5.042  15.821  0.0009 -1.2608  0.3743
18136TIP3    H275824   1.676   4.977  15.790  1.3117  1.5490 -0.1812
18137TIP3   OH275825   4.508   0.114  14.073  0.3975  0.0293 -0.0557
18137TIP3    H175826   4.588   0.126  14.022 -0.6817  1.3088 -1.5568
18137TIP3    H275827   4.442   0.090  14.009 -0.7927  0.6092  0.9149
18138TIP3   OH275828   3.332   1.310  16.726 -0.3378  0.3213 -0.0945
18138TIP3    H175829   3.291   1.391  16.755 -0.8846  0.0477 -0.0900
18138TIP3    H275830   3.262   1.262  16.682  0.1068  0.0709 -0.5382
18139TIP3   OH275831   0.356   5.703   3.048  0.0175  0.2351 -0.2290
18139TIP3    H175832   0.420   5.689   3.119 -1.1050 -0.6872  0.6347
18139TIP3    H275833   0.279   5.739   3.092 -2.0931 -3.7052 -0.2285
18140TIP3   OH275834   3.904   2.557   1.536 -0.2200  0.1386 -0.6398
18140TIP3    H175835   3.876   2.528   1.623  2.1120  0.7109  0.3843
18140TIP3    H275836   3.871   2.647   1.529  1.3083  0.8497  0.5891
18141TIP3   OH275837   6.060   6.324   4.176  0.3629  0.2014 -0.5183
18141TIP3    H175838   6.079   6.285   4.261 -2.6640  0.5279  0.4237
18141TIP3    H275839   6.125   6.287   4.117  2.1491 -0.5371  1.7827
18142TIP3   OH275840   5.520   0.896   2.944 -0.5025 -0.5186 -0.1241
18142TIP3    H175841   5.567   0.847   2.877 -0.5944 -1.8401  0.7354
18142TIP3    H275842   5.542   0.987   2.927 -0.4847 -0.8189 -1.9049
18143TIP3   OH275843   5.172   6.018  17.066 -0.0773  0.1259  0.5754
18143TIP3    H175844   5.191   6.083  16.998  1.2963 -1.5930 -0.7849
18143TIP3    H275845   5.214   5.938  17.035 -3.4253 -2.0620  1.0934
18144TIP3   OH275846   5.328   2.876  16.773 -0.4424  0.4449 -0.1463
18144TIP3    H175847   5.384   2.806  16.805 -1.1574 -0.1500 -0.1570
18144TIP3    H275848   5.245   2.863  16.821 -1.6349 -0.6151 -2.3493
18145TIP3   OH275849   5.910   2.318   5.302  0.1334 -0.1911 -0.7729
18145TIP3    H175850   5.844   2.291   5.366  0.1773 -1.3784 -1.2138
18145TIP3    H275851   5.991   2.325   5.354  0.0342 -0.4886 -0.5752
18146TIP3   OH275852   1.981   1.583  15.145 -0.2303  0.1300 -1.2880
18146TIP3    H175853   1.892   1.620  15.144  0.0089  0.7226 -2.5475
18146TIP3    H275854   2.034   1.652  15.184 -0.3472 -0.3318 -0.2793
18147TIP3   OH275855   1.469   3.333  15.595 -0.5567  0.3760 -0.2854
18147TIP3    H175856   1.526   3.285  15.655 -1.1422 -0.7397 -0.6003
18147TIP3    H275857   1.525   3.402  15.558  0.3573 -0.1949  0.0136
18148TIP3   OH275858   1.656   4.038  12.575  0.2115 -0.5055 -0.1439
18148TIP3    H175859   1.703   4.093  12.512 -1.1266  0.1625 -0.6109
18148TIP3    H275860   1.688   4.066  12.660 -0.6406  1.2717 -0.3498
18149TIP3   OH275861   2.050   0.113   1.551 -0.4220  0.5630  0.3827
18149TIP3    H175862   1.962   0.148   1.565 -0.2985 -0.2919  4.5117
18149TIP3    H275863   2.038   0.018   1.549  0.3174  0.4734 -0.0334
18150TIP3   OH275864   2.934   2.875  16.958  0.3590  0.0141 -0.1293
18150TIP3    H175865   2.959   2.785  16.978 -0.5220  0.0570  1.2928
18150TIP3    H275866   2.949   2.923  17.039 -1.6044  0.6038 -0.0765
18151TIP3   OH275867   1.730   2.627   2.066 -0.1088 -0.0466 -0.0953
18151TIP3    H175868   1.676   2.639   1.988 -1.3037 -0.8418  0.5983
18151TIP3    H275869   1.810   2.586   2.033 -0.7288 -0.6550 -0.8761
18152TIP3   OH275870   6.133   3.797  10.736 -0.1797  0.6162  0.7707
18152TIP3    H175871   6.042   3.807  10.709 -0.0717  0.9751  0.5349
18152TIP3    H275872   6.183   3.794  10.654  0.0322  0.5448  0.9005
18153TIP3   OH275873   5.405   1.021  15.387  0.5365 -0.5044 -0.0373
18153TIP3    H175874   5.368   0.938  15.416 -1.5975  0.0633 -0.9137
18153TIP3    H275875   5.475   0.997  15.327 -0.3071 -1.6781 -0.5836
18154TIP3   OH275876   4.745   2.571   0.023  0.2311  0.4308  0.6880
18154TIP3    H175877   4.651   2.582   0.005  0.5424  2.3552 -0.0364
18154TIP3    H275878   4.750   2.555   0.117 -1.0000 -2.9910  0.3129
18155TIP3   OH275879   5.646   2.404   3.642 -0.1478 -0.4666  0.4034
18155TIP3    H175880   5.645   2.493   3.675  0.0497 -0.5714  0.6991
18155TIP3    H275881   5.720   2.363   3.687  0.5249 -0.4363 -0.6276
18156TIP3   OH275882   1.008   2.581   3.655 -0.3525  0.3914 -0.0787
18156TIP3    H175883   1.048   2.526   3.589  1.6690  1.6584  0.0002
18156TIP3    H275884   0.998   2.666   3.612 -1.4442  0.5437  0.4487
18157TIP3   OH275885   2.427   5.699  11.896 -0.4476 -0.3726  0.2488
18157TIP3    H175886   2.392   5.705  11.985 -2.6870 -1.4498 -0.4631
18157TIP3    H275887   2.480   5.619  11.896  0.7853  0.4140  0.9440
18158TIP3   OH275888   1.676   5.215   0.844  0.1285  1.0192 -0.0704
18158TIP3    H175889   1.666   5.281   0.912  0.8541  0.5372  0.5138
18158TIP3    H275890   1.701   5.264   0.766 -2.3746  1.7963 -0.4954
18159TIP3   OH275891   1.780   3.738   5.344  0.0942 -0.2164 -0.1780
18159TIP3    H175892   1.724   3.793   5.290  1.4409 -0.1541 -1.5732
18159TIP3    H275893   1.741   3.651   5.338 -0.3263 -0.0114 -0.4429
18160TIP3   OH275894   2.913   2.949  11.924 -0.7103  0.3456 -0.2435
18160TIP3    H175895   2.981   3.015  11.921  0.5668 -0.9540 -0.9197
18160TIP3    H275896   2.860   2.965  11.846 -0.9049  1.0541  0.0261
18161TIP3   OH275897   0.026   1.866  15.005 -0.0073  0.5155  0.4302
18161TIP3    H175898   0.009   1.926  15.078  2.3566  0.5303  1.0517
18161TIP3    H275899   0.006   1.779  15.040  2.2082  0.3951  1.5838
18162TIP3   OH275900   4.981   1.570   3.942  0.0711  0.0058 -0.1063
18162TIP3    H175901   4.987   1.655   3.899  0.0237  0.5734  0.9688
18162TIP3    H275902   4.921   1.519   3.886 -0.6863  1.0106 -0.2427
18163TIP3   OH275903   2.706   6.743  15.815  0.2222  0.5510 -0.1032
18163TIP3    H175904   2.647   6.698  15.753  1.2418  0.8423 -1.3058
18163TIP3    H275905   2.793   6.732  15.778  1.1160 -0.7112  2.1433
18164TIP3   OH275906   4.490   1.268  11.036  0.0099 -0.5198 -0.1016
18164TIP3    H175907   4.450   1.354  11.018  1.5836 -0.0593 -1.7875
18164TIP3    H275908   4.583   1.281  11.017  0.7556 -1.9178  2.2947
18165TIP3   OH275909   4.789   0.740   6.879  0.8697  0.0925  0.1901
18165TIP3    H175910   4.883   0.726   6.880  0.7796 -0.8112 -1.0468
18165TIP3    H275911   4.771   0.771   6.790 -0.1191 -0.7744  0.0696
18166TIP3   OH275912   6.654   0.164   4.938  0.6503 -0.3871 -0.2777
18166TIP3    H175913   6.735   0.214   4.945  0.6950 -0.6836  2.0953
18166TIP3    H275914   6.654   0.108   5.015 -1.3402 -1.1223 -0.7641
18167TIP3   OH275915   0.083   0.718  11.700 -0.1173 -0.1696  0.7053
18167TIP3    H175916   0.069   0.808  11.728 -0.7026 -0.6830  2.1215
18167TIP3    H275917  -0.005   0.683  11.684  0.1553  0.1230 -2.0511
18168TIP3   OH275918   3.175   1.864   4.475 -0.3669 -0.2487  0.0456
18168TIP3    H175919   3.229   1.939   4.452 -0.9338  0.3492  0.6369
18168TIP3    H275920   3.225   1.818   4.543 -0.3535 -0.0018  0.2014
18169TIP3   OH275921   1.834   1.473  12.367 -0.1372 -0.2375 -0.2763
18169TIP3    H175922   1.744   1.492  12.395 -0.9080 -2.0098 -1.3247
18169TIP3    H275923   1.858   1.547  12.312 -1.1973 -0.0008 -0.4451
18170TIP3   OH275924   3.411   0.975   2.519 -0.4773  0.7605 -0.2131
18170TIP3    H175925   3.488   0.953   2.466 -0.5195  3.7086 -1.6850
18170TIP3    H275926   3.338   0.937   2.470 -0.1220 -0.9510  0.5216
18171TIP3   OH275927   2.282   6.261  14.984 -0.5215  0.0318  0.7302
18171TIP3    H175928   2.304   6.185  15.039  0.4361  0.6765  1.2702
18171TIP3    H275929   2.193   6.244  14.955 -0.5033 -1.0672  1.2447
18172TIP3   OH275930   4.180   0.078  11.719  0.6140  0.1162 -0.0051
18172TIP3    H175931   4.100   0.038  11.752 -0.0311  1.2365 -0.1669
18172TIP3    H275932   4.151   0.144  11.656  1.6250  0.8758  0.2881
18173TIP3   OH275933   3.737   4.651   2.565  0.1057  0.0211  0.5750
18173TIP3    H175934   3.809   4.616   2.513  0.3333 -0.3512  1.1280
18173TIP3    H275935   3.720   4.583   2.630 -0.6508  0.1699  0.5349
18174TIP3   OH275936   0.087   3.646   1.919  0.8213  0.8955  0.1330
18174TIP3    H175937   0.174   3.686   1.919  2.4891 -2.3737 -0.2525
18174TIP3    H275938   0.035   3.701   1.977  3.1968  2.8425  0.5828
18175TIP3   OH275939   3.473   1.290  16.162  0.2005  0.7257 -0.1336
18175TIP3    H175940   3.559   1.311  16.126  0.4036  0.1467 -0.0123
18175TIP3    H275941   3.410   1.326  16.100  0.5428  0.2684 -0.7561
18176TIP3   OH275942   6.423   5.483  16.110 -0.0537 -0.2957  0.4659
18176TIP3    H175943   6.469   5.402  16.087 -0.5840 -0.7582  1.0004
18176TIP3    H275944   6.475   5.521  16.181  1.7888  1.3209 -1.6277
18177TIP3   OH275945   3.304   4.155   6.132  0.1999  0.2432 -0.0081
18177TIP3    H175946   3.307   4.089   6.201 -1.7675 -0.8815 -0.8852
18177TIP3    H275947   3.231   4.212   6.157 -0.3208  0.0167 -0.9544
18178TIP3   OH275948   1.683   3.263  16.547  0.0161  0.1166  0.3031
18178TIP3    H175949   1.673   3.212  16.467  1.0529  2.4332 -1.4095
18178TIP3    H275950   1.777   3.257  16.567 -0.0842  0.2688  0.8297
18179TIP3   OH275951   4.007   4.486   0.728  0.1182 -0.2106 -0.2095
18179TIP3    H175952   4.036   4.395   0.719 -0.3304 -0.4489  0.6417
18179TIP3    H275953   3.917   4.487   0.696 -0.2386 -0.3046  0.7345
18180TIP3   OH275954   3.667   2.693  15.116  0.5110 -0.0353 -0.4388
18180TIP3    H175955   3.589   2.744  15.095  0.5273  1.1660  2.0195
18180TIP3    H275956   3.711   2.680  15.032 -2.3961 -0.9799 -1.9503
18181TIP3   OH275957   3.900   0.162   2.540 -0.1619 -0.3037 -0.3507
18181TIP3    H175958   3.974   0.196   2.490 -1.1498  1.9440 -0.3982
18181TIP3    H275959   3.870   0.236   2.592 -1.1933 -1.6943  1.1518
18182TIP3   OH275960   3.329   0.057  15.307 -0.4310  0.0674 -0.3141
18182TIP3    H175961   3.341   0.141  15.351 -1.3802  0.7592 -1.3166
18182TIP3    H275962   3.237   0.035  15.325  0.2576 -1.6557  1.4163
18183TIP3   OH275963   3.384   3.240   5.825  0.4217 -0.3041  0.2316
18183TIP3    H175964   3.459   3.299   5.828  0.2705 -0.1112  0.2636
18183TIP3    H275965   3.308   3.298   5.825  0.2853 -0.4494 -1.1680
18184TIP3   OH275966   0.631   3.899   0.693  0.0222 -0.7365  0.1065
18184TIP3    H175967   0.591   3.975   0.649 -1.9862 -1.5215  0.4705
18184TIP3    H275968   0.625   3.920   0.786 -1.7381 -1.8495  0.2816
18185TIP3   OH275969   4.688   0.323   5.989 -0.3539 -0.0323  0.0365
18185TIP3    H175970   4.778   0.309   6.021 -1.3013 -2.3990  1.9646
18185TIP3    H275971   4.652   0.388   6.049 -0.4817 -0.4649  0.4328
18186TIP3   OH275972   0.758   0.158   5.146  0.3518  0.9862 -0.0373
18186TIP3    H175973   0.769   0.063   5.157 -1.5364  0.8389  1.0284
18186TIP3    H275974   0.713   0.167   5.062  1.2162  1.0218 -0.5117
18187TIP3   OH275975   2.986   0.884  13.002 -0.0409  0.5411 -0.3745
18187TIP3    H175976   3.028   0.920  13.080 -0.3671  2.5323 -1.0633
18187TIP3    H275977   2.902   0.851  13.033  1.7213 -3.2906  0.9808
18188TIP3   OH275978   5.192   3.564  16.443 -0.0944  0.2099 -0.3182
18188TIP3    H175979   5.286   3.548  16.449  0.1533  1.4026 -0.6714
18188TIP3    H275980   5.158   3.488  16.396  0.8634  0.2673 -1.1593
18189TIP3   OH275981   1.662   3.953  16.387  0.4354  0.6025 -0.2772
18189TIP3    H175982   1.666   3.948  16.483 -1.0436 -0.7627 -0.2639
18189TIP3    H275983   1.673   3.863  16.357 -0.1152  0.8695 -1.3436
18190TIP3   OH275984   4.075   2.016  15.723  0.0022 -0.0514  0.3684
18190TIP3    H175985   4.128   1.941  15.751  0.7465  0.1354 -0.4926
18190TIP3    H275986   4.038   1.989  15.639 -2.0753 -0.5448  1.3924
18191TIP3   OH275987   5.055   5.870   0.186 -0.3542  0.0515  0.0233
18191TIP3    H175988   5.071   5.895   0.095  1.3773 -0.8569  0.0397
18191TIP3    H275989   4.975   5.817   0.182  1.3088 -2.5556 -1.4977
18192TIP3   OH275990   2.366   2.539   5.154 -0.3678 -0.5472 -0.0622
18192TIP3    H175991   2.286   2.513   5.109 -0.2052 -0.4861 -0.3906
18192TIP3    H275992   2.336   2.577   5.237 -0.7347  0.3355 -0.5837
18193TIP3   OH275993   4.211   2.036  17.250 -0.1536  0.1428  0.4421
18193TIP3    H175994   4.190   2.011  17.161  1.2530 -1.0649  0.4140
18193TIP3    H275995   4.155   1.981  17.305  0.4588 -0.5914  0.3300
18194TIP3   OH275996   0.288   0.608   5.588 -0.4059 -0.4415 -0.3016
18194TIP3    H175997   0.236   0.545   5.639 -0.4222 -0.4400 -0.3162
18194TIP3    H275998   0.328   0.556   5.519  1.5235 -0.8950  1.0912
18195TIP3   OH275999   6.500   6.677  14.216  0.2253  0.6923 -0.3462
18195TIP3    H176000   6.544   6.619  14.154  0.2865  1.5643 -1.1540
18195TIP3    H276001   6.463   6.619  14.283 -1.4569 -0.4768 -2.1813
18196TIP3   OH276002   6.380   1.814  15.327 -0.0724 -0.1073 -0.2105
18196TIP3    H176003   6.433   1.747  15.371 -0.6912 -1.5032 -1.4990
18196TIP3    H276004   6.403   1.806  15.235 -1.5216  0.1907 -0.6147
18197TIP3   OH276005   2.545   4.171   1.317  0.2652 -0.0671  0.3528
18197TIP3    H176006   2.490   4.236   1.360  1.3369 -0.0017  1.6778
18197TIP3    H276007   2.546   4.097   1.377 -1.0170 -1.4230 -1.1647
18198TIP3   OH276008   1.417   2.926  15.038 -0.0742 -0.4238  0.3249
18198TIP3    H176009   1.510   2.941  15.025  0.0831 -0.4502  1.2966
18198TIP3    H276010   1.413   2.869  15.115 -0.9004 -0.2302  0.4321
18199TIP3   OH276011   2.248   5.807   5.597 -0.2774 -0.0235 -0.1280
18199TIP3    H176012   2.214   5.787   5.510  1.3857 -2.0272 -0.3963
18199TIP3    H276013   2.262   5.722   5.638  1.4194  0.7763  1.0958
18200TIP3   OH276014   0.312   6.436   4.680 -0.7862  0.1452 -0.2181
18200TIP3    H176015   0.374   6.506   4.701 -0.0001 -0.5749 -0.0504
18200TIP3    H276016   0.263   6.423   4.761  0.3415 -0.7400  0.3625
18201TIP3   OH276017   5.683   5.895  12.559 -0.6173 -0.4142 -0.4195
18201TIP3    H176018   5.709   5.928  12.473 -0.7168  2.4021  0.5390
18201TIP3    H276019   5.589   5.878  12.550 -1.1123  1.9263 -0.3654
18202TIP3   OH276020   3.210   0.993  11.245  0.1853  0.1618  0.2293
18202TIP3    H176021   3.128   0.976  11.292 -1.0863  3.4502 -0.5026
18202TIP3    H276022   3.230   0.911  11.200 -1.0882 -1.6254  2.6972
18203TIP3   OH276023   3.155   5.899   3.345 -0.2315 -0.3690 -0.1427
18203TIP3    H176024   3.207   5.854   3.277  0.6358  0.2368  0.0977
18203TIP3    H276025   3.204   5.884   3.426 -0.3247  0.3706  0.0599
18204TIP3   OH276026   3.001   2.936  14.654 -0.4442  1.0999 -0.2120
18204TIP3    H176027   3.003   2.935  14.558 -0.2792  0.6574 -0.2046
18204TIP3    H276028   2.929   2.877  14.677 -0.0620  0.6920 -0.0540
18205TIP3   OH276029   4.400   1.691  11.219 -0.5949  0.1020 -0.6097
18205TIP3    H176030   4.446   1.775  11.214  0.5150 -0.5389 -1.8920
18205TIP3    H276031   4.396   1.671  11.312  0.5051  0.8540 -0.3838
18206TIP3   OH276032   1.776   6.091   3.289 -0.5287 -0.1305 -0.1138
18206TIP3    H176033   1.740   6.158   3.348  1.3254  1.5966 -0.8031
18206TIP3    H276034   1.715   6.088   3.216 -0.2356  1.4791 -0.4666
18207TIP3   OH276035   3.050   1.490   5.022  0.5718  0.0149  0.4198
18207TIP3    H176036   3.085   1.487   5.111  1.1222  1.9687  0.3088
18207TIP3    H276037   2.967   1.443   5.028  1.8805 -2.3594  1.2965
18208TIP3   OH276038   3.716   0.681   4.068 -0.2874  0.0413 -0.0576
18208TIP3    H176039   3.683   0.740   4.001 -1.6724  0.2119  0.7345
18208TIP3    H276040   3.660   0.604   4.062 -1.0426  0.4381  1.4910
18209TIP3   OH276041   6.529   0.776  11.126 -0.2516  0.0211 -0.9702
18209TIP3    H176042   6.500   0.861  11.158  0.9432  0.3463 -0.7138
18209TIP3    H276043   6.474   0.759  11.050 -2.9907 -0.6212  0.9744
18210TIP3   OH276044   2.340   0.960   1.388  0.2007  0.5184  0.4105
18210TIP3    H176045   2.423   0.930   1.351  0.2280  1.3656 -0.2331
18210TIP3    H276046   2.305   1.020   1.323 -0.9207  0.1745  0.6853
18211TIP3   OH276047   2.216   4.243  16.644 -0.2888 -0.5643  0.4963
18211TIP3    H176048   2.247   4.199  16.723 -0.3761 -1.0479  0.2642
18211TIP3    H276049   2.294   4.247  16.587 -0.0924  0.2528  0.8074
18212TIP3   OH276050   0.467   1.167   4.265 -0.0121 -0.2803 -0.1316
18212TIP3    H176051   0.417   1.097   4.223 -0.9852  0.1769  0.2351
18212TIP3    H276052   0.430   1.173   4.353  1.3603 -0.5933  0.5073
18213TIP3   OH276053   0.850   2.051   3.598 -0.2160  0.1069 -0.2715
18213TIP3    H176054   0.786   2.083   3.535  1.2162  2.2068 -0.7852
18213TIP3    H276055   0.860   1.958   3.579 -0.9160  0.3854 -2.1379
18214TIP3   OH276056   6.249   6.519   5.688 -0.0382  0.1651 -0.1482
18214TIP3    H176057   6.253   6.583   5.759 -1.3087  0.7106 -0.5505
18214TIP3    H276058   6.156   6.511   5.667  0.2192 -0.8022 -1.0304
18215TIP3   OH276059   6.250   5.081   1.624  0.1412 -0.0811  0.7460
18215TIP3    H176060   6.260   5.091   1.529 -2.7155  1.2511  0.4925
18215TIP3    H276061   6.247   5.171   1.657  0.5134 -0.5220  2.0660
18216TIP3   OH276062   3.003   1.852  15.015 -0.1793  0.0357  0.2768
18216TIP3    H176063   3.019   1.882  14.925  3.6278  0.6229  0.9643
18216TIP3    H276064   3.009   1.932  15.067  0.9532 -0.7066  1.3159
18217TIP3   OH276065   4.389   6.613   5.860 -0.0350  0.0567 -0.4720
18217TIP3    H176066   4.413   6.553   5.930 -0.4633  0.0442 -0.3343
18217TIP3    H276067   4.472   6.649   5.830  0.2547 -0.8077 -0.7410
18218TIP3   OH276068   3.386   1.794  17.086 -0.0518 -0.9398  0.2878
18218TIP3    H176069   3.325   1.730  17.050 -1.2731  0.3944 -0.0930
18218TIP3    H276070   3.350   1.815  17.172 -0.9981  0.9263 -0.5137
18219TIP3   OH276071   0.748   4.732   5.068  0.0407  0.0369 -0.1600
18219TIP3    H176072   0.687   4.746   5.140 -2.1052  1.0437 -2.0246
18219TIP3    H276073   0.835   4.746   5.106 -0.6178 -3.1170  3.0198
18220TIP3   OH276074   1.321   5.917   1.170  0.2771  0.2620 -0.1361
18220TIP3    H176075   1.270   5.913   1.252  1.1209 -1.6353  0.3548
18220TIP3    H276076   1.303   5.833   1.127  0.9789  0.6461 -1.2024
18221TIP3   OH276077   3.588   6.036  16.457 -0.1307 -0.9539  0.0301
18221TIP3    H176078   3.678   6.035  16.424 -0.8273  0.1629 -2.0219
18221TIP3    H276079   3.552   5.952  16.430 -0.6351 -0.1274 -1.9971
18222TIP3   OH276080   0.127   5.373   0.847  0.2885 -0.0631  0.2127
18222TIP3    H176081   0.123   5.279   0.866  0.9341  0.4647  3.5403
18222TIP3    H276082   0.051   5.410   0.892  1.1025  1.2178  0.5982
18223TIP3   OH276083   5.855   4.186  14.537  0.0324  0.0473 -0.0332
18223TIP3    H176084   5.931   4.221  14.491  0.5523 -2.2521 -1.0309
18223TIP3    H276085   5.782   4.200  14.477  0.5780 -2.2528 -1.3043
18224TIP3   OH276086   5.324   0.982   0.477  0.5956 -0.1967 -0.3053
18224TIP3    H176087   5.335   0.977   0.382  0.2601  2.5713 -0.5828
18224TIP3    H276088   5.306   1.075   0.494 -1.4231 -0.9334  2.2459
18225TIP3   OH276089   5.297   2.085   1.383  0.3379  0.0937  0.5882
18225TIP3    H176090   5.289   2.171   1.424  0.4220 -0.1483  1.1158
18225TIP3    H276091   5.257   2.025   1.445  1.3231 -0.4076  0.7544
18226TIP3   OH276092   4.128   4.218   0.705  0.9372  0.0876  0.4559
18226TIP3    H176093   4.091   4.180   0.625  0.1449 -0.1459  0.9208
18226TIP3    H276094   4.203   4.162   0.724  0.5235 -0.4918  0.4328
18227TIP3   OH276095   3.792   5.455   2.871 -0.1365  0.2744  1.1972
18227TIP3    H176096   3.788   5.382   2.932 -1.2301 -2.6884 -2.0722
18227TIP3    H276097   3.881   5.454   2.837 -0.6661 -0.9133 -0.2547
18228TIP3   OH276098   0.628   4.111  13.702 -0.1904  0.3695  0.2927
18228TIP3    H176099   0.661   4.044  13.642 -0.6630  0.9731 -0.6447
18228TIP3    H276100   0.554   4.069  13.746 -0.4903  0.2827 -0.2958
18229TIP3   OH276101   0.053   0.094   5.166 -0.1223  1.4165  0.3483
18229TIP3    H176102   0.095   0.140   5.239  1.2847  0.3331  0.2580
18229TIP3    H276103   0.126   0.058   5.116 -1.1117 -2.1896  1.2332
18230TIP3   OH276104   1.725   6.543  14.843  0.2110 -0.1779 -0.2714
18230TIP3    H176105   1.677   6.467  14.874  0.1955 -0.3361 -0.6877
18230TIP3    H276106   1.816   6.526  14.869  0.2645 -0.4945 -0.6625
18231TIP3   OH276107   4.951   6.356   3.982 -0.1915  0.0146 -0.2653
18231TIP3    H176108   4.878   6.313   4.026 -1.8080  1.1789 -1.6688
18231TIP3    H276109   4.948   6.322   3.892  1.3649 -0.3341 -0.2133
18232TIP3   OH276110   6.277   1.324   2.692 -0.4381 -0.0332 -0.0000
18232TIP3    H176111   6.259   1.312   2.599  2.0177  0.5507 -0.6270
18232TIP3    H276112   6.224   1.400   2.716 -2.2486 -1.0743 -0.4920
18233TIP3   OH276113   4.984   2.809  15.951  0.1137 -0.0694 -0.3156
18233TIP3    H176114   4.901   2.837  15.911 -0.7222 -0.4234  1.0939
18233TIP3    H276115   5.045   2.880  15.932 -1.1490  1.3175  0.5751
18234TIP3   OH276116   6.587   6.640   1.873  0.1702 -0.5069  0.0141
18234TIP3    H176117   6.655   6.637   1.807  0.2993 -0.6898  0.1549
18234TIP3    H276118   6.580   6.550   1.905  0.6690 -0.2683  0.8173
18235TIP3   OH276119   0.284   1.111  12.049 -0.1791  0.8865 -0.1456
18235TIP3    H176120   0.312   1.071  12.131  0.8249  1.4885 -0.1775
18235TIP3    H276121   0.236   1.190  12.075 -2.8565 -0.6367 -0.0520
18236TIP3   OH276122   6.697   1.113  12.119 -0.0865  0.0732  0.2052
18236TIP3    H176123   6.740   1.197  12.104 -0.2640  0.2772  0.7831
18236TIP3    H276124   6.609   1.136  12.150 -0.0926 -0.3223  0.4966
18237TIP3   OH276125   6.703   6.553   2.928  0.3274  0.9701  0.1411
18237TIP3    H176126   6.740   6.512   2.850  1.7219  1.1578  0.6820
18237TIP3    H276127   6.701   6.647   2.908 -0.7354  0.8848 -0.2257
18238TIP3   OH276128   1.777   2.114   1.693  0.3414  0.0817  0.6630
18238TIP3    H176129   1.804   2.035   1.645  2.0163  0.6459  0.6092
18238TIP3    H276130   1.792   2.093   1.785  2.5024  0.8927  0.5503
18239TIP3   OH276131   5.116   0.066  13.809  0.5985 -0.0001  0.0823
18239TIP3    H176132   5.031   0.053  13.852 -0.3556  0.0579 -1.7055
18239TIP3    H276133   5.113   0.156  13.776  2.0400  0.5745  1.3591
18240TIP3   OH276134   3.132   4.327  10.891 -0.0531 -0.5065  0.3788
18240TIP3    H176135   3.086   4.243  10.896 -0.0680 -0.4964  0.4091
18240TIP3    H276136   3.157   4.335  10.799 -1.9696  0.4784 -0.1024
18241TIP3   OH276137   1.299   3.361  11.274 -0.1619 -0.6296 -0.0645
18241TIP3    H176138   1.309   3.370  11.369 -0.4495 -1.1679  0.0206
18241TIP3    H276139   1.384   3.329  11.244  1.1834  2.8720 -0.4817
18242TIP3   OH276140   1.462   5.191   3.866  0.0158 -0.0022  0.6152
18242TIP3    H176141   1.411   5.137   3.806  0.6343  0.5772 -0.4568
18242TIP3    H276142   1.546   5.204   3.822  0.1446  1.2244  1.1728
18243TIP3   OH276143   6.640   2.356  16.562 -0.4737  0.3642 -0.1316
18243TIP3    H176144   6.651   2.425  16.628 -0.8691 -0.0633  0.3923
18243TIP3    H276145   6.683   2.279  16.601 -0.5843  0.1467 -0.4360
18244TIP3   OH276146   6.216   1.059   4.345  0.3404 -0.2099  0.3193
18244TIP3    H176147   6.156   0.985   4.336  0.8847 -0.5610 -0.4620
18244TIP3    H276148   6.172   1.131   4.299  1.3714 -0.9907 -2.0529
18245TIP3   OH276149   6.011   6.150   3.912  0.0502  0.1430 -0.7079
18245TIP3    H176150   5.918   6.175   3.908  0.3301  1.5325  0.6037
18245TIP3    H276151   6.013   6.081   3.978 -0.4620 -2.2710 -3.0559
18246TIP3   OH276152   5.536   4.442  16.950 -0.8900 -0.0147 -1.1568
18246TIP3    H176153   5.457   4.433  17.002  0.8289  1.3501  1.9629
18246TIP3    H276154   5.506   4.475  16.865 -3.6029  0.9002  0.0783
18247TIP3   OH276155   4.161   4.623   1.410 -0.3996  0.4475 -0.2393
18247TIP3    H176156   4.237   4.595   1.462 -0.1437 -1.0012 -1.3295
18247TIP3    H276157   4.131   4.702   1.454  1.3791  0.7376  0.5840
18248TIP3   OH276158   0.720   3.652   3.240  0.2527  0.3872 -0.2108
18248TIP3    H176159   0.745   3.568   3.202  1.5884  0.8295 -0.3547
18248TIP3    H276160   0.745   3.717   3.175  0.7774  1.0102  0.5928
18249TIP3   OH276161   1.603   5.623   4.952  0.3319 -0.5700  0.7545
18249TIP3    H176162   1.627   5.705   4.908  1.3681 -0.6288  1.1611
18249TIP3    H276163   1.526   5.592   4.905 -0.7810  1.2113  1.3007
18250TIP3   OH276164   2.126   5.994  16.869 -0.1440 -0.9501 -0.3182
18250TIP3    H176165   2.042   5.992  16.915  0.6822  2.7490  1.8223
18250TIP3    H276166   2.165   5.908  16.886 -1.4318 -1.0149  3.0433
18251TIP3   OH276167   6.122   0.134  11.400  0.0787  0.6492 -0.3733
18251TIP3    H176168   6.183   0.129  11.474 -2.8955 -0.5893  2.2073
18251TIP3    H276169   6.136   0.221  11.363 -1.5481  3.5884  4.8555
18252TIP3   OH276170   3.814   4.459   6.062  0.4298  0.4387 -0.1186
18252TIP3    H176171   3.769   4.542   6.078  0.0516  0.2902 -0.3852
18252TIP3    H276172   3.905   4.475   6.087 -0.0579  0.2970  1.9228
18253TIP3   OH276173   3.048   0.615   2.820 -0.1454 -0.1247  0.1471
18253TIP3    H176174   2.992   0.674   2.870  1.2540  0.3523  1.2108
18253TIP3    H276175   3.133   0.659   2.816  0.5763 -1.4682 -0.1509
18254TIP3   OH276176   2.776   1.311  12.539 -0.5531 -0.1397 -0.2813
18254TIP3    H176177   2.721   1.358  12.601 -0.1140  0.9678 -0.7121
18254TIP3    H276178   2.769   1.360  12.457  1.3929  0.3217 -0.2331
18255TIP3   OH276179   4.995   0.092   2.596  0.1335 -0.0924  0.1799
18255TIP3    H176180   4.911   0.056   2.622  0.8199 -2.7989 -1.0207
18255TIP3    H276181   5.052   0.077   2.671 -0.4046  1.8821  1.0538
18256TIP3   OH276182   1.114   1.937   4.672  0.2804 -0.1016 -0.0708
18256TIP3    H176183   1.170   1.884   4.615 -0.6728  0.2183 -1.3405
18256TIP3    H276184   1.155   2.024   4.672  0.4433 -0.1791 -0.0437
18257TIP3   OH276185   4.623   0.508  17.358 -0.3310 -0.8907 -0.5149
18257TIP3    H176186   4.624   0.510  17.262 -1.8986  0.0449 -0.5529
18257TIP3    H276187   4.642   0.598  17.384 -1.2354 -0.8360 -0.0035
18258TIP3   OH276188   4.613   1.306   2.008  0.4704  0.1955  0.6585
18258TIP3    H176189   4.642   1.296   1.917  0.0552  0.2607  0.5165
18258TIP3    H276190   4.519   1.290   2.005  0.6078 -0.8686  1.2441
18259TIP3   OH276191   2.277   2.341  12.141  0.3853  0.0041  0.5313
18259TIP3    H176192   2.283   2.283  12.066  0.2520  0.5456  0.0959
18259TIP3    H276193   2.185   2.338  12.167 -0.1628  1.9016 -1.0256
18260TIP3   OH276194   4.949   0.929  13.142  0.5072  0.2586  0.4919
18260TIP3    H176195   4.992   0.844  13.148  0.4095  0.3248  3.5228
18260TIP3    H276196   5.017   0.988  13.108  1.3376 -0.5353  0.7458
18261TIP3   OH276197   4.247   3.102  16.349  0.5419 -0.6337  0.3289
18261TIP3    H176198   4.209   3.185  16.320 -0.9144 -0.8594  1.5097
18261TIP3    H276199   4.311   3.128  16.417 -0.4197 -0.4999  1.2054
18262TIP3   OH276200   4.850   2.890   0.431 -0.3851 -0.1889  0.0676
18262TIP3    H176201   4.813   2.836   0.361  0.8714 -1.5281  0.3975
18262TIP3    H276202   4.812   2.856   0.511  0.4886 -0.6585  0.2877
18263TIP3   OH276203   6.106   2.855  13.529  0.2058 -0.0627  0.6917
18263TIP3    H176204   6.019   2.827  13.500  0.4397  0.6898 -0.8434
18263TIP3    H276205   6.164   2.831  13.457  0.8240  1.9333  0.4755
18264TIP3   OH276206   4.855   0.732  16.888  0.1818 -0.0967  0.1111
18264TIP3    H176207   4.907   0.808  16.859 -1.1152  0.9684  0.4954
18264TIP3    H276208   4.865   0.668  16.817 -1.3238  1.6968 -1.8588
18265TIP3   OH276209   6.210   5.821   1.823 -0.3407  0.1211 -0.2486
18265TIP3    H176210   6.272   5.763   1.868  1.6113  1.7353 -0.6859
18265TIP3    H276211   6.152   5.852   1.892 -0.1616 -0.8125  0.3393
18266TIP3   OH276212   4.901   1.731   6.091  0.4914  0.1420  0.3471
18266TIP3    H176213   4.954   1.697   6.163  0.4724 -0.1511  0.2206
18266TIP3    H276214   4.856   1.807   6.129  2.1628  1.3327  0.0272
18267TIP3   OH276215   3.522   4.333  14.468  0.7804  0.1827  0.0261
18267TIP3    H176216   3.497   4.299  14.382 -1.3513  2.0338 -0.1748
18267TIP3    H276217   3.578   4.408  14.449 -0.8865  1.5100  0.1255
18268TIP3   OH276218   1.731   2.479   3.429 -0.1939 -0.1777  0.1340
18268TIP3    H176219   1.671   2.441   3.493 -0.4581 -0.7096 -0.4128
18268TIP3    H276220   1.788   2.537   3.480 -1.2311  0.4082  0.6360
18269TIP3   OH276221   3.542   4.818   2.420  0.8195  0.4940 -0.1144
18269TIP3    H176222   3.540   4.872   2.341  0.5334  1.9720  0.8712
18269TIP3    H276223   3.612   4.754   2.403  0.3741  0.3919 -1.7798
18270TIP3   OH276224   4.161   3.382  13.133 -0.0173 -0.6485 -0.3243
18270TIP3    H176225   4.101   3.358  13.063 -1.0314  1.8396 -0.4431
18270TIP3    H276226   4.119   3.349  13.213 -0.7101 -0.4029 -0.5759
18271TIP3   OH276227   1.035   4.472  14.520  0.0596  0.2447  0.2790
18271TIP3    H176228   0.972   4.485  14.449  0.4108  0.8523  0.0686
18271TIP3    H276229   1.117   4.506  14.486  0.8580 -1.8080  0.0419
18272TIP3   OH276230   3.096   4.927  12.436  1.0852 -0.4574  0.0733
18272TIP3    H176231   3.145   4.845  12.443  0.0497 -1.1727 -0.6600
18272TIP3    H276232   3.048   4.919  12.353 -1.8221 -0.6732  1.6546
18273TIP3   OH276233   4.982   2.000  13.215 -0.6730  0.3299  0.0761
18273TIP3    H176234   5.067   2.003  13.171 -1.4035  1.3377 -1.3304
18273TIP3    H276235   4.964   1.906  13.226  0.4456  0.1027  0.0898
18274TIP3   OH276236   0.236   0.509   4.886  0.0017 -0.0464 -0.2456
18274TIP3    H176237   0.224   0.443   4.818  1.0589 -0.5599  0.0581
18274TIP3    H276238   0.147   0.537   4.907 -0.5999 -2.3761  0.6110
18275TIP3   OH276239   2.191   1.137   4.734  0.1390 -0.3642 -0.0138
18275TIP3    H176240   2.195   1.229   4.759 -0.9241  0.0295 -1.1893
18275TIP3    H276241   2.214   1.089   4.814  1.1158  0.9190  0.5034
18276TIP3   OH276242   6.538   2.937   0.437  0.3864  0.1171  0.5170
18276TIP3    H176243   6.546   2.989   0.356  0.0075  0.4199  0.6739
18276TIP3    H276244   6.569   2.996   0.506  1.7237 -0.4931  0.4760
18277TIP3   OH276245   6.605   2.574   3.426 -0.5154  0.9991 -0.4754
18277TIP3    H176246   6.666   2.533   3.365  0.8610  0.2240  1.3339
18277TIP3    H276247   6.532   2.603   3.371 -0.7625 -2.3086 -2.1162
18278TIP3   OH276248   0.169   0.680  14.573  0.7091  0.2588 -0.3824
18278TIP3    H176249   0.089   0.644  14.612  1.5841 -0.2405  1.0368
18278TIP3    H276250   0.200   0.613  14.513  1.7271 -0.9719  1.4177
18279TIP3   OH276251   3.512   4.598  11.983 -0.1060  0.4551  0.3424
18279TIP3    H176252   3.500   4.692  11.990  1.4699  0.7154 -0.0828
18279TIP3    H276253   3.606   4.586  11.967 -0.3798 -1.1403 -0.3683
18280TIP3   OH276254   6.308   0.048  11.801  0.1399  0.4991  0.3796
18280TIP3    H176255   6.264   0.089  11.875 -3.1233 -1.6585 -0.1567
18280TIP3    H276256   6.360  -0.022  11.839 -1.1758 -0.3151  0.7527
18281TIP3   OH276257   4.408   0.976  11.515  0.2294  0.6291  0.3153
18281TIP3    H176258   4.462   0.903  11.485 -0.6517  0.3152 -0.5410
18281TIP3    H276259   4.400   0.963  11.609 -0.4707 -0.7599  0.0845
18282TIP3   OH276260   5.784   4.475  10.987 -0.1592  0.1435  0.6066
18282TIP3    H176261   5.706   4.497  11.038 -0.4744 -0.0030  0.1937
18282TIP3    H276262   5.750   4.441  10.905  0.3426  0.0101  0.4505
18283TIP3   OH276263   3.430   1.565   1.370  0.1114 -0.3411 -0.1916
18283TIP3    H176264   3.425   1.529   1.459 -0.7374  1.0890  0.3543
18283TIP3    H276265   3.342   1.555   1.335 -0.5978  2.5005  0.5331
18284TIP3   OH276266   5.710   4.614   5.978  0.0724  0.3991 -0.3609
18284TIP3    H176267   5.796   4.572   5.971  0.4083  1.2552 -1.7324
18284TIP3    H276268   5.695   4.621   6.072 -0.1501 -3.0447  0.0113
18285TIP3   OH276269   6.279   2.870  14.237  0.3250 -0.4620  0.5238
18285TIP3    H176270   6.330   2.944  14.205 -0.9604 -0.3111 -1.3443
18285TIP3    H276271   6.196   2.908  14.266 -0.1799 -1.0945 -0.0404
18286TIP3   OH276272   6.408   4.335  14.347 -0.0682 -0.3364  0.2264
18286TIP3    H176273   6.370   4.376  14.425 -1.9504 -0.2790 -0.6491
18286TIP3    H276274   6.502   4.338  14.361 -0.2454  1.9477  1.3903
18287TIP3   OH276275   5.843   4.756   2.774  0.5131 -0.3101  0.0855
18287TIP3    H176276   5.843   4.827   2.838  2.8756 -0.7590  0.6884
18287TIP3    H276277   5.900   4.787   2.703 -0.6987 -0.5126 -1.0095
18288TIP3   OH276278   1.403   4.214   0.824  0.1254 -0.4743 -0.0730
18288TIP3    H176279   1.390   4.296   0.777  1.8041  0.1453  0.4610
18288TIP3    H276280   1.475   4.171   0.778 -1.1946 -2.0128 -0.7703
18289TIP3   OH276281   2.845   5.176  13.176 -0.7252 -0.4475 -0.4075
18289TIP3    H176282   2.777   5.123  13.216  0.3941 -1.5046  0.1265
18289TIP3    H276283   2.913   5.184  13.243 -0.1313  0.2341 -1.0701
18290TIP3   OH276284   3.878   5.445   1.330  0.1083 -0.8733  0.0170
18290TIP3    H176285   3.934   5.498   1.387  0.1632  1.0424 -1.6965
18290TIP3    H276286   3.836   5.509   1.272 -0.6762 -2.6390 -1.4542
18291TIP3   OH276287   6.463   5.197   0.727  0.0082 -0.0086 -0.6405
18291TIP3    H176288   6.397   5.179   0.660  0.5842  0.6384 -1.3907
18291TIP3    H276289   6.413   5.207   0.808 -0.5419 -3.1947 -0.4418
18292TIP3   OH276290   0.051   0.407  13.117 -0.1546  0.2119  0.1937
18292TIP3    H176291  -0.022   0.405  13.179  0.4841 -0.6000  0.9483
18292TIP3    H276292   0.128   0.420  13.171  0.1856  2.1982 -0.7090
18293TIP3   OH276293   3.145   3.107  11.796  0.0877 -0.2335 -0.0950
18293TIP3    H176294   3.198   3.041  11.841  2.4156  0.3345 -1.8182
18293TIP3    H276295   3.147   3.183  11.855  1.5820 -0.0891 -0.2846
18294TIP3   OH276296   1.050   5.458   5.248  0.1613 -0.2169  0.3305
18294TIP3    H176297   1.087   5.455   5.337  1.9514  1.4440 -0.2947
18294TIP3    H276298   1.105   5.398   5.197 -0.6729 -0.9340  0.2607
18295TIP3   OH276299   4.442   2.675   5.076  0.3594 -0.0839  0.5658
18295TIP3    H176300   4.478   2.709   4.995  1.0619  2.0445  1.6869
18295TIP3    H276301   4.511   2.619   5.112  0.7838  0.4342  0.5655
18296TIP3   OH276302   4.256   6.763  15.378  0.0375 -0.0614  0.3904
18296TIP3    H176303   4.284   6.672  15.390 -1.3214 -0.5569  0.0929
18296TIP3    H276304   4.178   6.756  15.322 -0.9321  1.1602  1.5332
18297TIP3   OH276305   4.637   1.004  13.527  0.5374 -0.5271 -0.2720
18297TIP3    H176306   4.685   0.924  13.506  0.5347 -0.5871 -0.0513
18297TIP3    H276307   4.673   1.069  13.467  0.0401 -0.8630 -0.9517
18298TIP3   OH276308   3.857   0.189   5.832  0.4210 -0.0652  0.4980
18298TIP3    H176309   3.802   0.155   5.902 -0.5456  0.4075 -0.0209
18298TIP3    H276310   3.916   0.251   5.876 -0.2769  0.3418  0.8871
18299TIP3   OH276311   0.169   2.485   3.555 -0.1044  0.1742  0.4725
18299TIP3    H176312   0.143   2.431   3.630  0.3382 -0.1996  0.3625
18299TIP3    H276313   0.236   2.433   3.511  0.3149  0.8153  0.3541
18300TIP3   OH276314   3.195   2.077  12.353  0.0864 -0.0179 -0.1794
18300TIP3    H176315   3.258   2.007  12.368  0.4454  0.3982  0.2953
18300TIP3    H276316   3.249   2.155  12.340 -0.3099  0.1895 -0.5857
18301TIP3   OH276317   6.165   2.364   1.132  0.0888 -0.1912  0.4506
18301TIP3    H176318   6.116   2.327   1.204 -1.7640  0.8814 -0.1801
18301TIP3    H276319   6.144   2.309   1.057 -0.8475  0.7250  0.0069
18302TIP3   OH276320   3.643   6.405   0.901 -0.2978  0.0700  0.3550
18302TIP3    H176321   3.629   6.311   0.893 -1.2333  0.3196 -1.4804
18302TIP3    H276322   3.566   6.445   0.858  0.5273  1.6481  0.2537
18303TIP3   OH276323   3.672   5.616   0.769 -0.2632 -0.0272  0.3764
18303TIP3    H176324   3.588   5.615   0.723 -1.3048 -2.8412  2.0759
18303TIP3    H276325   3.707   5.704   0.754 -3.2052  1.0483 -0.8996
18304TIP3   OH276326   4.492   2.329  14.091 -0.5689 -0.1101 -0.8095
18304TIP3    H176327   4.448   2.326  14.176  1.0737  0.4307  0.1204
18304TIP3    H276328   4.516   2.238  14.073  1.1874  0.0461  0.5223
18305TIP3   OH276329   0.875   5.451   0.223 -0.3628  0.1613  0.1754
18305TIP3    H176330   0.939   5.402   0.275  1.7321  1.1272 -1.3538
18305TIP3    H276331   0.841   5.386   0.160  1.6614  0.3358 -1.1920
18306TIP3   OH276332   4.259   4.950  11.336  0.1175  0.2106  0.2116
18306TIP3    H176333   4.299   4.927  11.252 -1.6809  0.0606 -0.6534
18306TIP3    H276334   4.330   4.944  11.399  1.1849 -1.1575 -1.0630
18307TIP3   OH276335   6.474   5.118  13.613  0.0448  0.0126 -0.4304
18307TIP3    H176336   6.563   5.096  13.586  0.1465 -1.0571  0.6647
18307TIP3    H276337   6.429   5.141  13.532  0.2125 -3.4481 -1.6897
18308TIP3   OH276338   5.251   1.013   1.758  0.4735  0.6050  0.1134
18308TIP3    H176339   5.262   1.063   1.677 -1.8463  0.6981 -0.2119
18308TIP3    H276340   5.216   0.928   1.729  0.3313  0.3678  0.9682
18309TIP3   OH276341   5.977   4.608   3.089  0.0935  0.6453 -0.8844
18309TIP3    H176342   5.988   4.549   3.163  1.2126 -1.2686 -2.4668
18309TIP3    H276343   5.894   4.584   3.050  0.7908 -0.3081 -1.8372
18310TIP3   OH276344   3.302   4.579  14.415  0.8269  0.5143 -0.1628
18310TIP3    H176345   3.261   4.602  14.332 -1.6631 -1.5798  0.3671
18310TIP3    H276346   3.260   4.497  14.441  2.4541  0.4111  2.5470
18311TIP3   OH276347   5.716   0.650   1.868  0.5796 -0.3785 -0.4121
18311TIP3    H176348   5.715   0.745   1.863  2.1001 -0.2942  0.4507
18311TIP3    H276349   5.767   0.622   1.793  2.7579 -0.3161  0.9652
18312TIP3   OH276350   4.804   2.626   2.548  0.0945  0.2005  1.1362
18312TIP3    H176351   4.898   2.635   2.564  0.0424 -0.8997  2.3086
18312TIP3    H276352   4.763   2.671   2.622 -0.3154  0.9862  0.4397
18313TIP3   OH276353   5.597   3.656  14.384  0.9917 -0.2737  0.1082
18313TIP3    H176354   5.632   3.574  14.417  0.3717 -1.2336 -1.5139
18313TIP3    H276355   5.519   3.672  14.437  1.2016 -0.6442  0.5322
18314TIP3   OH276356   3.346   4.993  10.695 -0.3084  0.4284 -0.8559
18314TIP3    H176357   3.256   5.004  10.665 -1.4987  0.5182  2.3716
18314TIP3    H276358   3.383   4.926  10.636 -2.6614 -0.0893 -1.8600
18315TIP3   OH276359   5.041   0.796   3.597 -0.4697  0.5738 -0.1326
18315TIP3    H176360   5.012   0.708   3.571 -1.7663  0.8803  0.2128
18315TIP3    H276361   5.063   0.838   3.514  1.0047 -0.3482 -0.2358
18316TIP3   OH276362   0.575   5.538   0.955 -0.2448  0.3872  0.0165
18316TIP3    H176363   0.534   5.507   0.874  0.6358  2.4277 -1.3034
18316TIP3    H276364   0.555   5.470   1.020 -2.0786 -0.7089 -1.5726
18317TIP3   OH276365   5.111   4.342   5.842 -0.0775 -0.6810 -0.3946
18317TIP3    H176366   5.051   4.268   5.837 -1.7034  0.4255  1.2582
18317TIP3    H276367   5.055   4.419   5.840  1.2210  0.4054  1.3990
18318TIP3   OH276368   5.713   4.701  17.068  0.4252 -0.3336 -0.1760
18318TIP3    H176369   5.756   4.627  17.025 -0.3629 -1.3629  0.7593
18318TIP3    H276370   5.672   4.663  17.146 -1.3905  0.7601 -0.5421
18319TIP3   OH276371   5.388   1.419   0.720  0.1410  0.3747 -0.0020
18319TIP3    H176372   5.406   1.497   0.771  2.3035 -0.7224  1.0516
18319TIP3    H276373   5.462   1.361   0.738 -0.4709 -1.2113 -2.1505
18320TIP3   OH276374   1.156   5.960   1.413 -0.4434 -0.4004  0.3479
18320TIP3    H176375   1.081   6.016   1.392 -0.0270 -0.0628 -0.2484
18320TIP3    H276376   1.154   5.953   1.508  0.3364  1.8022  0.5647
18321TIP3   OH276377   4.696   1.178   0.021  0.0812 -0.0945 -0.3118
18321TIP3    H176378   4.770   1.229  -0.013  0.1406 -0.2154 -0.3718
18321TIP3    H276379   4.738   1.107   0.070 -0.0146  0.9265  1.3267
18322TIP3   OH276380   3.754   0.506  16.047 -0.2004  0.0253 -0.1535
18322TIP3    H176381   3.724   0.583  16.096  0.6240 -0.0029  0.4293
18322TIP3    H276382   3.757   0.436  16.112 -1.8134 -0.7537 -0.8740
18323TIP3   OH276383   6.096   4.528  14.878  0.0668  0.3028 -0.2410
18323TIP3    H176384   6.159   4.560  14.812  0.2503 -0.5740 -0.5129
18323TIP3    H276385   6.042   4.465  14.830  0.0600 -0.1843  0.4002
18324TIP3   OH276386   5.010   2.676   1.986 -0.2876  0.3535 -0.1348
18324TIP3    H176387   5.072   2.618   1.942 -1.4450  0.0477 -1.4232
18324TIP3    H276388   5.024   2.762   1.945  1.0187  0.8868  1.3604
18325TIP3   OH276389   6.481   3.769   1.117  0.0353 -0.0103 -0.4446
18325TIP3    H176390   6.521   3.799   1.199 -1.4782  0.4131  0.1858
18325TIP3    H276391   6.489   3.843   1.057 -2.3719  1.2657  0.6371
18326TIP3   OH276392   6.692   2.440  13.615 -0.1271  0.3448  0.1421
18326TIP3    H176393   6.753   2.401  13.678  1.9207  1.8737 -0.7702
18326TIP3    H276394   6.609   2.444  13.661  0.7106 -0.8357  1.8517
18327TIP3   OH276395   2.602   5.523   4.378  0.4514  0.2245  0.2241
18327TIP3    H176396   2.696   5.537   4.389  1.3344 -4.0232 -0.2034
18327TIP3    H276397   2.572   5.494   4.465 -0.2836  0.5738  0.0985
18328TIP3   OH276398   1.300   1.383  16.539 -0.4568  0.7908 -0.8107
18328TIP3    H176399   1.343   1.301  16.562  2.0681  2.4039  0.7177
18328TIP3    H276400   1.336   1.405  16.453  0.6974  1.4100 -0.1863
18329TIP3   OH276401   1.650   5.669  12.059 -0.1395  0.2194 -0.7708
18329TIP3    H176402   1.616   5.589  12.020 -2.6646  1.3962 -1.2322
18329TIP3    H276403   1.629   5.662  12.152 -0.8841  0.5522 -0.9044
18330TIP3   OH276404   3.857   5.409  12.521 -0.3140  0.4498  0.0100
18330TIP3    H176405   3.835   5.488  12.473 -0.1890  0.7686  0.4695
18330TIP3    H276406   3.921   5.437  12.586  0.6125 -0.2487 -0.5671
18331TIP3   OH276407   1.247   4.010  15.057  0.5520 -0.2392 -0.0381
18331TIP3    H176408   1.155   4.034  15.045  0.7321 -0.0244 -1.0827
18331TIP3    H276409   1.288   4.030  14.973  1.6207 -0.0504  0.5095
18332TIP3   OH276410   1.027   3.660   3.668 -0.2539 -0.2081 -0.0372
18332TIP3    H176411   0.949   3.624   3.627 -1.2704  3.5917 -1.8851
18332TIP3    H276412   1.000   3.681   3.758 -0.7741 -0.5734 -0.1079
18333TIP3   OH276413   2.358   2.840  13.058  0.3941 -0.4960  0.6865
18333TIP3    H176414   2.289   2.776  13.045  1.6694 -1.7786 -0.1109
18333TIP3    H276415   2.396   2.852  12.971  1.1624  0.1841  1.0978
18334TIP3   OH276416   6.330   3.520   4.384 -0.2452  0.3814  0.7857
18334TIP3    H176417   6.305   3.612   4.368  1.6886  0.9348  0.7021
18334TIP3    H276418   6.339   3.514   4.479  1.3013  0.7838  0.6889
18335TIP3   OH276419   1.166   2.808  13.776  0.3649 -0.3562  0.2098
18335TIP3    H176420   1.171   2.821  13.681  1.0131 -0.0058  0.2885
18335TIP3    H276421   1.191   2.892  13.813  0.2760 -0.5435  0.6990
18336TIP3   OH276422   0.225   3.413  17.109  0.3453  0.3725  0.1497
18336TIP3    H176423   0.145   3.444  17.067  0.9174 -0.7155 -1.8925
18336TIP3    H276424   0.205   3.323  17.135  0.7154  0.2867  0.1464
18337TIP3   OH276425   4.055   0.585   5.459  0.2949  0.7583 -0.3690
18337TIP3    H176426   4.144   0.568   5.488 -0.0645 -1.8785 -0.5511
18337TIP3    H276427   4.053   0.557   5.367 -0.9084 -0.0971 -0.1104
18338TIP3   OH276428   3.907   6.641   5.998 -0.4125  0.7150 -0.3822
18338TIP3    H176429   3.844   6.655   5.928 -0.2394 -1.1584 -0.9625
18338TIP3    H276430   3.854   6.632   6.077 -0.8187 -0.0203 -0.7357
18339TIP3   OH276431   0.520   4.404  11.505 -0.0950  0.1999 -0.0388
18339TIP3    H176432   0.552   4.465  11.439 -0.0168  1.5977  1.2464
18339TIP3    H276433   0.478   4.459  11.571 -2.5973 -1.3441 -0.2174
18340TIP3   OH276434   3.010   4.965  10.770  0.4573 -0.4026 -0.0505
18340TIP3    H176435   3.045   4.980  10.683  0.4556 -1.3642 -0.2357
18340TIP3    H276436   2.946   5.035  10.784  1.6359  0.7187 -0.1463
18341TIP3   OH276437   0.065   5.253  13.516  0.2412  0.5604 -0.0473
18341TIP3    H176438   0.004   5.286  13.582 -1.0830 -2.1128  0.1719
18341TIP3    H276439   0.146   5.236  13.565  0.1872  1.2268  0.2880
18342TIP3   OH276440   5.769   3.684  14.740  0.5075 -0.7228  0.2551
18342TIP3    H176441   5.816   3.689  14.823  0.9751 -1.5204  0.0387
18342TIP3    H276442   5.791   3.766  14.695  0.8680 -0.6378  0.5822
18343TIP3   OH276443   5.512   2.963   1.681  0.2203  0.1107 -0.6373
18343TIP3    H176444   5.483   2.898   1.617  0.5074  0.0985 -0.7527
18343TIP3    H276445   5.550   2.911   1.752  0.6954  0.1624 -0.8508
18344TIP3   OH276446   4.008   5.107   3.892 -0.3214  0.0942 -0.0766
18344TIP3    H176447   4.055   5.028   3.864  0.7936  1.0625 -1.0395
18344TIP3    H276448   3.966   5.139   3.812  0.1095  1.0452  0.0739
18345TIP3   OH276449   6.248   3.731  13.661  0.0614  0.4007  0.5408
18345TIP3    H176450   6.181   3.703  13.724 -0.1955 -0.1376  0.0428
18345TIP3    H276451   6.243   3.827  13.662 -0.1177  0.3872  1.1473
18346TIP3   OH276452   1.015   2.011   5.345 -0.4807 -0.2870 -0.1859
18346TIP3    H176453   0.942   1.965   5.304  1.6536 -3.1120 -1.2041
18346TIP3    H276454   1.001   2.003   5.439 -2.1434  0.5138 -0.3350
18347TIP3   OH276455   0.847   2.288   6.461 -0.6911  0.2099 -0.6443
18347TIP3    H176456   0.904   2.292   6.537 -1.7425 -0.9998  0.2594
18347TIP3    H276457   0.905   2.264   6.388  0.7607  3.6605 -0.8013
18348TIP3   OH276458   5.781   1.848   4.577  0.7652 -0.2867 -0.4116
18348TIP3    H176459   5.712   1.883   4.634  2.1586 -0.3594  1.4027
18348TIP3    H276460   5.767   1.893   4.493  0.9170  2.7758  1.0415
18349TIP3   OH276461   5.296   3.507  14.238 -0.4689 -0.0039  0.0358
18349TIP3    H176462   5.331   3.542  14.156 -1.5303 -0.3327 -0.5816
18349TIP3    H276463   5.206   3.542  14.242 -0.3056  0.3126  1.2492
18350TIP3   OH276464   4.327   4.337  15.171 -0.0854 -0.1655  0.1700
18350TIP3    H176465   4.259   4.395  15.203  0.0020 -0.0712  0.1840
18350TIP3    H276466   4.359   4.292  15.249  1.4228  1.4160  0.5125
18351TIP3   OH276467   0.624   2.220  17.226 -0.3749  0.2359 -0.0580
18351TIP3    H176468   0.676   2.157  17.275  0.2231  1.1223  0.4744
18351TIP3    H276469   0.672   2.303  17.233 -1.7263  1.0311  0.2428
18352TIP3   OH276470   3.395   5.024  10.957 -0.3210 -0.6879  0.5004
18352TIP3    H176471   3.393   5.022  10.861  2.2958  0.8603  0.3184
18352TIP3    H276472   3.359   5.110  10.979 -0.5999 -0.9075  0.8976
18353TIP3   OH276473   3.605   1.315  16.705  0.3844  0.0653 -0.1706
18353TIP3    H176474   3.513   1.290  16.701 -0.1684  1.3018  2.6822
18353TIP3    H276475   3.613   1.386  16.642 -0.8021  0.4340  0.0631
18354TIP3   OH276476   1.421   1.994  12.737 -0.0022  0.2015  0.1144
18354TIP3    H176477   1.404   1.945  12.818 -0.8337 -0.4853 -0.4467
18354TIP3    H276478   1.459   2.076  12.766  0.3274 -0.3019  1.1652
18355TIP3   OH276479   5.108   5.088  13.939  0.3480 -0.1528 -0.7393
18355TIP3    H176480   5.138   4.998  13.930  0.2289 -0.3145  0.3347
18355TIP3    H276481   5.153   5.120  14.018 -1.5077 -0.0793  0.3448
18356TIP3   OH276482   3.919   5.213   0.836  0.2243 -0.4680 -0.5913
18356TIP3    H176483   3.874   5.262   0.767 -0.6808  0.2619  0.5065
18356TIP3    H276484   4.009   5.246   0.833 -0.0141  0.1706 -0.8650
18357TIP3   OH276485   0.505   5.952   6.616  0.2537 -0.2123  0.2251
18357TIP3    H176486   0.569   6.020   6.596  0.0789 -0.3719 -0.9566
18357TIP3    H276487   0.556   5.871   6.617  0.2216 -0.2336  0.1652
18358TIP3   OH276488   3.825   5.721  15.573  0.1807  0.5201  0.1702
18358TIP3    H176489   3.800   5.712  15.481  2.9566 -0.9522 -0.5312
18358TIP3    H276490   3.898   5.783  15.572  0.1071  0.6491  1.4312
18359TIP3   OH276491   3.849   1.981  13.529  0.7225  0.3422  0.1698
18359TIP3    H176492   3.861   2.051  13.465 -1.5051  0.5914 -0.0576
18359TIP3    H276493   3.907   1.911  13.500  0.7852  0.9922 -1.3183
18360TIP3   OH276494   6.364   2.329  15.099  0.1709 -0.3194 -0.0418
18360TIP3    H176495   6.320   2.355  15.179 -0.2882  2.4787 -1.0806
18360TIP3    H276496   6.296   2.290  15.045 -0.5040  1.4586 -0.5557
18361TIP3   OH276497   0.986   1.464   6.070 -0.0402 -0.0615  0.0006
18361TIP3    H176498   0.893   1.441   6.068 -0.0574 -0.3642  1.9431
18361TIP3    H276499   1.031   1.380   6.082  0.4434  0.1416 -0.3657
18362TIP3   OH276500   6.479   6.379   5.249  0.1216 -0.5121  0.0696
18362TIP3    H176501   6.458   6.390   5.341 -0.0743  0.7545 -0.1056
18362TIP3    H276502   6.470   6.285   5.233 -2.1120 -0.4994  0.8205
18363TIP3   OH276503   2.687   3.142  16.345  0.3517 -0.1843  0.0801
18363TIP3    H176504   2.750   3.081  16.383  0.1190 -1.8058 -1.9965
18363TIP3    H276505   2.612   3.140  16.405  1.5218  0.4127  1.6190
18364TIP3   OH276506   3.524   4.232   1.182  0.2940 -0.6061  0.3921
18364TIP3    H176507   3.545   4.149   1.224  0.3292  0.0600  1.7531
18364TIP3    H276508   3.442   4.259   1.222  1.0925  0.7805  1.1872
18365TIP3   OH276509   5.206   1.287   2.374 -0.6261  0.1626 -0.0989
18365TIP3    H176510   5.283   1.336   2.342 -2.5335  1.9053 -2.3925
18365TIP3    H276511   5.165   1.346   2.437 -0.0454 -0.8633  1.2958
18366TIP3   OH276512   4.398   0.660   3.924 -0.1773  0.2322 -0.4351
18366TIP3    H176513   4.393   0.738   3.868  1.9989  0.9532  0.2739
18366TIP3    H276514   4.444   0.690   4.002  1.9989 -2.0456 -0.7042
18367TIP3   OH276515   6.220   4.606   2.910 -0.1857 -0.1474  0.6107
18367TIP3    H176516   6.169   4.634   2.985 -1.3173 -0.8590  0.1295
18367TIP3    H276517   6.182   4.522   2.885 -0.0025  0.1882 -0.9009
18368TIP3   OH276518   1.896   3.861  12.799 -0.0329  0.0747  0.0962
18368TIP3    H176519   1.845   3.935  12.832  1.9309  1.1978  0.7856
18368TIP3    H276520   1.850   3.835  12.719  0.2636  3.3792 -1.3148
18369TIP3   OH276521   6.600   4.240  11.010  0.1510  0.2330 -0.0164
18369TIP3    H176522   6.611   4.318  10.957  0.5776 -0.6958 -1.3304
18369TIP3    H276523   6.688   4.203  11.019 -0.1610 -0.5948 -0.2113
18370TIP3   OH276524   5.766   3.789  13.860 -0.3640 -0.2051  0.4208
18370TIP3    H176525   5.707   3.727  13.816  1.6786 -2.9077  1.2121
18370TIP3    H276526   5.724   3.806  13.944 -0.9421 -0.5714  0.2146
18371TIP3   OH276527   4.055   6.195  11.667  0.1416 -0.9069 -0.3449
18371TIP3    H176528   4.085   6.210  11.578 -0.2127 -0.3588 -0.3768
18371TIP3    H276529   4.030   6.281  11.699  1.2075 -0.9433  0.6419
18372TIP3   OH276530   5.854   5.035  11.135 -0.2173  0.1872 -0.3764
18372TIP3    H176531   5.947   5.012  11.132 -0.2928 -0.2464  0.3128
18372TIP3    H276532   5.842   5.076  11.221 -0.0381  3.1626 -1.6572
18373TIP3   OH276533   0.823   1.677   1.479 -0.1683  0.1818 -0.1654
18373TIP3    H176534   0.896   1.633   1.436  0.1436  1.0966 -0.6105
18373TIP3    H276535   0.828   1.649   1.570 -0.0973 -0.8311 -0.4676
18374TIP3   OH276536   0.120   4.550   4.071  0.0662  0.4027  0.1328
18374TIP3    H176537   0.205   4.554   4.115  1.0374 -0.6287 -1.5542
18374TIP3    H276538   0.115   4.632   4.022 -0.2303  0.7502  0.7219
18375TIP3   OH276539   5.200   2.733   4.986 -0.4145 -0.1380  0.1130
18375TIP3    H176540   5.232   2.654   4.942 -1.2268 -1.9907  2.6286
18375TIP3    H276541   5.279   2.782   5.006  0.6287 -2.5704  2.4614
18376TIP3   OH276542   0.390   5.458  12.207 -0.2323 -0.6540 -0.4183
18376TIP3    H176543   0.308   5.447  12.256  0.4131  2.4268  1.6548
18376TIP3    H276544   0.441   5.380  12.226 -2.3032 -2.2828 -1.1194
18377TIP3   OH276545   4.977   5.998  15.057  0.2185  0.5533 -0.0191
18377TIP3    H176546   5.045   6.022  14.994  0.0826  0.0078 -0.3812
18377TIP3    H276547   4.963   5.904  15.042  0.9748  0.1342  1.5611
18378TIP3   OH276548   2.251   0.690  13.814  0.1242 -0.3025 -0.6822
18378TIP3    H176549   2.198   0.674  13.736 -3.6502 -0.0463  1.5415
18378TIP3    H276550   2.256   0.785  13.821 -1.0456 -0.2773  0.1842
18379TIP3   OH276551   4.721   1.620  12.160 -0.2852  0.7383  0.6930
18379TIP3    H176552   4.682   1.687  12.104 -1.1887 -0.7593 -0.5888
18379TIP3    H276553   4.760   1.668  12.233  0.3181  2.7356 -0.8576
18380TIP3   OH276554   4.221   5.300   1.085 -0.2813 -0.5590  0.3411
18380TIP3    H176555   4.295   5.330   1.136 -0.1727 -0.5784  0.1951
18380TIP3    H276556   4.229   5.204   1.084 -0.1131 -0.5412  0.0310
18381TIP3   OH276557   2.175   6.122   4.326  0.2971  0.7108 -0.2741
18381TIP3    H176558   2.180   6.173   4.407  0.4072 -0.3093  0.3769
18381TIP3    H276559   2.117   6.173   4.269  0.2550  1.4665  0.4247
18382TIP3   OH276560   4.973   3.757   1.767  0.3071 -0.4695  0.6563
18382TIP3    H176561   5.003   3.790   1.682  0.0873  0.3319  0.8837
18382TIP3    H276562   5.028   3.801   1.831 -1.9729  1.8949  1.1553
18383TIP3   OH276563   5.762   6.021  12.779 -0.4990 -0.3370 -0.1683
18383TIP3    H176564   5.737   5.974  12.700  0.4917  0.3559 -0.9189
18383TIP3    H276565   5.857   6.035  12.770 -0.1834 -1.0700  1.5869
18384TIP3   OH276566   0.762   3.415   3.065 -0.2660  0.2824  0.3096
18384TIP3    H176567   0.695   3.378   3.008 -0.5631 -0.0012  0.8366
18384TIP3    H276568   0.801   3.486   3.014  0.1063 -0.5478 -0.5990
18385TIP3   OH276569   0.516   2.222   3.480 -0.2315 -0.2920 -0.4146
18385TIP3    H176570   0.488   2.293   3.421 -1.0624 -1.4537 -1.4611
18385TIP3    H276571   0.595   2.186   3.439 -0.0145 -0.2058 -0.0733
18386TIP3   OH276572   4.310   3.670   0.420  0.0893 -0.0380  0.2883
18386TIP3    H176573   4.332   3.690   0.329 -1.1909  0.0268 -0.0247
18386TIP3    H276574   4.369   3.726   0.472  3.6316 -2.8559 -0.3409
18387TIP3   OH276575   3.537   5.966   6.344  0.2212 -0.6752  0.2255
18387TIP3    H176576   3.510   6.037   6.403 -1.9745 -0.5834 -0.7806
18387TIP3    H276577   3.494   5.888   6.379 -2.4812 -0.3512 -1.9812
18388TIP3   OH276578   3.903   2.761  14.714  0.1703  0.8155  0.0104
18388TIP3    H176579   3.873   2.828  14.776  0.0133  1.7769 -1.0801
18388TIP3    H276580   3.994   2.743  14.740 -0.0396  0.8591  0.8005
18389TIP3   OH276581   2.789   4.733  11.216  0.0153 -0.1654 -0.1173
18389TIP3    H176582   2.750   4.785  11.147 -1.0493 -0.0504  0.5474
18389TIP3    H276583   2.763   4.643  11.196 -0.9752 -0.0421  0.5518
18390TIP3   OH276584   2.673   0.777  10.842 -0.0471 -0.6547  0.0740
18390TIP3    H176585   2.662   0.685  10.866 -1.5453 -0.5259 -0.0286
18390TIP3    H276586   2.609   0.792  10.772  1.4631  0.0092 -1.2233
18391TIP3   OH276587   4.337   0.179   2.242  0.3425  0.2354  0.4229
18391TIP3    H176588   4.382   0.146   2.164 -0.9818  0.6410 -0.5564
18391TIP3    H276589   4.398   0.243   2.279  0.0186  1.9619 -1.7794
18392TIP3   OH276590   3.619   6.510  16.288 -0.0889  0.1758  0.3669
18392TIP3    H176591   3.625   6.419  16.257  2.4297  0.3935  0.0225
18392TIP3    H276592   3.670   6.511  16.369  0.0828  1.3330  0.2611
18393TIP3   OH276593   6.593   2.617  16.194  0.2319 -0.2688 -0.3666
18393TIP3    H176594   6.509   2.663  16.192  1.9977  3.2891 -0.2550
18393TIP3    H276595   6.635   2.640  16.112  3.0807  2.4144  1.6183
18394TIP3   OH276596   2.492   2.633   2.865 -0.7046 -0.6465  0.4773
18394TIP3    H176597   2.426   2.572   2.832 -1.7970  0.1411  1.1190
18394TIP3    H276598   2.510   2.692   2.791 -0.5608 -0.9821  0.2411
18395TIP3   OH276599   6.038   0.306  17.315 -0.5102  0.0253 -0.0841
18395TIP3    H176600   6.130   0.281  17.302 -0.5969 -0.5327  0.3681
18395TIP3    H276601   5.989   0.242  17.265 -0.6346  0.7415 -0.9105
18396TIP3   OH276602   6.093   1.529   3.247 -0.0963  0.0121 -0.5083
18396TIP3    H176603   6.060   1.584   3.176  1.2064 -1.7022 -2.5705
18396TIP3    H276604   6.026   1.461   3.258 -0.6131  0.6516  0.4153
18397TIP3   OH276605   6.029   1.902   1.578  0.4710 -0.3598 -0.0608
18397TIP3    H176606   6.113   1.860   1.593 -0.3018 -2.5982 -1.4700
18397TIP3    H276607   5.966   1.847   1.625 -0.3283  0.7315  0.1873
18398TIP3   OH276608   0.399   1.770   1.452 -0.3883 -0.3792  0.3280
18398TIP3    H176609   0.317   1.799   1.492  0.3814  1.7205  0.5337
18398TIP3    H276610   0.424   1.692   1.501 -0.5249  0.9207  2.6303
18399TIP3   OH276611   5.651   3.820   1.185 -0.1184  0.5785  0.2271
18399TIP3    H176612   5.636   3.896   1.129  0.6287  0.1848 -0.5331
18399TIP3    H276613   5.731   3.841   1.234 -0.5804  0.7794  0.9081
18400TIP3   OH276614   6.203   0.281   2.140  0.0132 -0.0703  0.3543
18400TIP3    H176615   6.149   0.311   2.213  0.2460 -1.3565  1.0969
18400TIP3    H276616   6.279   0.240   2.182  0.9923  0.6766 -0.6493
18401TIP3   OH276617   3.079   4.020   4.909  0.1123  0.3489  0.0596
18401TIP3    H176618   3.164   3.987   4.878  0.2754  0.5557  0.2861
18401TIP3    H276619   3.099   4.065   4.991 -0.5482 -1.6229  1.3823
18402TIP3   OH276620   0.496   6.441   2.477  0.4945  0.0152  0.1898
18402TIP3    H176621   0.580   6.484   2.494  1.1107 -0.0949 -2.2312
18402TIP3    H276622   0.485   6.381   2.551  3.4139 -1.1689 -0.1891
18403TIP3   OH276623   3.277   0.750   4.935 -0.2832  0.1815  0.1542
18403TIP3    H176624   3.301   0.818   4.998 -0.6380  0.4134  0.0465
18403TIP3    H276625   3.195   0.782   4.897  0.7000  0.8131 -1.5445
18404TIP3   OH276626   4.469   1.073  15.175  0.5785  0.6995 -0.4295
18404TIP3    H176627   4.422   1.135  15.230 -1.8550 -3.5215  2.8657
18404TIP3    H276628   4.561   1.096  15.187 -0.1164  2.7363  1.7329
18405TIP3   OH276629   5.679   1.097  13.703 -0.2044  0.7724 -0.1250
18405TIP3    H176630   5.601   1.120  13.652  0.1337 -0.1048 -1.0643
18405TIP3    H276631   5.670   1.004  13.720 -0.8192  1.2328  2.3683
18406TIP3   OH276632   0.365   0.567   2.210 -0.0184  0.1760  0.0032
18406TIP3    H176633   0.339   0.570   2.302 -1.7467 -0.6595 -0.4147
18406TIP3    H276634   0.390   0.475   2.196 -1.1807 -0.0499 -0.6944
18407TIP3   OH276635   2.444   6.310  15.345  0.2076  0.2802  0.7014
18407TIP3    H176636   2.439   6.233  15.288  1.2429  0.6327  0.1033
18407TIP3    H276637   2.380   6.371  15.308  0.1497  0.1158  0.5266
18408TIP3   OH276638   4.501   5.856   2.708 -1.0092  0.2649  0.0702
18408TIP3    H176639   4.470   5.770   2.737 -0.4336  0.7312  2.3369
18408TIP3    H276640   4.547   5.891   2.785 -0.0574  2.0365 -1.2375
18409TIP3   OH276641   3.530   1.852  15.656  0.1534 -0.2799 -0.4168
18409TIP3    H176642   3.609   1.845  15.710  0.7489 -0.4801 -1.3030
18409TIP3    H276643   3.459   1.862  15.720  1.0180  1.2108  0.3803
18410TIP3   OH276644   5.365   2.936   2.321  0.0231  0.3122 -0.4533
18410TIP3    H176645   5.423   3.010   2.341 -1.4656  1.2907  0.4136
18410TIP3    H276646   5.334   2.954   2.232 -0.0081  0.5126 -0.4032
18411TIP3   OH276647   5.005   1.191   6.296  0.0345 -0.1329  0.4699
18411TIP3    H176648   5.051   1.168   6.377  0.4094  0.8506  0.5394
18411TIP3    H276649   4.973   1.279   6.311  0.2377  0.1149 -0.5141
18412TIP3   OH276650   3.353   5.489  12.257  0.3412  0.4137 -0.0651
18412TIP3    H176651   3.354   5.571  12.306  0.2143 -0.7328  1.9801
18412TIP3    H276652   3.420   5.435  12.299 -1.7516 -1.6717  0.8568
18413TIP3   OH276653   3.342   4.451  12.913  0.2691  0.5326 -0.6499
18413TIP3    H176654   3.398   4.455  12.835 -0.6260  1.2760 -1.2864
18413TIP3    H276655   3.323   4.358  12.924  0.6913  0.3872 -1.1216
18414TIP3   OH276656   3.227   5.235   5.168  0.0269 -0.2798  0.4052
18414TIP3    H176657   3.264   5.323   5.169 -1.8535  0.6452 -1.8177
18414TIP3    H276658   3.217   5.213   5.261 -0.1497  2.1919  1.0638
18415TIP3   OH276659   4.009   1.261  16.015 -0.0998  0.1034  0.0575
18415TIP3    H176660   4.035   1.262  15.923  0.1856 -0.6620  0.1300
18415TIP3    H276661   4.067   1.198  16.057 -0.7798 -0.1830  0.5996
18416TIP3   OH276662   4.720   1.464   4.462 -0.1711 -0.2666 -0.4298
18416TIP3    H176663   4.628   1.491   4.465 -0.6202 -1.7511 -0.2348
18416TIP3    H276664   4.724   1.400   4.391  0.5378 -0.8216  0.0898
18417TIP3   OH276665   0.451   0.436   0.282  0.5107 -0.1158 -0.2459
18417TIP3    H176666   0.424   0.525   0.305 -0.3578 -0.8031  1.4947
18417TIP3    H276667   0.449   0.435   0.186  1.3372  1.9634 -0.3550
18418TIP3   OH276668   1.560   4.408  16.978 -0.5316  0.5086  0.1734
18418TIP3    H176669   1.475   4.364  16.981 -0.4926  0.1015 -2.3583
18418TIP3    H276670   1.624   4.338  16.992 -0.5603  0.7406  1.6222
18419TIP3   OH276671   5.169   5.011  15.838 -0.2270  0.1293  0.0996
18419TIP3    H176672   5.129   4.990  15.754  1.0770  0.1369 -0.5515
18419TIP3    H276673   5.153   5.105  15.849 -1.0799 -0.0249  0.2516
18420TIP3   OH276674   4.724   0.206  11.640  0.7683  0.2190 -0.1066
18420TIP3    H176675   4.751   0.134  11.582  1.7778  0.9773 -0.6161
18420TIP3    H276676   4.649   0.171  11.688  2.7925 -2.1804  1.6084
18421TIP3   OH276677   5.131   0.102   5.322  0.8388  0.1172 -0.4597
18421TIP3    H176678   5.101   0.192   5.325  3.2801  0.9840  1.5317
18421TIP3    H276679   5.158   0.088   5.231 -3.9157 -0.3602 -2.0881
18422TIP3   OH276680   3.846   5.815  16.265 -0.4744  0.0506  0.4253
18422TIP3    H176681   3.768   5.833  16.213 -0.3641  0.0241  0.2502
18422TIP3    H276682   3.882   5.901  16.286  0.5165  0.0592 -1.1127
18423TIP3   OH276683   4.214   3.798  14.818  0.0282  0.0091 -0.0517
18423TIP3    H176684   4.255   3.723  14.862 -0.0541 -0.8200 -1.3316
18423TIP3    H276685   4.288   3.848  14.782  0.0202 -0.4102 -0.6684
18424TIP3   OH276686   2.777   4.930   2.755  0.2046 -0.1805 -0.5041
18424TIP3    H176687   2.814   4.862   2.811 -0.3079  0.5464  0.7677
18424TIP3    H276688   2.836   4.934   2.680  1.5202 -0.5036  0.4725
18425TIP3   OH276689   1.594   6.677  16.528 -0.2038 -0.7415  0.1918
18425TIP3    H176690   1.675   6.645  16.487 -0.4338 -0.0177 -0.8613
18425TIP3    H276691   1.528   6.611  16.504  0.2660 -1.9317  1.9898
18426TIP3   OH276692   3.391   0.036   4.576  0.1462  0.5716 -0.2516
18426TIP3    H176693   3.384   0.074   4.663 -1.8658 -0.2681  0.0057
18426TIP3    H276694   3.347   0.099   4.518  1.3214  1.0449 -0.6474
18427TIP3   OH276695   1.122   3.268   5.652  0.1254 -0.4382 -0.1737
18427TIP3    H176696   1.041   3.314   5.628  0.8527 -0.4181 -2.8690
18427TIP3    H276697   1.152   3.313   5.731 -1.5137  0.7600 -0.1667
18428TIP3   OH276698   5.262   0.830   5.907 -0.2028  0.2710  0.1466
18428TIP3    H176699   5.181   0.877   5.925 -0.8122 -0.7986  0.3212
18428TIP3    H276700   5.245   0.741   5.939  0.3333 -0.4737 -1.5437
18429TIP3   OH276701   2.069   5.557   5.921  0.2015 -0.5550 -0.1272
18429TIP3    H176702   1.985   5.543   5.877 -0.5564 -1.1100  1.4552
18429TIP3    H276703   2.074   5.488   5.987  1.4337  0.1078  0.5039
18430TIP3   OH276704   2.426   5.247   0.039  0.3039 -0.1960 -0.0412
18430TIP3    H176705   2.445   5.250  -0.055 -0.7230 -0.4362 -0.2731
18430TIP3    H276706   2.507   5.274   0.081  0.6712  0.2550 -1.0123
18431TIP3   OH276707   5.585   6.310   3.714  0.0699 -0.2381  0.0167
18431TIP3    H176708   5.562   6.260   3.636  1.9177 -1.1809  0.0238
18431TIP3    H276709   5.597   6.400   3.682  2.3932 -0.9059 -1.1668
18432TIP3   OH276710   3.097   6.660  13.601  0.2830  0.1469 -0.0122
18432TIP3    H176711   3.131   6.700  13.521 -0.7250  1.1135  0.0279
18432TIP3    H276712   3.038   6.725  13.638 -1.0294 -1.1805  0.3227
18433TIP3   OH276713   1.830   5.691   5.182 -0.0745 -0.1046  0.5172
18433TIP3    H176714   1.827   5.764   5.244 -0.2222 -0.3669  0.8235
18433TIP3    H276715   1.742   5.686   5.145 -0.0813 -0.1615  0.5398
18434TIP3   OH276716   6.666   1.662  16.753 -0.0626 -0.7137  0.6190
18434TIP3    H176717   6.587   1.609  16.743  0.4957 -1.3025 -0.9796
18434TIP3    H276718   6.659   1.729  16.685  0.2788 -0.0515  1.2220
18435TIP3   OH276719   5.095   6.716  15.532 -0.1779  0.3455 -0.3944
18435TIP3    H176720   5.139   6.635  15.556  2.1127  1.2294 -1.3787
18435TIP3    H276721   5.018   6.719  15.590  0.5003 -1.7379  0.7264
18436TIP3   OH276722   5.789   3.238   5.596  0.3717 -0.2894 -0.5099
18436TIP3    H176723   5.760   3.203   5.512 -1.9739 -1.8100  0.8207
18436TIP3    H276724   5.723   3.304   5.617  0.0625 -0.9894  0.7940
18437TIP3   OH276725   2.473   0.242  14.138  0.0441 -0.0368  0.3015
18437TIP3    H176726   2.555   0.217  14.181  0.5187  1.1699  0.1224
18437TIP3    H276727   2.408   0.183  14.176  0.7341 -0.0390  1.5474
18438TIP3   OH276728   3.650   0.863   3.873 -0.1570 -0.0585 -0.0076
18438TIP3    H176729   3.632   0.874   3.780  1.5595  1.1540 -0.2479
18438TIP3    H276730   3.650   0.952   3.908  2.5547 -0.1646  0.4433
18439TIP3   OH276731   6.693   0.345  13.793  0.3627 -0.4612  0.1211
18439TIP3    H176732   6.637   0.284  13.841  1.2288 -0.4519  1.1649
18439TIP3    H276733   6.632   0.394  13.737 -0.3553 -2.2650 -0.7676
18440TIP3   OH276734   1.141   1.295   1.109  0.1654 -0.4314 -0.3428
18440TIP3    H176735   1.117   1.306   1.201  0.2467 -0.7918 -0.2795
18440TIP3    H276736   1.058   1.274   1.065  0.1044 -0.1341 -0.3761
18441TIP3   OH276737   6.179   1.873  14.980  0.0839  0.4846  0.4483
18441TIP3    H176738   6.273   1.889  14.984  0.3213 -0.7304 -0.0017
18441TIP3    H276739   6.165   1.795  15.032 -0.7097  0.7655  0.6701
18442TIP3   OH276740   4.905   0.942   5.520 -0.1804  0.1401 -0.2332
18442TIP3    H176741   4.988   0.896   5.535 -0.2412 -0.7320 -2.2169
18442TIP3    H276742   4.871   0.904   5.439 -1.1762  2.4017 -0.9672
18443TIP3   OH276743   5.493   1.010  17.033 -0.0989 -0.2749  0.0447
18443TIP3    H176744   5.493   1.062  16.953  1.0093 -2.0783 -1.2407
18443TIP3    H276745   5.418   0.952  17.024  0.7612 -1.3728 -0.3842
18444TIP3   OH276746   3.006   2.218   4.220 -0.1522 -0.3599 -0.7758
18444TIP3    H176747   3.092   2.247   4.191 -0.4128  0.6449 -0.5864
18444TIP3    H276748   2.962   2.186   4.141 -0.4538  1.3143 -1.3108
18445TIP3   OH276749   0.478   1.050  16.675 -0.3247 -0.3878  0.1726
18445TIP3    H176750   0.517   1.095  16.600  0.8300  0.0165  0.9992
18445TIP3    H276751   0.453   0.964  16.641 -2.6446  0.8060 -1.4653
18446TIP3   OH276752   2.146   0.222  16.559  0.1309 -0.1849  0.0184
18446TIP3    H176753   2.090   0.281  16.509 -1.6307 -1.5467  0.2693
18446TIP3    H276754   2.161   0.147  16.502  1.0063 -0.2255  0.2781
18447TIP3   OH276755   5.667   3.503   0.601 -0.2633  0.2526 -0.4440
18447TIP3    H176756   5.605   3.429   0.604  0.5730 -0.4427  1.2458
18447TIP3    H276757   5.618   3.576   0.638 -0.4498  0.0022 -0.1904
18448TIP3   OH276758   2.365   0.207   4.134  0.2668  0.8919 -0.0962
18448TIP3    H176759   2.423   0.278   4.106 -0.4782  2.3228  1.7803
18448TIP3    H276760   2.280   0.250   4.149 -0.5953 -0.6681 -0.2683
18449TIP3   OH276761   3.269   1.420   3.407  0.4255  0.2985 -0.2264
18449TIP3    H176762   3.193   1.428   3.465  0.3932 -0.0979 -0.2108
18449TIP3    H276763   3.273   1.327   3.386  1.2381  0.2222  0.2232
18450TIP3   OH276764   2.457   0.755   0.388 -0.4142 -0.3943  0.1226
18450TIP3    H176765   2.379   0.724   0.433  0.6418 -0.3115  2.1332
18450TIP3    H276766   2.466   0.846   0.416  1.2926 -0.8761  1.3174
18451TIP3   OH276767   3.069   6.293  14.286 -0.1279  0.0294  0.4569
18451TIP3    H176768   3.083   6.261  14.197  0.1948 -1.9754  1.1674
18451TIP3    H276769   3.119   6.375  14.290 -0.3632  0.3019 -1.2511
18452TIP3   OH276770   6.224   5.153  10.894 -0.5032 -0.1518 -0.6018
18452TIP3    H176771   6.238   5.244  10.869  1.4629 -0.2934 -0.1527
18452TIP3    H276772   6.218   5.105  10.812  3.5582 -0.2847 -1.0130
18453TIP3   OH276773   4.087   0.743  14.571 -0.0356 -0.3581  0.5690
18453TIP3    H176774   4.159   0.735  14.634 -0.8665 -0.7583  1.5081
18453TIP3    H276775   4.125   0.719  14.487  0.8428 -0.9242  1.1118
18454TIP3   OH276776   3.258   1.307   3.066  0.0692  0.2407 -0.0109
18454TIP3    H176777   3.265   1.239   3.133 -0.5485  1.7313  1.6713
18454TIP3    H276778   3.172   1.347   3.082  0.3670  1.3389 -0.9986
18455TIP3   OH276779   0.940   6.087  16.213 -0.3304  0.3662 -0.0389
18455TIP3    H176780   0.897   6.066  16.296 -1.3365  3.2548  0.3055
18455TIP3    H276781   0.929   6.182  16.204  2.1974  0.5818 -2.1345
18456TIP3   OH276782   1.329   6.338   2.734 -0.2965 -0.6930 -0.5057
18456TIP3    H176783   1.302   6.294   2.815  0.7243 -3.3191 -1.4899
18456TIP3    H276784   1.248   6.346   2.683 -0.5019 -1.4881 -0.3119
18457TIP3   OH276785   3.012   0.955   4.173 -0.0323  0.1593  0.5277
18457TIP3    H176786   2.957   1.026   4.205 -0.5722  0.2720 -0.5905
18457TIP3    H276787   3.045   0.988   4.089 -0.4236 -0.9789 -0.0836
18458TIP3   OH276788   0.857   5.558  16.716 -0.5694  0.0560 -0.1959
18458TIP3    H176789   0.817   5.630  16.668  0.9715  0.3325 -1.1257
18458TIP3    H276790   0.854   5.484  16.655 -1.8758 -0.6128  0.6432
18459TIP3   OH276791   2.756   6.436   3.516 -0.1456 -0.3645  0.4020
18459TIP3    H176792   2.791   6.420   3.429  1.6193 -0.0974  1.0306
18459TIP3    H276793   2.693   6.365   3.530  1.0886 -1.6348 -0.2720
18460TIP3   OH276794   3.595   3.559  15.584 -0.1278  0.0638  0.0838
18460TIP3    H176795   3.682   3.587  15.556 -1.3544  2.9454 -1.3216
18460TIP3    H276796   3.591   3.581  15.677  0.7563 -0.4760  0.2577
18461TIP3   OH276797   4.333   2.666   5.337 -0.3706 -0.2164  0.0764
18461TIP3    H176798   4.337   2.704   5.249  3.1732 -1.2384 -0.3555
18461TIP3    H276799   4.345   2.741   5.395  1.2826  0.0507 -0.5434
18462TIP3   OH276800   1.843   6.007  13.728  0.3450 -0.4117 -0.5834
18462TIP3    H176801   1.923   5.975  13.687 -0.9864 -3.9031 -0.8051
18462TIP3    H276802   1.773   5.958  13.686 -1.5893 -0.1943  2.1050
18463TIP3   OH276803   2.122   3.314  11.746 -0.6683  0.3088  0.2976
18463TIP3    H176804   2.067   3.393  11.743 -1.3612 -0.1782 -0.6786
18463TIP3    H276805   2.100   3.268  11.665  0.5178 -0.3640  0.3460
18464TIP3   OH276806   5.143   6.330   1.843  0.3229 -0.0229 -0.2313
18464TIP3    H176807   5.147   6.243   1.882 -0.3832  0.2924  0.5880
18464TIP3    H276808   5.162   6.389   1.915  1.1101  0.5005 -0.8528
18465TIP3   OH276809   5.233   6.661  15.232 -0.5200 -0.3723  0.5534
18465TIP3    H176810   5.222   6.566  15.237 -0.6108 -0.3799  0.2315
18465TIP3    H276811   5.250   6.679  15.140  1.7572 -0.2981  0.9446
18466TIP3   OH276812   4.933   5.719  14.989 -0.1462 -0.4650 -0.0368
18466TIP3    H176813   4.952   5.653  14.922  0.3318  0.1137 -0.4740
18466TIP3    H276814   4.842   5.702  15.014  0.7568 -3.1536  1.9290
18467TIP3   OH276815   4.317   6.174  11.837  0.4267 -0.6341 -0.3772
18467TIP3    H176816   4.273   6.179  11.922  0.0023 -2.3321 -0.4772
18467TIP3    H276817   4.273   6.241  11.784 -0.7852 -1.0325  0.0920
18468TIP3   OH276818   0.777   0.060   2.046 -0.4692 -0.0947  0.2813
18468TIP3    H176819   0.788   0.003   1.970  0.1588  0.3677  0.0199
18468TIP3    H276820   0.702   0.115   2.025 -0.9718 -0.7018  0.4614
18469TIP3   OH276821   4.852   5.103  16.642  0.5473  0.7030 -0.0054
18469TIP3    H176822   4.789   5.175  16.649  0.4459  0.7680 -1.2987
18469TIP3    H276823   4.874   5.081  16.733 -2.9274 -0.7478  0.6308
18470TIP3   OH276824   1.562   6.057  17.231  0.5481 -0.1939  0.3362
18470TIP3    H176825   1.610   5.998  17.289  1.8637 -0.3941 -0.9099
18470TIP3    H276826   1.610   6.140  17.237  1.0620 -0.3867 -0.8946
18471TIP3   OH276827   3.299   6.221   4.282  0.4079 -0.1043  0.1895
18471TIP3    H176828   3.211   6.217   4.319  0.4876  0.0307  0.3950
18471TIP3    H276829   3.352   6.265   4.349  0.5699  0.0712 -0.0476
18472TIP3   OH276830   2.349   3.639  14.428 -0.3658 -0.4337 -0.8119
18472TIP3    H176831   2.375   3.700  14.359 -1.8877  2.5215  0.9972
18472TIP3    H276832   2.260   3.611  14.404 -0.2586 -0.7266 -0.8723
18473TIP3   OH276833   4.767   1.028   0.710  0.0702 -0.1547  0.3876
18473TIP3    H176834   4.859   1.002   0.702  0.5276  1.5967 -0.3805
18473TIP3    H276835   4.751   1.029   0.804  0.3978 -1.8324  0.5002
18474TIP3   OH276836   3.076   3.603  11.340 -0.4746  0.2031  0.1356
18474TIP3    H176837   3.001   3.658  11.320  0.5740  2.2488  1.4524
18474TIP3    H276838   3.151   3.649  11.301  0.2452 -1.2232 -0.2425
18475TIP3   OH276839   1.939   2.544   0.513  0.3160  0.3579  0.2935
18475TIP3    H176840   1.920   2.455   0.541 -0.0277  0.6482  1.0163
18475TIP3    H276841   2.031   2.542   0.488  0.9871  0.3157  2.5362
18476TIP3   OH276842   0.448   4.842   2.979  0.6662 -0.3882  0.4329
18476TIP3    H176843   0.468   4.828   3.071  2.0673 -1.3277  0.0209
18476TIP3    H276844   0.373   4.785   2.961  1.6861 -1.8120  0.5305
18477TIP3   OH276845   1.237   1.726   5.432  0.4110  0.2869 -0.1179
18477TIP3    H176846   1.318   1.676   5.436 -0.7567 -1.8324 -0.9698
18477TIP3    H276847   1.217   1.747   5.523  0.8654 -0.9967  0.3022
18478TIP3   OH276848   4.676   5.984   3.830  0.1626 -0.4597  0.2041
18478TIP3    H176849   4.734   6.019   3.898  5.2370 -1.4478 -3.0494
18478TIP3    H276850   4.702   5.893   3.820 -1.1231 -0.6450 -2.2842
18479TIP3   OH276851   2.154   4.015   1.772  0.5525 -0.5933  0.0346
18479TIP3    H176852   2.076   4.070   1.782  0.2699 -0.6391 -1.6056
18479TIP3    H276853   2.141   3.943   1.833 -0.5464 -0.4416 -0.0045
18480TIP3   OH276854   5.367   6.198   4.174 -0.1463  0.1610 -0.3094
18480TIP3    H176855   5.371   6.189   4.079 -1.9606 -2.1892 -0.2564
18480TIP3    H276856   5.287   6.247   4.190  0.0790  0.4268  0.0192
18481TIP3   OH276857   5.794   0.847   6.096  0.1390  0.5943 -0.0086
18481TIP3    H176858   5.799   0.785   6.023  1.7275 -0.7071  1.1325
18481TIP3    H276859   5.783   0.792   6.173  1.4627  1.7227  1.0296
18482TIP3   OH276860   0.920   3.860   3.459  0.3438  1.0307  0.0703
18482TIP3    H176861   0.852   3.798   3.485 -0.5278  0.5770 -2.9446
18482TIP3    H276862   0.995   3.839   3.515 -0.2074 -2.1473 -0.2153
18483TIP3   OH276863   2.615   2.808  16.034  0.0640  0.6192 -0.4067
18483TIP3    H176864   2.662   2.750  15.974  1.6916  1.3019  0.1582
18483TIP3    H276865   2.595   2.752  16.109  2.7304  0.9920  0.6856
18484TIP3   OH276866   3.002   1.873   3.475 -0.5148  0.0786  0.4419
18484TIP3    H176867   3.062   1.825   3.417 -0.1476  1.5229 -0.4186
18484TIP3    H276868   3.055   1.943   3.511 -0.8886 -0.4858  2.1605
18485TIP3   OH276869   6.093   3.814  16.244  0.3790  0.1793 -0.0249
18485TIP3    H176870   6.063   3.724  16.241  1.0493 -0.0781  0.7715
18485TIP3    H276871   6.014   3.866  16.260 -0.0731 -0.2168 -0.9053
18486TIP3   OH276872   4.095   0.871  16.253 -0.9202 -0.0574 -0.1210
18486TIP3    H176873   4.063   0.814  16.183  2.4243 -0.3100 -1.5872
18486TIP3    H276874   4.103   0.814  16.329 -0.0988 -0.9314 -0.8539
18487TIP3   OH276875   1.307   2.219  15.011 -0.7272  0.1892 -0.0768
18487TIP3    H176876   1.268   2.191  15.094  2.4646  0.6181  1.7461
18487TIP3    H276877   1.360   2.144  14.984  0.0990  0.8997 -0.4612
18488TIP3   OH276878   2.810   3.850  14.954 -0.3187 -0.3276 -0.5011
18488TIP3    H176879   2.802   3.929  14.900 -0.4481  0.8991  1.1947
18488TIP3    H276880   2.720   3.820  14.966 -0.5014  0.5777  0.6082
18489TIP3   OH276881   1.576   6.597   3.114  0.1080 -0.3736 -0.2295
18489TIP3    H176882   1.495   6.601   3.063 -0.8304  1.7781  1.2746
18489TIP3    H276883   1.595   6.503   3.121 -1.7061 -0.8901 -1.4363
18490TIP3   OH276884   4.853   0.538  15.261  0.0191 -0.0957 -0.0558
18490TIP3    H176885   4.764   0.516  15.289 -0.7372  1.2059 -1.2929
18490TIP3    H276886   4.891   0.454  15.235 -0.6996 -0.7224  0.8683
18491TIP3   OH276887   3.261   4.160  12.221  0.1137  0.2939  0.3203
18491TIP3    H176888   3.278   4.247  12.186 -0.3153  0.0234 -0.5666
18491TIP3    H276889   3.291   4.100  12.153  1.3396 -0.2854  1.3217
18492TIP3   OH276890   2.318   2.960  15.297  0.2708  0.0909  0.0022
18492TIP3    H176891   2.297   3.013  15.220 -0.9362  1.0358  0.9483
18492TIP3    H276892   2.407   2.929  15.280 -0.4939 -1.0365 -2.4761
18493TIP3   OH276893   2.834   5.113   0.265 -0.1305 -0.0054  0.1926
18493TIP3    H176894   2.835   5.038   0.206  0.1632 -0.9235  1.3156
18493TIP3    H276895   2.925   5.143   0.267  0.2460 -1.1428  1.5686
18494TIP3   OH276896   5.343   2.864   1.010 -0.0758  0.1685  0.8843
18494TIP3    H176897   5.431   2.895   0.989  0.4422 -1.9569 -0.4025
18494TIP3    H276898   5.356   2.775   1.042 -1.7837 -0.3716  0.2152
18495TIP3   OH276899   2.353   6.534  12.534 -0.4097 -0.7218 -0.8132
18495TIP3    H176900   2.399   6.578  12.463 -2.3169  1.2669 -0.9382
18495TIP3    H276901   2.310   6.460  12.492  0.3736 -0.9426 -1.2447
18496TIP3   OH276902   3.520   0.320   0.294  0.0289  0.8616 -0.2169
18496TIP3    H176903   3.584   0.385   0.325 -1.1209  1.9141  0.0157
18496TIP3    H276904   3.573   0.244   0.272  1.2482  1.2905  1.0722
18497TIP3   OH276905   3.478   1.296   5.450  0.1854  0.2864  0.3417
18497TIP3    H176906   3.419   1.371   5.461 -0.6701 -0.3731  0.3086
18497TIP3    H276907   3.450   1.234   5.517  1.6086  0.4255  1.1037
18498TIP3   OH276908   5.966   2.943  12.704  0.2020 -0.4912 -0.3099
18498TIP3    H176909   6.042   2.992  12.671  0.3188  2.0154  3.1831
18498TIP3    H276910   5.891   2.981  12.659  0.5423  1.1589  0.4596
18499TIP3   OH276911   0.156   1.205   0.546 -0.0594  0.1642 -0.6017
18499TIP3    H176912   0.087   1.240   0.602 -0.1215 -0.6214 -0.1722
18499TIP3    H276913   0.233   1.202   0.603  0.1670  0.4098 -0.8891
18500TIP3   OH276914   3.575   2.802   1.845 -0.3831  0.5667  0.0538
18500TIP3    H176915   3.502   2.745   1.822  0.7686 -0.6216 -0.7902
18500TIP3    H276916   3.592   2.784   1.937  0.7388 -1.4060 -0.4907
18501TIP3   OH276917   0.129   2.655  15.800 -0.5526 -0.3233 -0.0306
18501TIP3    H176918   0.126   2.745  15.768 -1.0128 -0.5060 -0.5173
18501TIP3    H276919   0.119   2.601  15.721 -2.2567 -0.7821  0.4555
18502TIP3   OH276920   5.749   6.048   1.619 -0.1289  0.0089  0.0750
18502TIP3    H176921   5.813   6.060   1.549 -0.4871  0.3149 -0.2040
18502TIP3    H276922   5.727   6.136   1.647 -0.4867 -0.0903  0.1109
18503TIP3   OH276923   2.714   6.330  11.249 -0.4622 -0.4340  0.0889
18503TIP3    H176924   2.769   6.407  11.238 -0.0183 -0.8495 -0.6664
18503TIP3    H276925   2.625   6.362  11.235 -0.1035 -0.5427 -3.1692
18504TIP3   OH276926   5.180   5.646   4.719 -0.4307  0.3191 -0.0063
18504TIP3    H176927   5.100   5.699   4.731  0.3253  1.7757 -1.0085
18504TIP3    H276928   5.152   5.556   4.736 -2.0385  0.9104  0.7134
18505TIP3   OH276929   6.539   2.454  13.881 -0.1068  0.0604  0.5689
18505TIP3    H176930   6.620   2.495  13.910  0.0680 -0.7212  1.1916
18505TIP3    H276931   6.470   2.499  13.931 -0.0983  0.9349 -0.1840
18506TIP3   OH276932   1.894   6.225  15.530  0.1357 -0.2380  0.1742
18506TIP3    H176933   1.909   6.312  15.567  0.3729  0.0273 -0.5237
18506TIP3    H276934   1.800   6.221  15.516  0.1130 -0.1290  0.2902
18507TIP3   OH276935   5.930   5.789   4.506  0.3140  0.1355  0.4242
18507TIP3    H176936   5.959   5.867   4.459 -1.9480 -0.2245 -1.8102
18507TIP3    H276937   5.855   5.819   4.558 -1.7423 -0.7357 -1.8404
18508TIP3   OH276938   0.323   0.349  17.089  0.1668 -0.3845  0.2624
18508TIP3    H176939   0.353   0.313  17.006  1.2145  0.2269  0.3544
18508TIP3    H276940   0.403   0.362  17.141 -0.1563  1.7008  0.3530
18509TIP3   OH276941   3.714   5.776  12.615  0.0144  0.1240 -0.3544
18509TIP3    H176942   3.662   5.837  12.669  2.3353 -0.1322  2.3845
18509TIP3    H276943   3.751   5.832  12.546 -1.4362  0.8691 -0.5835
18510TIP3   OH276944   4.196   2.857  15.562  0.0847 -0.1313  0.6075
18510TIP3    H176945   4.209   2.781  15.618  3.5242  0.1286  0.3836
18510TIP3    H276946   4.192   2.931  15.623 -0.3158 -0.2355  0.7049
18511TIP3   OH276947   4.119   0.183  13.424 -0.4886 -0.5965  0.6955
18511TIP3    H176948   4.135   0.193  13.330  0.0676  0.6525  0.8944
18511TIP3    H276949   4.025   0.166  13.431 -0.6651 -0.0145 -0.0534
18512TIP3   OH276950   6.524   4.639   1.461 -0.1623 -0.5487 -0.3048
18512TIP3    H176951   6.604   4.673   1.500  0.0767  0.0275 -1.2722
18512TIP3    H276952   6.499   4.565   1.517  0.5187 -0.1411  0.5424
18513TIP3   OH276953   3.666   1.538   5.147 -0.1242  0.2709 -0.6316
18513TIP3    H176954   3.645   1.556   5.056  2.1530 -0.1346 -1.3060
18513TIP3    H276955   3.585   1.505   5.185 -0.6670 -1.3763 -3.0179
18514TIP3   OH276956   5.250   1.824  17.013 -0.2376  0.1294  0.2223
18514TIP3    H176957   5.241   1.851  17.105  0.2502  2.0272 -0.2568
18514TIP3    H276958   5.332   1.775  17.010  0.9078  1.9407  0.4342
18515TIP3   OH276959   6.176   6.660   3.773  1.2315 -0.1413  0.2245
18515TIP3    H176960   6.130   6.697   3.848  2.6112 -1.7667  1.9566
18515TIP3    H276961   6.156   6.567   3.776  0.9172 -0.2002 -1.7832
18516TIP3   OH276962   1.288   5.551  11.496  0.0399 -0.1686  0.3821
18516TIP3    H176963   1.283   5.554  11.400  0.1677 -0.8283  0.3529
18516TIP3    H276964   1.213   5.602  11.525  0.3758  0.5976 -0.0681
18517TIP3   OH276965   0.672   5.470  13.542 -0.0104 -0.2293  0.2379
18517TIP3    H176966   0.760   5.500  13.560  0.8296 -2.0964 -0.4924
18517TIP3    H276967   0.636   5.445  13.627  0.8528 -1.1491  0.3529
18518TIP3   OH276968   5.829   3.185  13.206 -0.2718  0.3962  0.3894
18518TIP3    H176969   5.827   3.169  13.112  0.2940 -1.7504  0.6992
18518TIP3    H276970   5.771   3.260  13.218 -1.0901  0.1379 -1.5549
18519TIP3   OH276971   3.557   2.266   0.190  0.6205 -0.1981 -0.1772
18519TIP3    H176972   3.484   2.221   0.233 -0.0020  0.9780  0.0494
18519TIP3    H276973   3.633   2.244   0.243  0.1199 -0.0074  0.6423
18520TIP3   OH276974   0.585   3.284  11.877  0.3057 -0.3124  0.3737
18520TIP3    H176975   0.671   3.263  11.914  0.4507  0.5018  0.5208
18520TIP3    H276976   0.605   3.325  11.793  0.0756  0.0859  0.5107
18521TIP3   OH276977   4.401   4.512  13.390  0.2242  0.1671  0.2578
18521TIP3    H176978   4.393   4.607  13.398  1.2706  0.2442  0.4678
18521TIP3    H276979   4.398   4.479  13.479  1.4781  0.1515  0.3112
18522TIP3   OH276980   0.855   1.866  11.506  0.0267 -0.2362  0.2188
18522TIP3    H176981   0.827   1.786  11.552  0.4850 -0.3751  0.2553
18522TIP3    H276982   0.837   1.846  11.414  0.0135 -0.3292  0.2407
18523TIP3   OH276983   3.476   3.972  13.182 -0.2321 -0.3479 -0.4049
18523TIP3    H176984   3.387   3.938  13.175 -0.9980  1.5034 -0.3711
18523TIP3    H276985   3.530   3.896  13.202 -1.9009 -1.3986  0.2804
18524TIP3   OH276986   4.935   5.214  15.126  0.0194  0.7524 -0.3232
18524TIP3    H176987   4.848   5.194  15.094  0.5134 -0.9744 -0.6986
18524TIP3    H276988   4.985   5.240  15.048  0.2910  0.0078 -0.4050
18525TIP3   OH276989   3.966   2.834  12.349  0.0419 -0.0161 -0.3117
18525TIP3    H176990   3.999   2.921  12.370 -2.2011  1.2442 -1.6309
18525TIP3    H276991   4.017   2.775  12.404  0.7075  2.2435  1.6585
18526TIP3   OH276992   3.916   6.690   2.677 -0.1801  0.1664 -0.1692
18526TIP3    H176993   3.937   6.782   2.659 -0.8060  0.1555 -0.9960
18526TIP3    H276994   3.988   6.660   2.732 -0.1304  1.2402  0.3799
18527TIP3   OH276995   4.648   3.271   3.610 -0.3205 -0.1452  0.4217
18527TIP3    H176996   4.643   3.234   3.698 -1.0920 -1.7781 -0.2770
18527TIP3    H276997   4.738   3.254   3.582 -0.3762 -0.5827  0.4996
18528TIP3   OH276998   0.692   2.162  11.520 -0.1297  0.5080  0.0655
18528TIP3    H176999   0.622   2.145  11.458  1.2431  0.1585 -1.4496
18528TIP3    H277000   0.722   2.074  11.546  1.4044  0.5973 -1.2765
18529TIP3   OH277001   6.666   2.212   6.028 -0.0704 -0.3448  0.2150
18529TIP3    H177002   6.609   2.228   6.103 -1.2377  0.8800 -0.8803
18529TIP3    H277003   6.723   2.288   6.024  0.5630 -0.8034  0.3366
18530TIP3   OH277004   5.191   5.099  16.283  0.1574 -0.1379 -0.4240
18530TIP3    H177005   5.174   5.010  16.316  1.5848  0.2044  1.3994
18530TIP3    H277006   5.201   5.152  16.361 -0.6972  1.6893 -1.4925
18531TIP3   OH277007   3.161   6.691  11.972 -0.4101  0.1127 -0.0882
18531TIP3    H177008   3.248   6.731  11.977  1.4418 -3.5491  0.4883
18531TIP3    H277009   3.137   6.673  12.063 -1.3504  0.2084 -0.3055
18532TIP3   OH277010   3.963   3.291   4.064  0.1759 -0.6527  0.4232
18532TIP3    H177011   3.900   3.321   3.998  1.0831  1.2141  0.3424
18532TIP3    H277012   4.037   3.258   4.014 -0.0483 -1.3169  0.5211
18533TIP3   OH277013   5.335   2.154  15.162  0.4451 -0.0619 -0.2577
18533TIP3    H177014   5.423   2.136  15.128  0.4964  2.4745 -1.7282
18533TIP3    H277015   5.332   2.250  15.170 -1.4127 -0.2269  2.0250
18534TIP3   OH277016   4.675   1.049  12.039 -0.2342  0.9782  0.3177
18534TIP3    H177017   4.765   1.017  12.030 -0.5731 -0.0936  0.5963
18534TIP3    H277018   4.665   1.113  11.968  0.3119  0.0724 -0.6070
18535TIP3   OH277019   4.363   0.714   5.240  0.2093 -0.4555 -0.0509
18535TIP3    H177020   4.370   0.742   5.332 -0.4045 -1.6342  0.3701
18535TIP3    H277021   4.363   0.796   5.191  0.5175  0.2015  0.9993
18536TIP3   OH277022   2.722   0.323   3.328 -0.0891 -0.2874 -0.4419
18536TIP3    H177023   2.795   0.291   3.382 -0.6670  0.1544  0.6285
18536TIP3    H277024   2.765   0.368   3.255  0.8002  1.8248  1.2622
18537TIP3   OH277025   5.263   4.727  15.550 -0.0520 -0.2383  0.2967
18537TIP3    H177026   5.201   4.797  15.568  1.4171  1.4040 -0.7053
18537TIP3    H277027   5.303   4.706  15.635 -0.2964  0.3427  0.5531
18538TIP3   OH277028   5.510   1.516  15.914 -0.5983  0.5369  0.0867
18538TIP3    H177029   5.569   1.591  15.926 -1.1367  1.0304 -0.2563
18538TIP3    H277030   5.538   1.476  15.832 -0.2679  0.3171  0.3031
18539TIP3   OH277031   2.221   4.543   5.473  0.2507  0.4186 -0.3588
18539TIP3    H177032   2.240   4.527   5.566  0.1457  0.3724 -0.3459
18539TIP3    H277033   2.208   4.455   5.436 -1.4025  0.5216 -0.0675
18540TIP3   OH277034   1.944   6.502   1.897 -0.7339 -0.3031  0.7101
18540TIP3    H177035   1.866   6.557   1.894  1.3104  2.8064 -0.7959
18540TIP3    H277036   1.948   6.461   1.810 -0.3019  0.1793  0.4980
18541TIP3   OH277037   3.069   3.805  13.435  0.1381 -0.2204  0.5614
18541TIP3    H177038   3.026   3.720  13.431 -0.3066  0.0374 -3.1045
18541TIP3    H277039   2.997   3.868  13.436  0.4716  0.2077  2.8332
18542TIP3   OH277040   6.150   5.090   4.307  0.0702  0.6080  0.1146
18542TIP3    H177041   6.219   5.078   4.242  0.3189 -0.5872  0.5628
18542TIP3    H277042   6.159   5.180   4.337  0.1875  1.0567 -1.2309
18543TIP3   OH277043   4.794   5.108   5.747 -0.4476  1.1321 -0.4690
18543TIP3    H177044   4.796   5.156   5.664  1.1204  0.4517 -0.8476
18543TIP3    H277045   4.878   5.127   5.788 -1.9936  3.1851  2.0169
18544TIP3   OH277046   4.693   0.421  12.747  0.0426 -0.1609  0.0480
18544TIP3    H177047   4.612   0.435  12.797 -0.2002 -1.8085  0.1921
18544TIP3    H277048   4.665   0.422  12.655 -0.1239 -0.5256  0.0908
18545TIP3   OH277049   0.316   1.398  12.614 -0.1918  0.4013 -0.0613
18545TIP3    H177050   0.299   1.305  12.631  0.6556  0.1467 -0.5144
18545TIP3    H277051   0.331   1.436  12.700 -1.7357  0.3928  0.2453
18546TIP3   OH277052   5.051   4.272   3.404  0.2480  0.2611  0.2632
18546TIP3    H177053   4.990   4.205   3.375 -0.5667 -0.1456  2.7083
18546TIP3    H277054   5.028   4.349   3.352 -0.2413 -0.7434 -1.0542
18547TIP3   OH277055   1.097   3.409   4.141  0.4212  0.1131  0.4830
18547TIP3    H177056   1.052   3.469   4.082 -0.5209 -1.7940 -0.8708
18547TIP3    H277057   1.180   3.389   4.097  1.1554  1.0656  1.3736
18548TIP3   OH277058   4.549   2.739   4.805  0.2547 -0.0309  0.1073
18548TIP3    H177059   4.515   2.791   4.732  0.8964  0.5183  0.1990
18548TIP3    H277060   4.635   2.776   4.824 -0.3504  0.5680  1.8705
18549TIP3   OH277061   4.530   5.862   1.101  0.4709 -0.4984  0.1538
18549TIP3    H177062   4.544   5.956   1.088 -1.6567 -0.1884 -0.2117
18549TIP3    H277063   4.521   5.852   1.196  0.7551 -0.3464  0.1981
18550TIP3   OH277064   3.838   6.544  13.483  0.3993  0.6029  0.3239
18550TIP3    H177065   3.857   6.525  13.575  0.6016 -0.4262  0.0858
18550TIP3    H277066   3.881   6.474  13.435  1.0070  1.5908 -0.6197
18551TIP3   OH277067   2.795   3.401  15.433 -0.5086 -0.2097  0.3647
18551TIP3    H177068   2.788   3.309  15.407 -0.5334 -0.0597 -0.1626
18551TIP3    H277069   2.888   3.421  15.422 -0.4377 -0.2730  0.8311
18552TIP3   OH277070   5.827   5.385  14.167 -0.7074 -0.3843  0.3077
18552TIP3    H177071   5.753   5.346  14.212 -0.2752  1.2213  2.5653
18552TIP3    H277072   5.900   5.327  14.186  0.0515  1.5063  4.0978
18553TIP3   OH277073   4.148   3.699  15.368 -0.4672 -0.1491 -0.1182
18553TIP3    H177074   4.178   3.614  15.335 -1.6071 -0.4397 -0.4502
18553TIP3    H277075   4.133   3.752  15.290  0.3813  0.4156  0.0950
18554TIP3   OH277076   5.873   1.665   4.170  0.7400  0.1732  0.0018
18554TIP3    H177077   5.804   1.726   4.145 -0.0090 -0.5721  0.1942
18554TIP3    H277078   5.882   1.677   4.265 -1.5402 -2.0828  0.6013
18555TIP3   OH277079   6.612   2.312   5.566 -0.0937 -0.5524  0.1807
18555TIP3    H177080   6.621   2.369   5.490  1.8769  2.3845  2.3976
18555TIP3    H277081   6.697   2.268   5.573 -0.0818 -0.4218  0.9351
18556TIP3   OH277082   0.528   5.438  11.779  0.6025  0.1446  0.5617
18556TIP3    H177083   0.544   5.485  11.697 -0.0176  1.0376  0.9252
18556TIP3    H277084   0.435   5.455  11.798  1.1017  1.2982  2.2410
18557TIP3   OH277085   4.845   0.704   4.487  0.5389 -0.5927 -0.5530
18557TIP3    H177086   4.851   0.764   4.413  4.0784 -1.0469 -0.8188
18557TIP3    H277087   4.936   0.682   4.507 -0.2105 -0.6895  3.8026
18558TIP3   OH277088   0.373   4.432   0.240 -0.7688  0.2426  0.1204
18558TIP3    H177089   0.451   4.461   0.287 -0.3034  0.9976 -1.0660
18558TIP3    H277090   0.400   4.427   0.149 -1.6300 -1.2625 -0.0891
18559TIP3   OH277091   6.188   2.943   0.815 -0.1896 -0.2555  0.1547
18559TIP3    H177092   6.147   2.869   0.861 -0.4594  0.2900  0.8116
18559TIP3    H277093   6.225   2.904   0.736 -2.9162 -0.5723 -1.0439
18560TIP3   OH277094   4.537   6.171  16.687 -0.8522 -0.2619  0.6067
18560TIP3    H177095   4.603   6.193  16.621 -2.7117 -0.8533 -1.6073
18560TIP3    H277096   4.563   6.084  16.719 -1.3380 -1.2328 -1.4453
18561TIP3   OH277097   2.240   3.901   5.240 -0.2969 -0.3668 -0.4240
18561TIP3    H177098   2.250   3.858   5.155 -0.4000 -3.1748  0.8774
18561TIP3    H277099   2.146   3.921   5.247 -0.4473 -1.0310 -0.5599
18562TIP3   OH277100   1.068   1.171   3.618 -0.2209 -0.0462  0.0640
18562TIP3    H177101   1.126   1.174   3.694 -1.0307  0.2090  0.6907
18562TIP3    H277102   0.986   1.135   3.652 -0.1520 -1.2951 -1.0055
18563TIP3   OH277103   0.255   6.011  14.844  0.8794  0.1134 -0.7867
18563TIP3    H177104   0.336   6.060  14.833  0.7085  0.8446  0.8456
18563TIP3    H277105   0.186   6.078  14.849  0.2852 -0.4489 -1.2676
18564TIP3   OH277106   2.129   0.032   5.669 -0.3800  0.3047  0.3207
18564TIP3    H177107   2.215   0.033   5.628 -0.6473  2.6347 -0.2891
18564TIP3    H277108   2.120   0.118   5.710 -2.4263  0.1446  0.3461
18565TIP3   OH277109   4.144   1.439  13.714  0.3142  0.3528  0.4913
18565TIP3    H177110   4.148   1.526  13.676 -1.6971  0.4476  0.3936
18565TIP3    H277111   4.136   1.380  13.638 -0.4916  0.2842  0.6153
18566TIP3   OH277112   4.569   4.098  12.960 -0.8509  0.1188  0.2678
18566TIP3    H177113   4.600   4.186  12.935  0.2644 -0.4059 -0.2642
18566TIP3    H277114   4.600   4.041  12.890 -1.1144 -0.7877  0.8722
18567TIP3   OH277115   2.266   5.155   0.599  0.3162 -0.8451 -0.1051
18567TIP3    H177116   2.358   5.136   0.580 -0.0251 -0.2469 -2.6642
18567TIP3    H277117   2.223   5.070   0.602  0.5636 -1.0312 -1.3278
18568TIP3   OH277118   3.395   0.086  11.965 -0.8746 -0.1910 -0.5714
18568TIP3    H177119   3.348   0.169  11.955  0.6909  0.9014  0.5399
18568TIP3    H277120   3.374   0.057  12.053  0.4046  0.2841 -0.0791
18569TIP3   OH277121   6.570   0.555  12.712  0.2667 -0.4578  0.1804
18569TIP3    H177122   6.598   0.586  12.626 -0.0238  0.5846  0.4440
18569TIP3    H277123   6.542   0.465  12.698  0.0356 -0.2337 -0.8506
18570TIP3   OH277124   2.061   1.124   2.111  0.0238  0.0548  0.5872
18570TIP3    H177125   2.001   1.195   2.089  0.2471  0.4389  1.1958
18570TIP3    H277126   2.046   1.107   2.204  2.1875  1.4922  1.2771
18571TIP3   OH277127   5.452   5.503   2.394 -0.0162  0.0205  0.2275
18571TIP3    H177128   5.379   5.534   2.340  0.4282  0.5143 -0.1049
18571TIP3    H277129   5.513   5.464   2.332 -0.1162 -0.6349  0.5342
18572TIP3   OH277130   5.091   0.898   4.510 -0.4567  0.1106 -0.1701
18572TIP3    H177131   5.052   0.978   4.546 -0.0585  0.7865 -1.1776
18572TIP3    H277132   5.168   0.930   4.461  2.1983 -1.2404  2.7811
18573TIP3   OH277133   1.530   1.201  12.136  0.0616 -0.6099 -0.2079
18573TIP3    H177134   1.458   1.240  12.186  0.5486 -0.3547  0.2980
18573TIP3    H277135   1.591   1.272  12.121  0.0891 -0.7671 -0.8746
18574TIP3   OH277136   5.126   1.835   2.561  0.2726  0.0229  0.0242
18574TIP3    H177137   5.153   1.779   2.488  0.2759 -1.1567  0.9083
18574TIP3    H277138   5.032   1.843   2.551  0.2582 -0.2220 -0.0454
18575TIP3   OH277139   3.936   2.683  13.400 -0.0667  0.6493 -0.4852
18575TIP3    H177140   3.978   2.612  13.447  1.9725  1.7166 -0.5689
18575TIP3    H277141   3.863   2.709  13.456  0.1615 -0.4263  0.3415
18576TIP3   OH277142   3.703   0.327  11.710  0.7113 -0.1555  0.9980
18576TIP3    H177143   3.774   0.307  11.648 -0.5306  0.2482 -0.6262
18576TIP3    H277144   3.623   0.303  11.663 -0.2883  0.1382  2.4839
18577TIP3   OH277145   0.011   1.000  13.338 -0.0253  0.1533 -0.0858
18577TIP3    H177146  -0.005   0.986  13.245  0.5403 -0.9036 -0.0384
18577TIP3    H277147  -0.027   0.923  13.381 -0.7851  0.9009  0.6226
18578TIP3   OH277148   4.305   2.948  12.736  0.3439  0.2543  0.1731
18578TIP3    H177149   4.243   2.903  12.680 -0.2177  1.8030 -0.4948
18578TIP3    H277150   4.251   2.994  12.801  0.7557  1.4455 -0.2836
18579TIP3   OH277151   4.560   3.408  12.254  0.3965  0.1634  0.3534
18579TIP3    H177152   4.648   3.415  12.291  0.6082  0.1982 -0.1383
18579TIP3    H277153   4.523   3.496  12.262  0.5286  0.2267  0.2654
18580TIP3   OH277154   0.037   1.571   5.802  0.3357 -0.2660  0.2831
18580TIP3    H177155   0.065   1.480   5.797  1.1712 -0.0848  1.3270
18580TIP3    H277156   0.110   1.621   5.764  0.2802  0.0285  0.5591
18581TIP3   OH277157   3.073   3.486  17.246  0.0119  0.8131 -0.0350
18581TIP3    H177158   3.122   3.490  17.328  0.5127 -0.0002 -0.2831
18581TIP3    H277159   3.127   3.535  17.184  0.8769 -0.6220 -0.4696
18582TIP3   OH277160   5.552   4.649  10.879 -0.2734 -0.3466  0.5626
18582TIP3    H177161   5.618   4.706  10.917 -0.7673  0.3080  0.4643
18582TIP3    H277162   5.535   4.582  10.945 -1.8782  1.3527  1.9905
18583TIP3   OH277163   0.583   6.090  16.328  0.3631 -0.3042  0.4516
18583TIP3    H177164   0.490   6.093  16.306  0.0555 -0.9193  1.5626
18583TIP3    H277165   0.614   6.180  16.314 -0.7309  0.2496  1.3869
18584TIP3   OH277166   0.032   3.331  14.950  0.1697  0.5441 -0.0066
18584TIP3    H177167   0.099   3.332  15.018  0.0622 -0.2870  0.1204
18584TIP3    H277168   0.069   3.278  14.880 -0.7369 -0.7666  0.4772
18585TIP3   OH277169   1.389   2.684   5.162  0.2674 -0.0513 -0.3019
18585TIP3    H177170   1.471   2.732   5.168  0.1717  0.0902 -0.1267
18585TIP3    H277171   1.412   2.602   5.119  0.7766 -0.6542  1.0861
18586TIP3   OH277172   5.259   2.407   5.131  0.4447 -0.2172  0.5517
18586TIP3    H177173   5.317   2.457   5.073 -1.3403  1.1038 -0.1885
18586TIP3    H277174   5.316   2.342   5.171  2.4961  1.1808  0.0827
18587TIP3   OH277175   3.619   2.979  12.003 -0.2595 -0.1437  0.4798
18587TIP3    H177176   3.621   2.931  11.921  0.6958 -1.6379  1.3250
18587TIP3    H277177   3.537   3.029  12.001 -1.1914 -1.6589 -0.5381
18588TIP3   OH277178   0.057   6.061  13.370 -0.0814 -0.1361 -0.1074
18588TIP3    H177179   0.108   6.020  13.301 -0.6250 -0.3263 -0.4015
18588TIP3    H277180   0.062   6.155  13.351 -1.2513 -0.2576 -1.1479
18589TIP3   OH277181   0.662   4.626  12.275  0.1354 -0.7194  0.4365
18589TIP3    H177182   0.659   4.531  12.259  0.7434 -0.4460 -1.5483
18589TIP3    H277183   0.748   4.653  12.246 -0.5107  0.6502 -0.3075
18590TIP3   OH277184   5.241   3.891  13.097 -0.5556 -0.4788 -0.2773
18590TIP3    H177185   5.182   3.818  13.077  0.6649 -1.6462  0.2249
18590TIP3    H277186   5.328   3.859  13.071  0.5057 -0.4727  2.8133
18591TIP3   OH277187   5.091   6.513  14.919  0.3431  0.0624 -0.5210
18591TIP3    H177188   5.017   6.568  14.892  0.3232 -1.1959 -3.4763
18591TIP3    H277189   5.053   6.425  14.925  1.0177 -0.1581  1.0689
18592TIP3   OH277190   2.760   0.360  16.647  0.1677 -0.7448 -0.9602
18592TIP3    H177191   2.842   0.341  16.692  0.2367 -0.6738 -1.0560
18592TIP3    H277192   2.692   0.323  16.703 -0.0484  2.1947  0.9621
18593TIP3   OH277193   6.585   4.487   5.998  0.3618  0.1134 -0.4335
18593TIP3    H177194   6.644   4.450   5.933 -0.1402 -1.1356 -0.2083
18593TIP3    H277195   6.498   4.463   5.968  0.0373  0.7962 -0.0653
18594TIP3   OH277196   1.647   5.529   5.346  0.6558  0.4680 -0.1308
18594TIP3    H177197   1.564   5.563   5.311  1.3962  0.4274 -2.0524
18594TIP3    H277198   1.669   5.457   5.287  2.0416  0.4674  0.3676
18595TIP3   OH277199   0.044   4.999   1.520 -0.5419 -0.1767  0.3839
18595TIP3    H177200  -0.029   5.061   1.515  0.9532  1.5533 -2.5178
18595TIP3    H277201   0.006   4.921   1.561 -3.8346  0.8281 -0.4217
18596TIP3   OH277202   2.494   5.598  13.790 -0.0680  0.6317  0.4612
18596TIP3    H177203   2.562   5.618  13.725 -0.8459 -0.0560 -0.6129
18596TIP3    H277204   2.453   5.518  13.757 -1.2913  0.9441  1.1606
18597TIP3   OH277205   4.713   2.855   2.674  0.5255  0.5560  0.0043
18597TIP3    H177206   4.800   2.861   2.715  1.4223 -0.8604 -1.6164
18597TIP3    H277207   4.716   2.919   2.603  0.9355 -0.7517 -1.1964
18598TIP3   OH277208   5.018   0.176   2.140 -0.3634  0.5913 -0.8602
18598TIP3    H177209   4.982   0.119   2.208  0.7899  0.7783 -0.0523
18598TIP3    H277210   5.003   0.265   2.173  0.0440  0.6870 -0.9211
18599TIP3   OH277211   6.392   2.919  11.403 -0.1708  0.5242  1.2488
18599TIP3    H177212   6.345   2.978  11.462  1.7076  1.8832  1.4532
18599TIP3    H277213   6.433   2.977  11.338 -0.9877 -0.8258 -0.5632
18600TIP3   OH277214   6.016   2.260   0.279  0.1865  0.3036 -0.1878
18600TIP3    H177215   5.991   2.198   0.211  0.8223  0.6655 -0.7615
18600TIP3    H277216   6.021   2.207   0.359 -0.7425 -0.0870 -0.3759
18601TIP3   OH277217   0.691   4.235  10.391  0.1456 -0.0708 -0.3317
18601TIP3    H177218   0.737   4.192  10.319 -1.2789 -0.0340 -1.2982
18601TIP3    H277219   0.708   4.179  10.467  2.2931  0.2931 -0.4927
18602TIP3   OH277220   0.656   4.453  11.831  0.2736 -0.0771 -0.3354
18602TIP3    H177221   0.666   4.379  11.890 -0.0629  0.9966  1.1249
18602TIP3    H277222   0.573   4.437  11.786 -0.9564  0.4824  1.6272
18603TIP3   OH277223   0.336   0.796   1.164  0.2900 -0.1941 -0.0044
18603TIP3    H177224   0.428   0.813   1.146  0.0303  0.8032 -0.4585
18603TIP3    H277225   0.304   0.753   1.084  0.0405  0.7570 -0.4339
18604TIP3   OH277226   3.998   1.439   2.274 -0.2600 -0.3792  0.1331
18604TIP3    H177227   4.011   1.522   2.320  0.5515  0.1620 -0.9999
18604TIP3    H277228   4.057   1.377   2.318  1.8868  0.5725 -1.1979
18605TIP3   OH277229   6.565   5.291   5.993 -0.2387  0.1873 -0.0189
18605TIP3    H177230   6.477   5.328   6.000  0.0281  0.6280  1.5156
18605TIP3    H277231   6.608   5.344   5.926 -1.4830 -0.8133 -1.6729
18606TIP3   OH277232   1.539   3.756   4.809 -0.3938  0.3784 -0.0493
18606TIP3    H177233   1.634   3.752   4.819 -0.2012 -3.8206 -1.4584
18606TIP3    H277234   1.525   3.805   4.728  0.7302 -0.2567 -0.6474
18607TIP3   OH277235   1.808   2.200  16.452 -0.2659 -0.1397 -0.1326
18607TIP3    H177236   1.774   2.119  16.415 -0.9232 -0.3069  0.7789
18607TIP3    H277237   1.743   2.225  16.518 -0.3236  1.3913 -0.7272
18608TIP3   OH277238   1.748   0.124  16.680 -0.3574  0.4542  0.0166
18608TIP3    H177239   1.685   0.052  16.676 -1.6202  1.5307 -0.2371
18608TIP3    H277240   1.833   0.081  16.688 -1.1839 -1.0532  1.6232
18609TIP3   OH277241   1.740   5.010   3.907  0.8287  0.2202  0.1295
18609TIP3    H177242   1.778   4.922   3.907  0.7543  0.1762 -0.7583
18609TIP3    H277243   1.683   5.011   3.829  0.5687  0.9401  0.3251
18610TIP3   OH277244   2.999   2.586   0.152  0.4477  0.2033  0.1216
18610TIP3    H177245   3.062   2.625   0.091  0.4452 -0.6230 -0.4260
18610TIP3    H277246   2.951   2.661   0.188  0.9586  0.7565 -0.3262
18611TIP3   OH277247   3.331   0.798  12.400 -0.3421  0.3231  0.2385
18611TIP3    H177248   3.247   0.828  12.435 -0.8340 -1.3023  0.5316
18611TIP3    H277249   3.328   0.823  12.307 -1.8517 -1.0869 -0.1379
18612TIP3   OH277250   3.405   5.698   3.947  0.3639  0.3936 -0.2385
18612TIP3    H177251   3.407   5.613   3.991 -0.2251  1.0957  1.2045
18612TIP3    H277252   3.493   5.708   3.911  0.9294 -0.1577  0.9287
18613TIP3   OH277253   2.517   5.854   5.402  0.7643 -0.0631 -0.3951
18613TIP3    H177254   2.442   5.878   5.458 -0.6323 -1.8770 -1.4037
18613TIP3    H277255   2.509   5.912   5.326  0.5107 -0.1299 -0.4185
18614TIP3   OH277256   0.408   5.991   2.901 -0.8634 -0.0929  0.7132
18614TIP3    H177257   0.331   5.993   2.845  0.3082  2.0142 -0.9448
18614TIP3    H277258   0.396   5.913   2.956 -2.8668 -1.2928 -1.2900
18615TIP3   OH277259   1.946   2.613   4.490  0.4180  0.4183 -0.1931
18615TIP3    H177260   2.031   2.651   4.513  0.0141 -0.4578  3.3802
18615TIP3    H277261   1.968   2.532   4.443  1.4598  1.0424 -0.8252
18616TIP3   OH277262   0.163   5.791   4.494 -0.3148 -0.1157 -0.0511
18616TIP3    H177263   0.147   5.746   4.411  1.3193  0.4013 -0.6698
18616TIP3    H277264   0.077   5.826   4.519 -0.4240  1.9686 -2.8506
18617TIP3   OH277265   3.943   6.027  14.139  0.2269  0.4404  0.1960
18617TIP3    H177266   3.896   6.082  14.077  0.0221  0.1560  0.1021
18617TIP3    H277267   3.939   5.939  14.103  0.2867  0.3077  0.5035
18618TIP3   OH277268   6.252   2.899   2.768  0.3043 -0.1001 -0.1818
18618TIP3    H177269   6.163   2.932   2.773  0.4016  0.0979  0.2842
18618TIP3    H277270   6.270   2.892   2.674 -0.7366 -1.5963 -0.3111
18619TIP3   OH277271   5.479   1.835  14.371 -0.1796 -0.1482  0.5713
18619TIP3    H177272   5.477   1.850  14.277  1.6252 -1.1361  0.3209
18619TIP3    H277273   5.448   1.745  14.381 -2.1872  0.5627  1.1441
18620TIP3   OH277274   5.228   4.640   1.478 -0.2111  0.3614  0.3044
18620TIP3    H177275   5.195   4.599   1.397 -0.5272  0.2301  0.4979
18620TIP3    H277276   5.307   4.687   1.450  0.5267 -0.9110  0.2086
18621TIP3   OH277277   5.754   2.304  14.497  0.1900 -0.7339  0.9797
18621TIP3    H177278   5.755   2.348  14.582 -0.5115  1.5225 -0.0813
18621TIP3    H277279   5.842   2.270  14.486  1.0045  1.0532  1.6120
18622TIP3   OH277280   6.483   0.989  12.451  0.2811  0.4293  0.1806
18622TIP3    H177281   6.495   0.928  12.524 -0.5376 -0.1137 -0.1259
18622TIP3    H277282   6.556   1.051  12.459 -0.5784  1.2581  2.2870
18623TIP3   OH277283   1.411   1.120  16.169  0.6291 -0.6938 -0.2476
18623TIP3    H177284   1.372   1.186  16.112 -0.9097 -2.2546 -1.0924
18623TIP3    H277285   1.392   1.036  16.126  2.3096 -1.7320  0.8964
18624TIP3   OH277286   4.199   1.557  15.175  0.0950  0.2268  0.1354
18624TIP3    H177287   4.190   1.622  15.245 -1.4166 -0.0525  0.2162
18624TIP3    H277288   4.112   1.548  15.138  0.7498 -0.0688 -1.4214
18625TIP3   OH277289   3.560   5.556  12.962 -0.3519  0.5741  0.2998
18625TIP3    H177290   3.546   5.465  12.988 -1.0277  0.7225  0.4520
18625TIP3    H277291   3.485   5.577  12.907  0.0130  0.9171 -0.0749
18626TIP3   OH277292   3.165   2.807  15.943 -0.1154  0.7965  0.4372
18626TIP3    H177293   3.210   2.870  15.999 -0.3667  0.4165  1.0792
18626TIP3    H277294   3.080   2.792  15.986  0.7470 -1.5766  1.5180
18627TIP3   OH277295   0.898   2.287   0.812  0.5562  0.4156  0.8045
18627TIP3    H177296   0.826   2.303   0.751  0.2410 -1.1276  0.7337
18627TIP3    H277297   0.944   2.371   0.818 -0.9036  1.2690  0.4059
18628TIP3   OH277298   0.317   4.923  12.103  0.0544 -0.0054  0.0584
18628TIP3    H177299   0.287   4.861  12.169  0.8643  1.1791  1.5921
18628TIP3    H277300   0.350   4.868  12.032 -0.8717 -1.3092  0.5987
18629TIP3   OH277301   2.937   5.638  17.033 -0.5766  0.3959 -0.3916
18629TIP3    H177302   3.020   5.617  17.075 -1.4449  0.4866  1.4440
18629TIP3    H277303   2.941   5.592  16.949  1.4837  0.7534 -0.5468
18630TIP3   OH277304   4.354   1.644   5.647 -0.3706  0.0120  0.1091
18630TIP3    H177305   4.355   1.733   5.611  0.1552 -0.1889 -0.3960
18630TIP3    H277306   4.440   1.608   5.623 -0.8322 -0.8563 -0.2850
18631TIP3   OH277307   3.214   4.628  12.163 -0.4766 -0.2442  0.4435
18631TIP3    H177308   3.263   4.553  12.197 -0.1168  0.0717  0.6293
18631TIP3    H277309   3.175   4.596  12.082 -0.1922 -0.5874  0.4375
18632TIP3   OH277310   3.452   2.615   3.463 -0.5620 -0.2083  0.1563
18632TIP3    H177311   3.373   2.659   3.432 -0.9933 -0.7801  0.4337
18632TIP3    H277312   3.524   2.660   3.418 -1.0722  0.0342 -0.4198
18633TIP3   OH277313   1.857   6.441   2.480 -0.4763  0.4730 -0.0237
18633TIP3    H177314   1.778   6.491   2.498 -0.7092  0.0569  0.1081
18633TIP3    H277315   1.922   6.477   2.541 -0.3131  1.4053 -0.7232
18634TIP3   OH277316   1.156   2.324   4.109 -0.2698 -0.0178 -0.4082
18634TIP3    H177317   1.100   2.289   4.039  0.8222  0.0812 -1.3636
18634TIP3    H277318   1.099   2.384   4.157 -1.4057 -1.0286 -0.4232
18635TIP3   OH277319   1.749   2.188   2.595 -0.1259 -0.0636  0.1090
18635TIP3    H177320   1.706   2.270   2.618  0.4455  0.2183  0.1841
18635TIP3    H277321   1.842   2.204   2.610 -0.0091 -0.7327  0.1555
18636TIP3   OH277322   2.107   2.887   2.929 -0.3896  0.1052 -0.2287
18636TIP3    H177323   2.116   2.804   2.976 -0.6214 -0.7473 -1.6344
18636TIP3    H277324   2.063   2.945   2.991 -0.3985 -0.8746  0.7106
18637TIP3   OH277325   5.388   3.688   3.155  0.4085  0.5068  0.5609
18637TIP3    H177326   5.310   3.711   3.105  1.1634  2.0527 -0.0122
18637TIP3    H277327   5.438   3.630   3.097  0.0137  0.1055  0.6282
18638TIP3   OH277328   3.677   6.079   0.828  0.0913  0.7895  0.0524
18638TIP3    H177329   3.656   5.995   0.785  1.8558  0.3697 -0.0573
18638TIP3    H277330   3.620   6.142   0.784 -1.3805 -0.3489  0.2185
18639TIP3   OH277331   5.541   1.442   1.483 -0.4830 -0.4931 -0.1317
18639TIP3    H177332   5.548   1.395   1.399  1.1336  1.6376 -1.3030
18639TIP3    H277333   5.526   1.533   1.457  2.1985  0.5875  1.7899
18640TIP3   OH277334   2.508   5.321  16.571  0.1853  0.2747  0.3991
18640TIP3    H177335   2.559   5.245  16.597  0.1814  0.1710  0.1091
18640TIP3    H277336   2.424   5.286  16.544  0.7117  0.2016 -1.2478
18641TIP3   OH277337   4.405   6.043   0.594 -0.7160 -0.0027  0.5265
18641TIP3    H177338   4.376   6.129   0.564  0.1312  0.1144 -0.0043
18641TIP3    H277339   4.339   6.016   0.657 -2.6522 -0.2942 -1.4793
18642TIP3   OH277340   2.298   1.871   6.139 -0.0293 -0.6659 -0.3494
18642TIP3    H177341   2.391   1.852   6.153  0.4570  0.0919 -2.2646
18642TIP3    H277342   2.254   1.829   6.213  1.9563  0.4128  1.5802
18643TIP3   OH277343   0.377   3.155   1.340 -0.7142 -0.8443  0.2914
18643TIP3    H177344   0.368   3.086   1.406 -0.2450  1.2742  2.7531
18643TIP3    H277345   0.309   3.219   1.364 -0.0173  0.3476 -0.8034
18644TIP3   OH277346   2.017   2.858   5.180 -0.2754  0.0483 -0.1814
18644TIP3    H177347   2.106   2.869   5.148 -0.2317 -2.4322 -1.1962
18644TIP3    H277348   1.962   2.885   5.106 -0.4078  1.7767  0.5172
18645TIP3   OH277349   1.709   5.905  11.921 -0.6634 -0.1104  0.0727
18645TIP3    H177350   1.661   5.833  11.962 -1.5371  1.1366  1.3229
18645TIP3    H277351   1.771   5.934  11.989  0.6420 -0.5290 -0.8929
18646TIP3   OH277352   0.130   6.052  11.979 -0.0626  0.5253  0.3273
18646TIP3    H177353   0.148   6.137  11.938  1.9923  0.3629  0.8206
18646TIP3    H277354   0.101   6.074  12.068 -2.1227  0.7734 -0.3591
18647TIP3   OH277355   4.201   5.854   1.923  0.1095  0.3650 -0.4907
18647TIP3    H177356   4.193   5.904   1.842 -0.6272  1.5128  0.2654
18647TIP3    H277357   4.241   5.772   1.896  1.1101  1.2473 -1.8121
18648TIP3   OH277358   4.624   4.032   0.020  0.8281 -0.0098  0.1742
18648TIP3    H177359   4.537   4.000   0.042  0.7203  0.9222  1.2265
18648TIP3    H277360   4.614   4.127   0.014  1.6131  0.0411 -0.4758
18649TIP3   OH277361   2.901   5.873   3.260 -0.1773 -0.0842  0.2817
18649TIP3    H177362   2.988   5.885   3.298  0.1768  0.4013 -0.6386
18649TIP3    H277363   2.898   5.780   3.235 -0.1011 -0.2072  0.7240
18650TIP3   OH277364   0.249   3.607  16.098 -0.3457 -0.4253 -0.1599
18650TIP3    H177365   0.171   3.659  16.118  0.2915  0.4743  0.0348
18650TIP3    H277366   0.269   3.561  16.179  1.7761  2.6143  1.2061
18651TIP3   OH277367   0.849   6.075   2.150  0.2551  0.5018  0.4080
18651TIP3    H177368   0.806   6.034   2.226  1.8022 -0.7005  0.6788
18651TIP3    H277369   0.928   6.115   2.186  0.6569  0.5213 -0.4770
18652TIP3   OH277370   1.955   5.928   5.401  0.1577  0.4134 -0.7761
18652TIP3    H177371   1.862   5.912   5.414  0.4154 -0.2311  0.4250
18652TIP3    H277372   1.962   5.963   5.312 -1.1248 -0.3480 -1.1923
18653TIP3   OH277373   3.549   6.222   3.801  0.7278 -0.0974  0.5487
18653TIP3    H177374   3.503   6.240   3.882  2.0785 -0.9258  1.5460
18653TIP3    H277375   3.530   6.130   3.782 -1.3179  0.6136 -1.2880
18654TIP3   OH277376   5.418   4.218   6.489  0.2611 -0.0906 -0.2437
18654TIP3    H177377   5.333   4.209   6.445 -0.8990 -2.2429  2.1624
18654TIP3    H277378   5.461   4.134   6.474  1.6970  0.7176 -0.7995
18655TIP3   OH277379   1.253   0.527   2.747 -0.5343 -0.1172  0.3961
18655TIP3    H177380   1.285   0.610   2.783  0.9233 -1.0074  1.2508
18655TIP3    H277381   1.294   0.460   2.801  0.3514 -1.4925 -1.8353
18656TIP3   OH277382   5.869   3.916   4.279  0.0589  0.7802  0.5032
18656TIP3    H177383   5.890   3.864   4.357 -0.4131 -0.8942 -0.4357
18656TIP3    H277384   5.953   3.931   4.236  0.0550 -0.4816  0.0308
18657TIP3   OH277385   3.064   2.944   3.945 -0.5321 -0.7838 -0.5832
18657TIP3    H177386   3.057   2.923   4.039  1.6011  1.5647  0.2336
18657TIP3    H277387   3.117   2.873   3.909 -0.2099 -1.0247  0.3248
18658TIP3   OH277388   5.105   3.540  14.647  0.4970  0.0475  0.1356
18658TIP3    H177389   5.140   3.629  14.644  0.4165  0.1224  1.1334
18658TIP3    H277390   5.015   3.548  14.615  0.9142  0.0848 -1.0833
18659TIP3   OH277391   0.380   5.940  13.518 -0.1470  0.2759 -0.5467
18659TIP3    H177392   0.363   5.856  13.475  1.3834 -0.0208 -0.6328
18659TIP3    H277393   0.304   5.954  13.574 -0.7446 -0.8346 -1.0468
18660TIP3   OH277394   1.488   6.537   4.156 -0.5353  0.1320  1.0093
18660TIP3    H177395   1.570   6.577   4.186  0.4249 -1.9437  1.3420
18660TIP3    H277396   1.509   6.502   4.069 -0.9345 -0.7726  1.2662
18661TIP3   OH277397   1.732   5.694   4.168 -0.3529  0.5610  0.5146
18661TIP3    H177398   1.716   5.685   4.262 -1.5280  0.7874  0.3450
18661TIP3    H277399   1.646   5.706   4.130  0.0715  0.0458 -0.6528
18662TIP3   OH277400   5.926   6.656  15.764  0.1496  0.5816 -0.2991
18662TIP3    H177401   5.847   6.689  15.807  0.9318  0.4143  1.3109
18662TIP3    H277402   5.925   6.562  15.781 -0.7478  0.0682 -2.7180
18663TIP3   OH277403   2.557   5.756   4.752  0.1787 -0.8088 -0.1170
18663TIP3    H177404   2.541   5.807   4.831 -1.8296 -1.6655  0.0910
18663TIP3    H277405   2.609   5.681   4.783  1.4601  0.0666 -0.0791
18664TIP3   OH277406   2.660   2.790  10.711 -0.0507  0.5157 -0.3278
18664TIP3    H177407   2.580   2.842  10.723 -0.3906 -0.2244  0.7907
18664TIP3    H277408   2.639   2.728  10.642 -0.1725  0.8543 -0.5926
18665TIP3   OH277409   5.838   5.582   2.081 -0.2109 -0.1800  0.3420
18665TIP3    H177410   5.763   5.641   2.093 -0.0176 -0.1002  1.2249
18665TIP3    H277411   5.800   5.495   2.084 -0.2018 -0.1619  1.4555
18666TIP3   OH277412   2.025   5.302   1.524 -0.0437  0.0339 -0.3026
18666TIP3    H177413   2.068   5.247   1.589  1.2780  1.1809 -0.1542
18666TIP3    H277414   2.094   5.325   1.462 -0.8526  0.5034 -1.0567
18667TIP3   OH277415   0.617   0.220  16.160  0.1339 -0.1282 -0.1472
18667TIP3    H177416   0.555   0.147  16.172 -1.4392  1.0934 -0.6097
18667TIP3    H277417   0.668   0.195  16.083  2.8620 -2.8730  2.2251
18668TIP3   OH277418   3.906   4.247  12.058  0.6943 -0.4687  0.5686
18668TIP3    H177419   3.933   4.156  12.048 -0.2997 -0.7090 -0.0152
18668TIP3    H277420   3.944   4.293  11.983 -1.7476 -1.1169 -1.1848
18669TIP3   OH277421   3.007   3.718  14.419  0.1290  0.1628 -0.3038
18669TIP3    H177422   3.031   3.811  14.416  0.5708  0.0429 -0.4806
18669TIP3    H277423   3.069   3.675  14.360 -0.7951 -0.0910 -1.1363
18670TIP3   OH277424   6.234   2.043   0.987 -0.1580  0.3261 -0.2949
18670TIP3    H177425   6.143   2.016   1.003  0.0815  0.0980  0.8084
18670TIP3    H277426   6.284   1.999   1.056  0.9063 -0.1679 -1.3349
18671TIP3   OH277427   2.516   3.583  12.172  0.2986 -0.6753  0.3809
18671TIP3    H177428   2.446   3.646  12.155 -0.7495 -1.8551  0.2619
18671TIP3    H277429   2.487   3.502  12.131  1.8197 -1.1540  0.1658
18672TIP3   OH277430   2.218   0.091  15.353 -0.1964  0.1677  0.4135
18672TIP3    H177431   2.236   0.162  15.291  0.9776 -0.3454  0.1409
18672TIP3    H277432   2.123   0.088  15.358 -0.2862  1.1921 -0.2300
18673TIP3   OH277433   2.964   3.374   0.568  0.3362  0.1953  0.3190
18673TIP3    H177434   2.890   3.333   0.613  0.2348  0.8519  0.7638
18673TIP3    H277435   2.935   3.464   0.551  1.5173  0.8887  1.7371
18674TIP3   OH277436   1.051   1.339  16.389 -0.0188  0.1417 -0.3046
18674TIP3    H177437   1.069   1.248  16.364 -1.1701 -0.6399  1.4781
18674TIP3    H277438   1.127   1.366  16.439 -0.8841 -0.9317  1.7143
18675TIP3   OH277439   5.669   6.493  14.063  0.2919 -0.1646  0.0716
18675TIP3    H177440   5.753   6.491  14.018  0.6965 -1.2880  0.8498
18675TIP3    H277441   5.637   6.403  14.059 -1.1808  0.3570 -0.7518
18676TIP3   OH277442   1.164   1.029  13.160 -0.5684  0.7664 -0.2221
18676TIP3    H177443   1.209   0.992  13.084  2.1820 -1.8408  2.4137
18676TIP3    H277444   1.212   1.110  13.178  0.5585  0.0319  0.2209
18677TIP3   OH277445   3.772   3.009   3.755 -0.0671  0.5186 -0.4814
18677TIP3    H177446   3.836   2.960   3.806 -0.6871 -1.7564 -1.7187
18677TIP3    H277447   3.820   3.037   3.677 -0.7203 -2.2248 -1.9933
18678TIP3   OH277448   2.367   5.134  12.778  0.3619 -0.1106 -0.0730
18678TIP3    H177449   2.299   5.131  12.710  1.7833  0.5237 -1.6113
18678TIP3    H277450   2.393   5.226  12.781 -0.2678  0.0412  2.0105
18679TIP3   OH277451   6.241   6.203   0.903 -0.2927 -0.3482  0.3026
18679TIP3    H177452   6.333   6.229   0.897 -0.7207  0.9396 -1.4370
18679TIP3    H277453   6.196   6.281   0.935 -1.0146 -0.3452 -0.6758
18680TIP3   OH277454   2.917   1.274  13.544 -0.0526  0.4169 -0.0022
18680TIP3    H177455   2.861   1.340  13.503  0.5667  1.3319  0.5737
18680TIP3    H277456   2.918   1.298  13.637  0.7772  0.0485  0.0966
18681TIP3   OH277457   1.446   6.444  16.953 -0.1433 -0.6681 -0.4026
18681TIP3    H177458   1.539   6.435  16.977  0.3081  3.2931  0.0611
18681TIP3    H277459   1.442   6.418  16.861  1.6438 -0.0262 -0.6978
18682TIP3   OH277460   0.033   5.689   2.067 -0.5057 -0.4875 -0.0410
18682TIP3    H177461  -0.054   5.684   2.105 -0.6690 -2.4448 -0.5356
18682TIP3    H277462   0.018   5.712   1.975 -0.4848 -0.5218 -0.0532
18683TIP3   OH277463   4.975   5.580  17.191 -0.0785 -0.6062 -0.2703
18683TIP3    H177464   5.065   5.549  17.194 -0.1637 -0.8934 -0.6856
18683TIP3    H277465   4.981   5.670  17.158  0.0860 -0.4860  0.0801
18684TIP3   OH277466   2.358   5.463   5.335  0.0117  0.3106 -0.1938
18684TIP3    H177467   2.437   5.494   5.380  1.7179 -1.2879 -1.8922
18684TIP3    H277468   2.351   5.518   5.257  0.3795 -0.5460 -0.8444
18685TIP3   OH277469   5.853   1.876  11.247 -0.4801  0.2969 -0.1545
18685TIP3    H177470   5.938   1.885  11.290 -0.3584  0.1325 -0.3628
18685TIP3    H277471   5.871   1.826  11.167 -1.1302 -1.8938  0.9712
18686TIP3   OH277472   1.824   4.387   6.179  0.4377  0.3314 -0.1159
18686TIP3    H177473   1.806   4.430   6.262 -0.1829  1.8972 -1.0227
18686TIP3    H277474   1.812   4.293   6.198  0.4855  0.6309  1.5732
18687TIP3   OH277475   3.730   1.183   5.525  0.6413 -0.5024 -0.1065
18687TIP3    H177476   3.682   1.259   5.559 -1.1729 -0.9596 -1.4863
18687TIP3    H277477   3.815   1.187   5.569 -0.0775  1.2511  1.2667
18688TIP3   OH277478   5.498   5.063   0.906 -0.6239  0.3925  0.4829
18688TIP3    H177479   5.491   4.975   0.868  0.7099  1.4495 -2.5678
18688TIP3    H277480   5.416   5.106   0.881  0.4913  1.2715 -1.9772
18689TIP3   OH277481   1.043   0.520  11.950 -0.6329 -0.0092  0.6087
18689TIP3    H177482   1.106   0.502  12.019  0.4722  0.2614 -0.2924
18689TIP3    H277483   1.059   0.452  11.884 -1.4285 -0.0651  0.4593
18690TIP3   OH277484   4.164   1.065   3.156  0.4161 -0.2501 -0.4118
18690TIP3    H177485   4.089   1.119   3.183 -0.4518 -0.0231 -2.9955
18690TIP3    H277486   4.153   0.984   3.205 -1.4495 -0.1471 -0.5846
18691TIP3   OH277487   2.839   4.934   2.111  0.0413  0.4139 -0.7527
18691TIP3    H177488   2.756   4.947   2.066 -1.3593 -0.9577  1.2625
18691TIP3    H277489   2.815   4.920   2.202  2.5286  0.1788 -0.0534
18692TIP3   OH277490   2.134   3.712  17.220  0.2279  0.6340 -0.2442
18692TIP3    H177491   2.135   3.779  17.289  0.4512  0.2064  0.1745
18692TIP3    H277492   2.226   3.695  17.201  0.1761  0.3385 -0.2418
18693TIP3   OH277493   4.482   1.269   0.427 -0.2201 -0.7235 -0.0005
18693TIP3    H177494   4.438   1.354   0.423  0.8110 -0.1001  1.2377
18693TIP3    H277495   4.430   1.219   0.490  1.3341  0.3780  2.2801
18694TIP3   OH277496   1.803   1.721  17.356 -0.3583 -0.4615  0.5016
18694TIP3    H177497   1.883   1.692  17.399  1.4041  0.7142 -1.7211
18694TIP3    H277498   1.787   1.656  17.287 -2.1355 -1.4004  1.7390
18695TIP3   OH277499   3.393   0.403  15.945 -0.9666 -0.2444 -0.3715
18695TIP3    H177500   3.420   0.483  15.990 -1.4976 -0.7057  0.8049
18695TIP3    H277501   3.299   0.397  15.961 -0.8804 -1.2536 -0.1918
18696TIP3   OH277502   0.751   0.339   5.790  0.3208  0.0722  0.0743
18696TIP3    H177503   0.767   0.423   5.833  1.2118 -0.1894  0.2780
18696TIP3    H277504   0.836   0.294   5.792 -0.1064 -0.7731 -0.1649
18697TIP3   OH277505   4.367   0.553   4.820  0.0066 -0.1125  0.3054
18697TIP3    H177506   4.396   0.493   4.752 -1.6101  0.3206 -0.8054
18697TIP3    H277507   4.440   0.614   4.831  0.1836 -0.0225 -1.2400
18698TIP3   OH277508   4.421   6.746   3.781 -0.0102  0.0832  0.1414
18698TIP3    H177509   4.484   6.756   3.709 -0.9415 -0.1642 -0.7236
18698TIP3    H277510   4.343   6.793   3.752 -0.5921 -0.4938  0.7490
18699TIP3   OH277511   2.628   5.460   5.494  0.1743  0.5024  0.4330
18699TIP3    H177512   2.646   5.554   5.486 -0.4063  0.6200  0.4204
18699TIP3    H277513   2.712   5.421   5.516  0.0547  1.2685  2.4256
18700TIP3   OH277514   3.741   4.684  16.215 -0.4037  0.1796 -0.3251
18700TIP3    H177515   3.721   4.592  16.199  0.2968  0.0326 -0.3847
18700TIP3    H277516   3.819   4.683  16.271 -0.3014  0.7334 -0.4466
18701TIP3   OH277517   1.988   4.172  17.079  0.1424  0.4507 -0.1484
18701TIP3    H177518   1.996   4.117  17.001 -0.0611 -0.2139  0.2935
18701TIP3    H277519   2.067   4.153  17.130 -0.5440 -0.4042  0.6136
18702TIP3   OH277520   2.131   1.896   0.002 -0.4532 -0.2552 -0.7625
18702TIP3    H177521   2.167   1.936   0.081 -1.2926  0.0489 -0.5278
18702TIP3    H277522   2.110   1.806   0.027  0.9257 -0.7100 -1.1407
18703TIP3   OH277523   4.514   0.858   1.515  0.0906  0.4032 -0.5230
18703TIP3    H177524   4.594   0.806   1.529  0.3597  1.3431  2.0144
18703TIP3    H277525   4.453   0.798   1.473  1.0218 -1.4149  0.5934
18704TIP3   OH277526   1.408   3.987   3.808  0.2430 -0.8219  0.3959
18704TIP3    H177527   1.495   4.014   3.838 -0.0130 -1.4205  1.7987
18704TIP3    H277528   1.420   3.963   3.716  1.5940 -1.0080  0.5981
18705TIP3   OH277529   4.676   0.327   6.408 -0.4347 -0.0097 -0.2292
18705TIP3    H177530   4.630   0.337   6.491  0.9758 -0.4430  0.6390
18705TIP3    H277531   4.710   0.238   6.410  1.8044  0.7835 -0.0752
18706TIP3   OH277532   5.539   4.287  17.336  0.1247 -0.0507  0.3361
18706TIP3    H177533   5.596   4.267  17.262  3.0832 -0.7942  2.6370
18706TIP3    H277534   5.500   4.203  17.360 -1.1747  0.2634 -0.5410
18707TIP3   OH277535   2.076   2.757  16.043 -0.8429 -0.7223 -0.1295
18707TIP3    H177536   2.121   2.756  16.127  0.6326  0.3589 -0.8467
18707TIP3    H277537   2.042   2.668  16.032  1.0378 -1.5740  0.5439
18708TIP3   OH277538   3.348   4.148  17.218  0.1766 -0.3725 -0.3229
18708TIP3    H177539   3.321   4.167  17.308 -0.1245  0.0919 -0.5113
18708TIP3    H277540   3.287   4.197  17.163  1.6419  1.0540 -0.7554
18709TIP3   OH277541   5.986   6.236   4.814 -0.2146 -0.1514  0.3089
18709TIP3    H177542   6.069   6.280   4.794 -1.1900  1.7661  0.2543
18709TIP3    H277543   5.940   6.232   4.730 -0.1616 -1.2758  0.3260
18710TIP3   OH277544   1.346   6.505  12.000  0.0413  0.6543 -0.5045
18710TIP3    H177545   1.343   6.445  11.926 -0.1791  1.0912 -0.8477
18710TIP3    H277546   1.267   6.486  12.050  1.4734 -1.5738  1.1552
18711TIP3   OH277547   6.696   4.022   0.022 -0.0422  0.2184  0.2393
18711TIP3    H177548   6.669   3.930   0.022 -0.3632  0.3094  0.5100
18711TIP3    H277549   6.640   4.063  -0.045  1.4833 -0.1643 -1.3385
18712TIP3   OH277550   1.055   6.119   4.137 -0.3682 -0.3931 -0.4579
18712TIP3    H177551   0.972   6.115   4.185 -0.3765  0.0800 -0.4329
18712TIP3    H277552   1.033   6.090   4.049 -0.2520 -1.8021 -0.0525
18713TIP3   OH277553   3.198   1.724   3.339 -0.3901 -0.3498  0.0330
18713TIP3    H177554   3.238   1.685   3.262 -1.9820 -1.7638 -0.1440
18713TIP3    H277555   3.220   1.664   3.410 -0.0203  0.2570  0.4377
18714TIP3   OH277556   5.046   1.868  15.718 -0.3081  0.5494 -0.3061
18714TIP3    H177557   5.006   1.794  15.764 -0.6858 -0.0470 -1.5471
18714TIP3    H277558   5.120   1.830  15.670  1.0003  1.4226  0.9498
18715TIP3   OH277559   0.346   1.332  14.778  0.1986  0.5711  0.5132
18715TIP3    H177560   0.298   1.280  14.843 -2.1619  1.5626 -0.3068
18715TIP3    H277561   0.417   1.275  14.750 -0.9942 -1.3791  1.2338
18716TIP3   OH277562   0.817   4.930   4.006 -0.7124  0.1819 -0.3638
18716TIP3    H177563   0.829   4.851   4.058 -0.5013  0.7141  0.4048
18716TIP3    H277564   0.723   4.945   4.007 -0.5819  1.1644  1.3692
18717TIP3   OH277565   2.181   4.927  14.552  0.0053 -0.2830 -0.1522
18717TIP3    H177566   2.211   4.909  14.463 -0.7171 -0.5493 -0.3580
18717TIP3    H277567   2.190   5.021  14.563  1.0207 -0.3790 -0.1535
18718TIP3   OH277568   4.206   3.088   0.489  0.2636  0.2474 -0.3394
18718TIP3    H177569   4.244   3.132   0.565 -1.8402  0.3326  0.7017
18718TIP3    H277570   4.158   3.014   0.524  1.2295 -1.1621 -1.8351
18719TIP3   OH277571   5.789   1.906   2.992  0.0027 -0.1519  0.0071
18719TIP3    H177572   5.823   1.991   3.022 -1.0559 -0.0063  0.8242
18719TIP3    H277573   5.763   1.861   3.072  0.3541 -1.1747 -0.4398
18720TIP3   OH277574   3.623   0.045   4.421  0.0550 -0.3560  0.0552
18720TIP3    H177575   3.542   0.030   4.470  0.4594  0.0340  0.8668
18720TIP3    H277576   3.639  -0.037   4.374  0.0227 -0.9836  1.1235
18721TIP3   OH277577   5.626   1.184   3.670  0.2519 -0.0287  0.9076
18721TIP3    H177578   5.707   1.182   3.721 -0.2375  1.4864  1.7887
18721TIP3    H277579   5.560   1.216   3.730 -1.2395 -2.0591  0.4520
18722TIP3   OH277580   1.117   5.240   0.156  0.6823 -0.5101  0.1342
18722TIP3    H177581   1.170   5.166   0.186  3.7739  2.3895  2.6502
18722TIP3    H277582   1.174   5.286   0.094 -1.3070 -0.2852 -1.6603
18723TIP3   OH277583   2.716   3.711  11.526  0.0195 -0.2062  0.5149
18723TIP3    H177584   2.809   3.727  11.544  0.5685 -0.6732 -1.5750
18723TIP3    H277585   2.700   3.756  11.443 -1.3804 -0.9296  0.3659
18724TIP3   OH277586   2.169   5.561  15.168  0.4192  0.2589 -0.2813
18724TIP3    H177587   2.188   5.570  15.075 -1.3528 -1.5577 -0.8906
18724TIP3    H277588   2.077   5.586  15.176  0.1165 -1.0912  0.7049
18725TIP3   OH277589   5.340   2.330   4.609 -0.3584  1.2413 -0.5415
18725TIP3    H177590   5.317   2.335   4.516  1.6531 -0.1768 -1.2092
18725TIP3    H277591   5.413   2.391   4.619  2.0077 -1.3221 -0.9127
18726TIP3   OH277592   1.819   1.668  10.912 -0.5757  0.2956  0.1018
18726TIP3    H177593   1.749   1.603  10.906 -0.1254 -0.4856  2.4314
18726TIP3    H277594   1.877   1.648  10.838 -2.2454  0.3517 -1.2928
18727TIP3   OH277595   5.706   2.010  14.314 -0.6601 -0.2493  0.2077
18727TIP3    H177596   5.737   2.053  14.394 -1.7028  0.4736  0.2480
18727TIP3    H277597   5.628   1.961  14.341 -0.2762 -1.0643 -0.1189
18728TIP3   OH277598   0.862   3.220   6.671  0.2746 -0.4847 -0.3970
18728TIP3    H177599   0.947   3.190   6.704  0.5683  1.7824  1.1062
18728TIP3    H277600   0.883   3.297   6.618 -0.7627 -0.6871 -1.1303
18729TIP3   OH277601   3.619   3.648   1.877 -0.4715  0.3638 -0.0638
18729TIP3    H177602   3.585   3.700   1.804 -0.9446  0.1056 -0.0309
18729TIP3    H277603   3.588   3.694   1.955 -1.0708 -0.0713 -0.0348
18730TIP3   OH277604   3.506   3.184  11.315 -0.2250  0.4695 -0.4764
18730TIP3    H177605   3.418   3.208  11.341  0.7853  2.7129  1.2211
18730TIP3    H277606   3.510   3.202  11.221 -2.0041 -1.2988 -0.9491
18731TIP3   OH277607   2.113   4.884  11.958 -0.7844 -0.0565  0.0524
18731TIP3    H177608   2.185   4.942  11.933 -0.2275 -0.6001  0.3873
18731TIP3    H277609   2.064   4.871  11.877  0.0620 -0.4829 -0.3978
18732TIP3   OH277610   6.051   6.334   3.600 -0.2875 -0.5920  0.6795
18732TIP3    H177611   6.021   6.245   3.613  0.2932 -0.7989  0.6238
18732TIP3    H277612   6.067   6.368   3.688 -0.4114 -0.5742  0.6954
18733TIP3   OH277613   1.353   3.943   4.988 -0.4453 -0.3201  0.3250
18733TIP3    H177614   1.282   3.937   5.051 -0.8226  1.1167  0.0705
18733TIP3    H277615   1.310   3.963   4.905  0.2264  0.3299  0.1236
18734TIP3   OH277616   3.023   2.513  12.648 -0.4287 -0.2116  0.7138
18734TIP3    H177617   2.960   2.584  12.635  1.9313  1.6641 -1.7737
18734TIP3    H277618   3.024   2.466  12.565  0.2964 -1.2007  1.2561
18735TIP3   OH277619   3.133   0.688   2.119  0.0400 -0.2973  0.3163
18735TIP3    H177620   3.050   0.722   2.084 -0.2207 -1.0176  0.2094
18735TIP3    H277621   3.176   0.765   2.156 -0.1873  0.2840 -0.5780
18736TIP3   OH277622   5.130   3.490   6.063 -0.7206 -0.1757 -0.6900
18736TIP3    H177623   5.143   3.472   6.156 -0.4563  0.2771 -0.6376
18736TIP3    H277624   5.052   3.440   6.040  1.9236 -4.4728 -1.4480
18737TIP3   OH277625   1.925   0.809  15.980 -0.1070  0.3429 -0.0740
18737TIP3    H177626   1.978   0.846  15.909 -2.7508  0.2656 -2.2347
18737TIP3    H277627   1.914   0.717  15.956  0.5275 -0.1701  1.4990
18738TIP3   OH277628   0.868   0.750  15.666 -0.2937 -0.0026  0.7894
18738TIP3    H177629   0.876   0.713  15.754 -2.3746 -3.5553 -0.2934
18738TIP3    H277630   0.956   0.779  15.644  0.5887 -0.3875  3.4689
18739TIP3   OH277631   3.660   2.418   6.063  0.3631  0.6747  0.0901
18739TIP3    H177632   3.579   2.391   6.107  1.0417  0.4912  1.2758
18739TIP3    H277633   3.715   2.339   6.065  0.2832  0.5410 -1.4701
18740TIP3   OH277634   2.526   5.883   4.518 -0.3990 -0.4793 -0.3460
18740TIP3    H177635   2.529   5.830   4.599 -1.0253 -1.4270 -0.9230
18740TIP3    H277636   2.456   5.844   4.467 -1.0879  1.1320 -0.6775
18741TIP3   OH277637   0.711   4.941  13.665 -0.5524 -0.0823  0.0047
18741TIP3    H177638   0.700   4.875  13.597 -0.4047 -0.5762  0.4490
18741TIP3    H277639   0.674   4.901  13.743 -0.3441  0.3117  0.3107
18742TIP3   OH277640   0.776   1.525  16.208  0.1550  0.2849  0.0089
18742TIP3    H177641   0.685   1.517  16.183  0.6308  0.7913 -2.0791
18742TIP3    H277642   0.778   1.505  16.302 -1.9489 -0.5275 -0.0878
18743TIP3   OH277643   6.098   1.851  16.893 -0.0366 -0.3562  0.6552
18743TIP3    H177644   6.167   1.801  16.848 -0.0865  0.5194 -0.4380
18743TIP3    H277645   6.023   1.791  16.895  0.0046 -0.4520 -0.3405
18744TIP3   OH277646   1.194   1.790   0.039 -0.0855  0.6203  0.4425
18744TIP3    H177647   1.130   1.839  -0.012  0.9670  0.4294 -1.1484
18744TIP3    H277648   1.214   1.845   0.114  0.0230  1.9926 -0.5677
18745TIP3   OH277649   4.635   3.650  12.328 -0.1587  0.9197 -0.3379
18745TIP3    H177650   4.705   3.611  12.382  0.8758  1.4702 -1.2436
18745TIP3    H277651   4.664   3.740  12.313 -0.1324  0.6384 -2.2449
18746TIP3   OH277652   1.781   3.450   3.706  0.3333 -0.0417 -0.0811
18746TIP3    H177653   1.700   3.501   3.706 -0.5598 -1.4251 -0.3188
18746TIP3    H277654   1.836   3.493   3.772 -0.2285  1.4366 -0.5320
18747TIP3   OH277655   4.802   3.695  16.589 -0.5863  0.4567 -0.8086
18747TIP3    H177656   4.766   3.775  16.627 -0.8459  0.4488 -1.0353
18747TIP3    H277657   4.861   3.726  16.520 -0.2385  0.4676 -0.5062
18748TIP3   OH277658   1.876   2.919   1.593  0.3937  0.2486  0.4015
18748TIP3    H177659   1.808   2.852   1.588  0.3458  0.3772 -1.0797
18748TIP3    H277660   1.958   2.872   1.576  0.6030  0.2107  1.4907
18749TIP3   OH277661   2.908   3.795  13.130 -0.5061 -0.5088 -0.3745
18749TIP3    H177662   2.899   3.890  13.122 -3.0395 -0.5306  1.0618
18749TIP3    H277663   2.911   3.763  13.040  0.6691  0.9148 -0.8849
18750TIP3   OH277664   3.826   3.431  12.217 -0.5324 -0.1802 -0.5923
18750TIP3    H177665   3.859   3.452  12.130  0.9189  1.3896  0.2806
18750TIP3    H277666   3.750   3.375  12.201 -0.5531  0.4072 -2.8692
18751TIP3   OH277667   0.146   1.309   5.883 -0.2966  0.2209  0.0132
18751TIP3    H177668   0.070   1.280   5.935  0.3934  0.7781  1.3776
18751TIP3    H277669   0.211   1.335   5.948  1.4150 -1.0465 -1.1042
18752TIP3   OH277670   1.293   5.182   2.067  0.2577  0.1084 -0.0808
18752TIP3    H177671   1.260   5.200   2.155  1.4097 -0.1633  0.4140
18752TIP3    H277672   1.388   5.192   2.074  0.3353  0.4715 -1.3861
18753TIP3   OH277673   5.771   2.140   1.192  0.3343  0.2219 -0.4154
18753TIP3    H177674   5.683   2.103   1.183 -0.7840  2.7683 -1.0609
18753TIP3    H277675   5.776   2.167   1.284  0.7166 -0.5415 -0.2108
18754TIP3   OH277676   1.030   5.473  14.301 -0.1351 -0.1076 -0.0823
18754TIP3    H177677   1.025   5.407  14.370  2.4883  0.5002  0.8034
18754TIP3    H277678   0.972   5.543  14.331 -1.1931 -1.0230  0.0758
18755TIP3   OH277679   2.273   1.631   5.733 -0.1704 -0.2562 -0.0854
18755TIP3    H177680   2.318   1.705   5.692 -1.6428 -0.1824 -1.6857
18755TIP3    H277681   2.263   1.566   5.663 -1.5892 -0.6974  0.4718
18756TIP3   OH277682   5.186   3.747  13.827 -0.3274 -0.3213  0.3822
18756TIP3    H177683   5.108   3.786  13.787 -0.0011 -0.4375 -0.3940
18756TIP3    H277684   5.167   3.654  13.830 -0.3485 -0.3132  0.4888
18757TIP3   OH277685   1.443   2.254   6.295 -0.2680 -0.3355 -0.2715
18757TIP3    H177686   1.521   2.214   6.257 -0.0042  0.4008 -0.5235
18757TIP3    H277687   1.419   2.196   6.367 -0.8499 -1.8356 -1.6029
18758TIP3   OH277688   1.634   0.670   5.768 -0.1053  0.6194  0.1634
18758TIP3    H177689   1.645   0.578   5.793  0.7650  0.1922 -1.6405
18758TIP3    H277690   1.607   0.714   5.849  0.4175 -1.0385  1.2868
18759TIP3   OH277691   1.509   2.355   6.648  0.3693  0.7676 -0.1019
18759TIP3    H177692   1.475   2.376   6.561 -0.3048  2.0402  0.4494
18759TIP3    H277693   1.600   2.386   6.646  1.1206 -1.3033 -1.0835
18760TIP3   OH277694   5.933   4.366  15.533 -0.0716 -0.4167 -0.3627
18760TIP3    H177695   5.967   4.442  15.581 -0.7077 -0.0803 -0.4353
18760TIP3    H277696   5.889   4.404  15.457  0.7292 -0.9334 -1.0985
18761TIP3   OH277697   6.649   5.122  14.371 -0.3466  0.0168 -0.7359
18761TIP3    H177698   6.562   5.161  14.363  0.0501  1.2082  0.4376
18761TIP3    H277699   6.701   5.165  14.303 -0.5318 -0.3154 -1.0925
18762TIP3   OH277700   2.735   2.609  12.294  0.6016  0.0814 -0.0334
18762TIP3    H177701   2.803   2.546  12.317  1.7337  0.9292 -0.9230
18762TIP3    H277702   2.777   2.668  12.231 -0.8132  0.9310 -0.2311
18763TIP3   OH277703   4.688   2.185  15.587  0.7750  0.5226  0.6692
18763TIP3    H177704   4.740   2.264  15.602  1.8812 -0.5012  2.4824
18763TIP3    H277705   4.741   2.132  15.527 -0.0511  1.1845 -0.6975
18764TIP3   OH277706   1.201   5.298   1.458  0.2874  0.3086 -0.3893
18764TIP3    H177707   1.168   5.256   1.379 -1.2062  0.1641  0.2927
18764TIP3    H277708   1.265   5.235   1.493 -1.1531 -0.9531  0.0570
18765TIP3   OH277709   3.548   2.610  16.784 -0.6572  0.4721 -0.0719
18765TIP3    H177710   3.549   2.663  16.704 -0.3012  0.7181  0.0993
18765TIP3    H277711   3.537   2.520  16.752  0.9671  0.3915 -0.5106
18766TIP3   OH277712   1.201   4.576  13.263 -0.2964 -0.0836 -0.0792
18766TIP3    H177713   1.241   4.513  13.322  0.7980  1.0593  0.4405
18766TIP3    H277714   1.110   4.546  13.254 -0.2073 -0.8779  1.3360
18767TIP3   OH277715   1.060   5.450   2.909 -0.1378 -0.6341 -0.3175
18767TIP3    H177716   0.983   5.393   2.918 -2.4437  2.3751  0.3772
18767TIP3    H277717   1.130   5.402   2.954 -2.0278 -2.7235  0.5934
18768TIP3   OH277718   3.676   2.474   0.437  0.1970  0.1398  0.0932
18768TIP3    H177719   3.714   2.386   0.426  0.8504  0.5970 -1.8278
18768TIP3    H277720   3.583   2.458   0.452  0.3206 -0.8899 -0.1485
18769TIP3   OH277721   0.772   1.205  16.244 -0.2371  0.5894 -0.4462
18769TIP3    H177722   0.757   1.118  16.280 -2.0780  1.7966  2.0453
18769TIP3    H277723   0.702   1.217  16.180 -0.8875  0.7481  0.2814
18770TIP3   OH277724   5.135   1.830  13.027 -0.2104 -0.2179  0.6871
18770TIP3    H177725   5.071   1.769  13.065 -1.9540  1.3033  0.3212
18770TIP3    H277726   5.187   1.776  12.967 -2.0769 -1.2481 -0.0711
18771TIP3   OH277727   3.894   4.531   3.495  0.4502  0.1948 -0.4201
18771TIP3    H177728   3.851   4.485   3.567  0.3730 -0.2026 -0.7170
18771TIP3    H277729   3.894   4.623   3.522  0.5555  0.0303  0.1503
18772TIP3   OH277730   0.557   2.601   4.819  0.4271  0.0836  0.1830
18772TIP3    H177731   0.485   2.596   4.882  0.4414 -1.9561  0.0844
18772TIP3    H277732   0.636   2.602   4.873  0.4157 -0.9143  0.2248
18773TIP3   OH277733   4.142   2.222  12.746 -0.0391  0.1064  0.3298
18773TIP3    H177734   4.213   2.269  12.703  0.0822 -0.2912  0.0904
18773TIP3    H277735   4.181   2.137  12.770 -0.5021 -0.2055 -0.0204
18774TIP3   OH277736   1.156   1.633   4.348  1.0245 -0.3133 -0.6039
18774TIP3    H177737   1.172   1.556   4.294  0.6829 -0.7229 -0.1304
18774TIP3    H277738   1.088   1.606   4.409  1.4312  0.1242  0.0597
18775TIP3   OH277739   2.065   2.242   5.277 -0.1740 -0.1032  0.1747
18775TIP3    H177740   2.082   2.209   5.188  1.1499 -1.9524  1.0542
18775TIP3    H277741   2.152   2.260   5.312 -0.5349 -1.1858  1.7187
18776TIP3   OH277742   4.135   4.780  17.162 -0.1223  0.0414  0.5866
18776TIP3    H177743   4.192   4.817  17.230  0.0435  0.5904  0.1608
18776TIP3    H277744   4.139   4.844  17.090 -0.0844 -0.6506 -0.0454
18777TIP3   OH277745   0.260   2.586  16.409 -0.6427  0.1703 -0.4551
18777TIP3    H177746   0.238   2.578  16.501  0.6701  0.1273 -0.1178
18777TIP3    H277747   0.283   2.679  16.398  0.5727 -0.1127 -0.3979
18778TIP3   OH277748   2.856   3.945  14.237  0.6578  0.5764 -0.4205
18778TIP3    H177749   2.803   3.945  14.317  1.1415 -0.1827 -0.0919
18778TIP3    H277750   2.794   3.967  14.168 -0.1494 -0.4652 -0.0619
18779TIP3   OH277751   6.657   4.692  16.970 -0.0060  0.0761  0.7681
18779TIP3    H177752   6.585   4.753  16.954 -0.6413 -0.8533 -0.0530
18779TIP3    H277753   6.650   4.669  17.062 -2.0719 -1.5672  0.2702
18780TIP3   OH277754   6.698   5.449   6.842  0.0177 -0.5120 -0.9211
18780TIP3    H177755   6.636   5.408   6.902  1.8452 -1.5229  0.3764
18780TIP3    H277756   6.688   5.543   6.858  0.2065 -0.7388  0.7711
18781TIP3   OH277757   5.607   3.253  15.622  0.1313  0.0530 -0.2327
18781TIP3    H177758   5.701   3.267  15.613 -0.2015  1.7694 -1.6173
18781TIP3    H277759   5.571   3.278  15.537 -1.5911 -0.3757  0.3363
18782TIP3   OH277760   0.372   4.957   5.370 -0.3836  0.0413  0.3668
18782TIP3    H177761   0.447   4.901   5.388 -1.8950 -1.8355  1.0574
18782TIP3    H277762   0.373   4.969   5.275  1.2201  0.7576  0.4322
18783TIP3   OH277763   4.733   6.761  16.891 -0.4486 -0.6472 -0.0792
18783TIP3    H177764   4.663   6.732  16.949 -0.4786 -0.5977 -0.0904
18783TIP3    H277765   4.705   6.733  16.804 -0.5236 -0.4986 -0.1021
18784TIP3   OH277766   3.782   0.254  15.914  0.1389 -0.1466  0.1791
18784TIP3    H177767   3.745   0.342  15.918  2.1084  0.8259 -1.1416
18784TIP3    H277768   3.764   0.224  15.825 -1.1385 -1.4175  0.8311
18785TIP3   OH277769   3.797   1.121   5.261  0.2725 -0.2252 -0.6798
18785TIP3    H177770   3.731   1.159   5.202 -1.3740 -0.3722  0.9446
18785TIP3    H277771   3.782   1.166   5.345  4.5735  2.2722 -0.9739
18786TIP3   OH277772   6.160   4.171   4.085  0.2143 -0.4481 -0.3515
18786TIP3    H177773   6.069   4.150   4.107  0.1585 -0.5767 -0.6953
18786TIP3    H277774   6.170   4.262   4.112 -0.3182 -0.1172 -1.2083
18787TIP3   OH277775   0.116   2.589  10.676  0.5715 -0.0836 -0.6480
18787TIP3    H177776   0.196   2.621  10.719 -0.3002  1.3495 -0.0118
18787TIP3    H277777   0.142   2.507  10.635  1.8359 -0.8194  1.4378
18788TIP3   OH277778   4.745   0.266  12.975 -0.2809  0.7876  0.3789
18788TIP3    H177779   4.703   0.214  12.906 -0.8690 -0.0510  1.3326
18788TIP3    H277780   4.726   0.357  12.952 -2.2792  0.4544  0.5131
18789TIP3   OH277781   6.273   3.137  14.379 -0.2492 -0.7955  0.3151
18789TIP3    H177782   6.187   3.157  14.341 -0.5102  1.3749  1.8623
18789TIP3    H277783   6.254   3.098  14.464  0.1670  1.4978  1.5592
18790TIP3   OH277784   6.169   1.545  14.466  0.5515 -0.4533 -0.9121
18790TIP3    H177785   6.083   1.579  14.490  0.0667 -1.1890 -1.5933
18790TIP3    H277786   6.218   1.622  14.437 -0.9589 -0.4523 -3.7230
18791TIP3   OH277787   4.499   6.159   1.093  0.1004  0.0740  0.1015
18791TIP3    H177788   4.475   6.220   1.163  1.4414  1.1092 -0.3056
18791TIP3    H277789   4.437   6.177   1.023 -0.6106 -0.2732  0.6197
18792TIP3   OH277790   3.693   6.621  13.121 -0.6754  0.2745 -0.0447
18792TIP3    H177791   3.681   6.677  13.044 -0.8403 -1.0427 -1.0234
18792TIP3    H277792   3.608   6.579  13.134 -0.2789 -0.5388  0.0089
18793TIP3   OH277793   5.649   1.828   1.691 -0.0472 -0.4569  0.0587
18793TIP3    H177794   5.691   1.914   1.681  2.1325 -1.4318  0.3064
18793TIP3    H277795   5.703   1.770   1.637 -0.9231 -1.8503  0.6595
18794TIP3   OH277796   4.548   3.502  17.194  0.6086 -0.0609 -0.2978
18794TIP3    H177797   4.629   3.550  17.209  0.8623 -0.1049 -1.4357
18794TIP3    H277798   4.479   3.560  17.225  1.1152 -0.5340  1.8751
18795TIP3   OH277799   6.436   6.674  13.188  0.1603  0.3454  0.3840
18795TIP3    H177800   6.344   6.677  13.162 -0.0931  0.9349  1.2978
18795TIP3    H277801   6.470   6.762  13.167  0.2844  0.4114  0.8630
18796TIP3   OH277802   6.181   0.207   4.998  0.1575 -0.5377  0.1548
18796TIP3    H177803   6.247   0.138   5.000  0.3334 -0.3695  0.1814
18796TIP3    H277804   6.100   0.163   4.971  0.6576 -0.4484 -1.6018
18797TIP3   OH277805   2.664   5.141  15.718 -0.1111 -0.1917  0.4954
18797TIP3    H177806   2.675   5.217  15.660 -0.3191 -0.7889 -0.3551
18797TIP3    H277807   2.751   5.128  15.756 -0.1587  0.6822  0.9303
18798TIP3   OH277808   0.033   1.995   2.697 -0.0978  0.2046  0.2219
18798TIP3    H177809  -0.055   1.958   2.685  0.7802 -1.8291 -0.3460
18798TIP3    H277810   0.091   1.920   2.693  1.6481  1.4282  1.2688
18799TIP3   OH277811   4.556   3.559  16.687  0.3471  0.0597 -0.1799
18799TIP3    H177812   4.507   3.636  16.716 -0.9288 -1.3771  1.7251
18799TIP3    H277813   4.591   3.522  16.768  1.4151 -1.0897 -1.1240
18800TIP3   OH277814   3.395   3.651  16.692 -0.0635  0.0693 -1.0371
18800TIP3    H177815   3.375   3.582  16.628 -1.5005 -1.9118  1.3582
18800TIP3    H277816   3.461   3.612  16.749 -0.1779  1.0629 -0.2033
18801TIP3   OH277817   3.157   5.288  16.060  0.4690 -0.5035  0.0864
18801TIP3    H177818   3.211   5.211  16.041  2.0241 -0.0112  2.1181
18801TIP3    H277819   3.096   5.258  16.127  1.1572  0.0171  0.9705
18802TIP3   OH277820   4.662   6.737  11.516  0.3509 -0.1608 -0.0602
18802TIP3    H177821   4.569   6.719  11.499  0.1802  0.2726  0.3817
18802TIP3    H277822   4.709   6.679  11.457 -0.2043  0.4675 -1.1545
18803TIP3   OH277823   3.223   1.385   1.837  0.4593  0.0042 -0.1552
18803TIP3    H177824   3.204   1.362   1.746  1.8077 -1.6130 -0.0687
18803TIP3    H277825   3.226   1.301   1.882  4.5311  0.2832  0.4199
18804TIP3   OH277826   3.003   0.561   3.322  0.0567  0.3999 -0.3422
18804TIP3    H177827   2.956   0.527   3.246  0.7763  0.8542 -0.9992
18804TIP3    H277828   2.936   0.568   3.390 -0.4941 -0.4912 -0.7746
18805TIP3   OH277829   6.093   1.864   5.319 -0.2985  0.5700 -0.1093
18805TIP3    H177830   6.110   1.807   5.394 -0.6264 -0.1923 -0.5967
18805TIP3    H277831   6.093   1.952   5.355  2.0265  0.4402  0.3835
18806TIP3   OH277832   2.107   2.523  16.334  0.2352  0.0674  0.0112
18806TIP3    H177833   2.109   2.450  16.396 -0.3604 -1.6836 -1.9289
18806TIP3    H277834   2.042   2.498  16.269 -0.6583  2.7819 -0.2610
18807TIP3   OH277835   4.761   4.448   3.599 -0.3428  0.1658 -0.1037
18807TIP3    H177836   4.679   4.407   3.572 -0.1635 -0.9710  1.0079
18807TIP3    H277837   4.766   4.433   3.693  1.2247  0.0441 -0.1812
18808TIP3   OH277838   0.969   3.143  10.957  0.4824  0.2489  0.3192
18808TIP3    H177839   1.040   3.152  10.893  0.3886 -0.2134  0.1492
18808TIP3    H277840   0.992   3.065  11.008  0.4986  0.5469  0.7821
18809TIP3   OH277841   0.513   3.497  10.877 -0.2434  0.1675 -0.5140
18809TIP3    H177842   0.473   3.429  10.824  1.8306 -0.2881 -1.5936
18809TIP3    H277843   0.582   3.534  10.822  0.6817  1.0530  1.1365
18810TIP3   OH277844   6.399   5.868  13.056  0.0756 -0.4018  0.3122
18810TIP3    H177845   6.441   5.849  13.140  0.0072 -2.1392 -0.0268
18810TIP3    H277846   6.316   5.822  13.059 -0.1747 -0.0136 -0.4916
18811TIP3   OH277847   2.009   6.304  14.067  0.1459  0.6771 -0.0787
18811TIP3    H177848   2.000   6.208  14.073 -0.1366  0.6333 -1.0997
18811TIP3    H277849   1.976   6.336  14.151  3.0523 -0.2661  1.5746
18812TIP3   OH277850   4.821   5.579  14.586 -0.1041 -0.3931 -0.1956
18812TIP3    H177851   4.896   5.558  14.640 -0.8959 -1.0910  0.6619
18812TIP3    H277852   4.795   5.668  14.613  0.7723  0.1095 -0.9456
18813TIP3   OH277853   5.909   6.109   3.587  0.4626 -0.2980 -0.3480
18813TIP3    H177854   5.920   6.033   3.643 -0.4147 -1.9641 -2.3008
18813TIP3    H277855   5.829   6.092   3.538  0.6643  1.5188 -1.4059
18814TIP3   OH277856   4.908   3.534   5.812 -0.6955 -0.7443 -0.0374
18814TIP3    H177857   4.905   3.621   5.852 -1.0077  0.0172 -1.6316
18814TIP3    H277858   4.828   3.528   5.761 -0.8573 -2.1387  0.3483
18815TIP3   OH277859   6.249   0.723  16.063 -0.4454  0.0152 -0.1893
18815TIP3    H177860   6.270   0.655  16.000  1.2097  0.3233 -0.0146
18815TIP3    H277861   6.310   0.708  16.136 -0.6375  1.1444  0.2266
18816TIP3   OH277862   2.064   4.426  12.230 -0.2379  0.4147 -0.3818
18816TIP3    H177863   2.109   4.399  12.310  1.0806  0.6016 -1.0448
18816TIP3    H277864   2.030   4.345  12.193 -1.9243  0.4434  0.9521
18817TIP3   OH277865   0.288   1.912  13.372 -0.5700  0.0183 -0.2538
18817TIP3    H177866   0.323   1.872  13.292 -1.5746  1.0544 -1.2295
18817TIP3    H277867   0.309   1.848  13.441  0.7364 -0.6712 -1.2455
18818TIP3   OH277868   5.618   6.259  13.652 -0.3326  0.2324  0.4037
18818TIP3    H177869   5.669   6.339  13.668  0.8927 -0.4588  0.0721
18818TIP3    H277870   5.527   6.290  13.645  0.0315  1.5015  0.9696
18819TIP3   OH277871   6.361   5.462   3.987  0.2642 -0.4281  0.0918
18819TIP3    H177872   6.279   5.509   3.972  1.1820  0.5966 -2.1218
18819TIP3    H277873   6.353   5.382   3.935  0.5196 -0.5507  0.2370
18820TIP3   OH277874   0.437   5.480  14.563 -0.3295  0.0315 -0.1566
18820TIP3    H177875   0.343   5.463  14.554 -0.3425  0.3021 -0.5286
18820TIP3    H277876   0.445   5.575  14.556 -0.4169  0.4190  3.3399
18821TIP3   OH277877   2.422   6.034   4.251  0.0703  0.4392 -0.1746
18821TIP3    H177878   2.335   6.059   4.282  0.0827 -0.5085  0.6621
18821TIP3    H277879   2.482   6.087   4.302  0.1310 -1.6946  2.1231
18822TIP3   OH277880   3.319   2.777  12.618  0.4927  0.2554  0.6252
18822TIP3    H177881   3.288   2.726  12.693  0.3511 -0.0213  0.3834
18822TIP3    H277882   3.241   2.786  12.562  0.2245  1.7412  1.2156
18823TIP3   OH277883   3.900   3.791  13.374 -0.0741 -0.0863 -0.1717
18823TIP3    H177884   3.809   3.804  13.404 -0.0488  0.6150 -0.3859
18823TIP3    H277885   3.912   3.857  13.306  0.0181 -1.3572 -1.4434
18824TIP3   OH277886   4.768   5.458  17.350 -0.4080  0.3635 -0.1451
18824TIP3    H177887   4.835   5.489  17.290  0.9789 -1.0369  0.6002
18824TIP3    H277888   4.713   5.400  17.297  0.5654 -0.5448 -0.1919
18825TIP3   OH277889   5.901   4.175   2.453 -0.0315 -0.1634 -0.0633
18825TIP3    H177890   5.948   4.124   2.519 -0.9406 -0.4891  0.3572
18825TIP3    H277891   5.825   4.121   2.431 -1.0514  1.0060  0.4425
18826TIP3   OH277892   1.487   6.175   3.321  0.0011 -0.1474 -0.1917
18826TIP3    H177893   1.395   6.156   3.301  0.1672 -0.6662 -0.4685
18826TIP3    H277894   1.510   6.248   3.263  0.2692 -1.1627 -1.3796
18827TIP3   OH277895   6.462   3.657   2.937 -0.2039  0.2533 -0.0190
18827TIP3    H177896   6.507   3.605   3.004 -1.3874  0.0804  0.6497
18827TIP3    H277897   6.529   3.720   2.907  0.7486 -0.5677  0.3176
18828TIP3   OH277898   1.016   6.291  16.407 -0.6884  0.1814  0.5986
18828TIP3    H177899   0.963   6.321  16.334 -0.6988  0.7315  0.8302
18828TIP3    H277900   0.980   6.205  16.429 -1.1715  0.3470  0.4530
18829TIP3   OH277901   2.074   4.976  16.991 -0.3365 -0.3440 -0.0125
18829TIP3    H177902   2.136   5.025  16.937 -0.1809 -0.0229  0.4497
18829TIP3    H277903   2.067   5.027  17.072  0.4320 -1.4677  0.7910
18830TIP3   OH277904   5.286   5.229  13.194 -0.1645  0.5985 -0.3795
18830TIP3    H177905   5.284   5.157  13.132 -3.3740  0.1456  0.0912
18830TIP3    H277906   5.363   5.280  13.168 -0.0034 -0.8551 -3.1832
18831TIP3   OH277907   3.593   6.259  13.240 -0.2301  0.3783  0.6754
18831TIP3    H177908   3.650   6.222  13.308  1.8828  2.1686  0.0019
18831TIP3    H277909   3.654   6.300  13.178 -2.2500  1.7794 -0.4749
18832TIP3   OH277910   1.019   0.297  15.365  0.0758  0.5310  0.4572
18832TIP3    H177911   0.947   0.237  15.350 -1.1557  1.4056  2.4653
18832TIP3    H277912   1.097   0.248  15.340 -0.9154 -1.7212  1.5707
18833TIP3   OH277913   2.875   3.700  16.507 -0.0743 -0.3166 -0.4977
18833TIP3    H177914   2.847   3.658  16.426  1.4520  1.0738 -1.8378
18833TIP3    H277915   2.943   3.642  16.542  1.3448  0.4474 -1.8311
18834TIP3   OH277916   2.818   0.423   4.441  0.5556  0.0991 -0.2535
18834TIP3    H177917   2.830   0.471   4.523 -0.3638  1.5389 -0.9183
18834TIP3    H277918   2.729   0.389   4.447 -0.4992  2.3621 -1.6456
18835TIP3   OH277919   2.722   5.281  12.753  0.1098  0.1776  0.5253
18835TIP3    H177920   2.772   5.335  12.692  1.2021 -2.0991 -0.7390
18835TIP3    H277921   2.635   5.319  12.753  0.0786  0.3220 -2.4722
18836TIP3   OH277922   2.836   1.009   2.784  0.0519  0.2068 -0.6709
18836TIP3    H177923   2.828   0.967   2.870  0.1237 -1.1414 -1.2958
18836TIP3    H277924   2.755   0.987   2.739  0.1497  0.6374 -1.0613
18837TIP3   OH277925   5.738   6.325   1.142 -0.5549 -0.1731 -0.1871
18837TIP3    H177926   5.834   6.326   1.134 -0.4519 -0.5178  0.8093
18837TIP3    H277927   5.715   6.413   1.169 -0.4778 -0.1950 -0.0479
18838TIP3   OH277928   6.417   5.387  14.859 -0.0598  0.0370 -0.4578
18838TIP3    H177929   6.392   5.411  14.949 -1.4768  0.8868 -1.0455
18838TIP3    H277930   6.500   5.432  14.845  0.4425 -0.5159  0.5810
18839TIP3   OH277931   3.567   4.129   0.910  0.0291 -0.3512  0.9056
18839TIP3    H177932   3.492   4.151   0.855  0.2438 -1.1594  0.2737
18839TIP3    H277933   3.561   4.189   0.984 -0.7215  0.2079  0.4037
18840TIP3   OH277934   2.457   1.903  15.555 -0.1957  0.5546  0.1102
18840TIP3    H177935   2.396   1.848  15.605 -1.8863  2.2815  0.0836
18840TIP3    H277936   2.544   1.880  15.588 -1.0314 -0.5579  1.6298
18841TIP3   OH277937   5.094   4.322   1.716 -0.1837  0.0022 -0.0530
18841TIP3    H177938   5.051   4.387   1.660 -0.0757 -1.0136 -1.3469
18841TIP3    H277939   5.106   4.246   1.660  1.1372 -0.5900  0.9855
18842TIP3   OH277940   1.308   4.313   0.073 -0.2908  0.3415  0.5135
18842TIP3    H177941   1.363   4.254   0.021 -0.4288 -0.4272  1.2129
18842TIP3    H277942   1.221   4.272   0.071 -0.6939  1.2008 -0.0484
18843TIP3   OH277943   4.095   3.981   2.160  0.0062  0.1026  0.6460
18843TIP3    H177944   4.181   4.010   2.191  0.7663 -0.1568 -1.1191
18843TIP3    H277945   4.039   4.058   2.170  0.6943  0.5803  0.8938
18844TIP3   OH277946   1.944   4.645   4.052  0.2075 -0.0306 -0.1278
18844TIP3    H177947   2.011   4.641   4.119 -0.5686 -1.0087  0.6260
18844TIP3    H277948   1.923   4.554   4.034 -0.8717  0.2548 -0.3840
18845TIP3   OH277949   1.801   5.811   1.173  0.3662  0.2641  0.3092
18845TIP3    H177950   1.768   5.721   1.175 -2.5832  1.2239  0.1989
18845TIP3    H277951   1.746   5.855   1.108  2.6124  1.8784 -0.6017
18846TIP3   OH277952   2.011   1.588   3.995  0.0130 -0.7516  0.0496
18846TIP3    H177953   2.030   1.549   3.910  2.2691 -0.7657  0.5156
18846TIP3    H277954   1.977   1.516   4.048 -2.5455 -0.5076 -1.0961
18847TIP3   OH277955   3.156   1.356   0.804  0.3024  0.4688  0.3867
18847TIP3    H177956   3.159   1.330   0.712  2.0130  1.3443  0.1532
18847TIP3    H277957   3.163   1.274   0.853  0.3508  0.0720 -0.2805
18848TIP3   OH277958   4.514   2.075   6.493 -0.6199  0.4361  0.8426
18848TIP3    H177959   4.477   1.993   6.525  0.2663  0.3240  1.6346
18848TIP3    H277960   4.594   2.087   6.544 -0.8180  1.8792  0.8740
18849TIP3   OH277961   1.381   3.148  15.913 -0.0859  0.4490 -0.1448
18849TIP3    H177962   1.349   3.149  16.003 -0.0298 -0.1565 -0.1171
18849TIP3    H277963   1.356   3.234  15.877 -1.6243  0.0399 -0.0861
18850TIP3   OH277964   3.053   0.261  14.514 -0.2563  0.3425  0.4840
18850TIP3    H177965   2.975   0.207  14.504  0.9682 -1.2360 -1.3887
18850TIP3    H277966   3.021   0.345  14.547 -2.5402 -0.6779  1.0287
18851TIP3   OH277967   6.255   4.875   3.179 -0.6820  0.5860 -0.3299
18851TIP3    H177968   6.265   4.888   3.084  0.4913 -1.9899 -0.6426
18851TIP3    H277969   6.262   4.781   3.191 -2.2745  0.7015  2.2165
18852TIP3   OH277970   0.091   2.934   0.178  0.7920 -0.0423 -0.1832
18852TIP3    H177971   0.066   3.025   0.163  0.7908 -0.0789 -0.3969
18852TIP3    H277972   0.043   2.910   0.257  2.1569  0.6878  0.9198
18853TIP3   OH277973   3.382   3.374  14.575  0.3453  0.3394 -0.0566
18853TIP3    H177974   3.337   3.458  14.571 -0.0649  0.1743  0.8889
18853TIP3    H277975   3.461   3.386  14.523  1.1470  1.8373  1.4354
18854TIP3   OH277976   1.363   5.213  14.332 -0.4921 -0.6673 -0.5381
18854TIP3    H177977   1.349   5.286  14.392 -0.9672  0.6173 -2.1079
18854TIP3    H277978   1.448   5.177  14.356  1.7388  2.9811 -2.1550
18855TIP3   OH277979   6.535   1.789   1.856  0.4137 -0.0508 -0.0925
18855TIP3    H177980   6.466   1.726   1.836 -0.1056  0.4523  0.0873
18855TIP3    H277981   6.507   1.829   1.939  0.7077  0.4583 -0.2363
18856TIP3   OH277982   0.285   0.610  17.048  0.6866 -0.3932 -0.1879
18856TIP3    H177983   0.235   0.618  17.129 -1.4256  0.6408 -1.4873
18856TIP3    H277984   0.265   0.523  17.015 -1.4074  0.4213 -1.3003
18857TIP3   OH277985   3.424   3.629   2.981 -0.3695 -0.2661  0.6765
18857TIP3    H177986   3.424   3.560   3.048  0.9276 -1.3867 -0.4091
18857TIP3    H277987   3.365   3.696   3.015  1.1094 -0.2415  3.4783
18858TIP3   OH277988   4.968   1.223   2.237  0.4436 -0.8503  0.0773
18858TIP3    H177989   5.012   1.230   2.322 -0.5484  0.1334  0.5268
18858TIP3    H277990   5.033   1.252   2.173  2.4767 -4.8057  0.0012
18859TIP3   OH277991   2.167   1.146  12.483  0.0490 -0.2898 -0.2555
18859TIP3    H177992   2.191   1.168  12.393 -1.4999  0.8922 -0.4211
18859TIP3    H277993   2.117   1.065  12.475 -1.7034  0.7939 -0.7272
18860TIP3   OH277994   0.970   3.894  13.078  0.0150 -0.1516  0.3426
18860TIP3    H177995   0.890   3.887  13.026  0.3306  1.0102 -0.3346
18860TIP3    H277996   0.941   3.887  13.169 -0.8788  0.4213  0.1045
18861TIP3   OH277997   3.582   1.822   3.909 -0.4026  0.0870  0.4744
18861TIP3    H177998   3.639   1.746   3.917  0.4199  0.2217 -2.6643
18861TIP3    H277999   3.641   1.897   3.924 -0.2867  0.1608 -0.2929
18862TIP3   OH278000   0.240   0.373  13.299  0.1548  0.1781  0.4604
18862TIP3    H178001   0.301   0.299  13.302 -1.1862 -0.9256  2.5782
18862TIP3    H278002   0.171   0.350  13.361 -0.7773  2.8193  0.5244
18863TIP3   OH278003   1.048   3.883  11.551 -0.1133  0.3601  0.1196
18863TIP3    H178004   1.078   3.938  11.479  1.0811  0.1902  0.4635
18863TIP3    H278005   1.048   3.940  11.627 -0.2357  0.2457  0.2062
18864TIP3   OH278006   6.235   2.553  11.062 -0.3501  0.5165  0.0448
18864TIP3    H178007   6.298   2.568  11.133 -0.3116  0.0874  0.1067
18864TIP3    H278008   6.253   2.463  11.034 -2.0157 -0.2142  1.1548
18865TIP3   OH278009   1.952   1.298   1.348  0.0466  0.7422  0.1071
18865TIP3    H178010   2.031   1.340   1.382  0.4664  0.6847 -0.7850
18865TIP3    H278011   1.941   1.220   1.402 -0.2839  1.5430  1.2506
18866TIP3   OH278012   4.621   3.528  12.805 -0.3583  0.2626 -0.5869
18866TIP3    H178013   4.588   3.524  12.895  0.5270 -0.6030 -0.2792
18866TIP3    H278014   4.566   3.593  12.762 -1.5272 -0.1162  0.2814
18867TIP3   OH278015   5.805   6.161   3.055  0.4160  0.1688  0.4693
18867TIP3    H178016   5.872   6.205   3.003 -0.5856 -1.7570 -2.7864
18867TIP3    H278017   5.851   6.091   3.101  0.9970  0.3348  0.1446
18868TIP3   OH278018   3.889   4.368   3.728 -0.1092  0.2556  0.7718
18868TIP3    H178019   3.914   4.443   3.782  0.3878  0.4184  0.3252
18868TIP3    H278020   3.920   4.292   3.777  2.1887  0.4804 -0.1829
18869TIP3   OH278021   3.908   4.359   5.149 -0.9158 -0.5567  0.0639
18869TIP3    H178022   3.883   4.267   5.138 -1.6425 -0.3690  0.1013
18869TIP3    H278023   3.927   4.389   5.061 -2.6730 -0.1972 -0.2276
18870TIP3   OH278024   1.720   1.123  13.182 -0.1528 -1.0750  0.3012
18870TIP3    H178025   1.807   1.156  13.207 -0.4861 -1.6183  2.3923
18870TIP3    H278026   1.722   1.030  13.206 -0.8299 -1.4561 -1.0411
18871TIP3   OH278027   0.234   3.047   1.733  0.1267  0.2580  0.0369
18871TIP3    H178028   0.219   2.953   1.741  0.7103  0.2630  1.3840
18871TIP3    H278029   0.168   3.077   1.670 -1.1522 -0.7764  0.8375
18872TIP3   OH278030   5.841   0.594   3.030  0.2361  0.3326 -0.2048
18872TIP3    H178031   5.859   0.501   3.045  1.2388  0.7217  1.2560
18872TIP3    H278032   5.806   0.598   2.941 -1.6545 -1.6672  0.3788
18873TIP3   OH278033   4.389   3.303   3.188 -0.1254  0.4272 -0.5041
18873TIP3    H178034   4.331   3.286   3.114 -2.0383 -4.2395  1.6605
18873TIP3    H278035   4.330   3.335   3.257  0.9899  1.2884  0.0754
18874TIP3   OH278036   5.398   1.529   2.649  0.3196 -0.5793 -0.5608
18874TIP3    H178037   5.382   1.480   2.729 -0.8159  1.4746  0.5580
18874TIP3    H278038   5.465   1.593   2.673  2.0472 -1.7053 -2.0815
18875TIP3   OH278039   5.640   5.871  11.655  0.1865  0.4108 -0.2633
18875TIP3    H178040   5.723   5.873  11.607  0.3425  0.7260  0.0161
18875TIP3    H278041   5.594   5.951  11.627  0.7712  1.2110  0.9652
18876TIP3   OH278042   6.358   1.859  17.389 -0.4249  0.6510 -0.3015
18876TIP3    H178043   6.286   1.850  17.326 -0.5307  0.4029 -0.1485
18876TIP3    H278044   6.397   1.944  17.369 -0.6997  0.7448 -0.4502
18877TIP3   OH278045   4.438   5.497  15.206 -0.6306  0.1035 -0.2219
18877TIP3    H178046   4.387   5.461  15.133  0.5738  1.9857 -2.0831
18877TIP3    H278047   4.392   5.578  15.229 -1.1713 -0.6199  1.3848
18878TIP3   OH278048   6.568   2.409   2.156 -0.0396 -0.4116  0.2042
18878TIP3    H178049   6.530   2.487   2.118  0.0159 -0.1534  0.6753
18878TIP3    H278050   6.580   2.349   2.081  0.1276  0.1074 -0.1868
18879TIP3   OH278051   0.029   2.479   3.186 -0.2620  0.0519  0.2812
18879TIP3    H178052  -0.038   2.508   3.125 -0.4279  0.6750  0.7463
18879TIP3    H278053   0.031   2.384   3.177  0.2415  0.1784 -1.2381
18880TIP3   OH278054   0.734   6.581   0.156 -0.0305  0.4011 -0.1203
18880TIP3    H178055   0.827   6.566   0.168  0.2448  1.3184 -1.0047
18880TIP3    H278056   0.713   6.653   0.216 -0.5498 -0.8805  1.3112
18881TIP3   OH278057   2.257   4.069  10.929 -0.6519  0.2285  0.0254
18881TIP3    H178058   2.174   4.078  10.883 -0.3905  0.4848 -0.4032
18881TIP3    H278059   2.281   3.977  10.916 -0.2548  0.4513 -0.9300
18882TIP3   OH278060   5.576   6.758  16.271 -0.2593  0.1702  0.2058
18882TIP3    H178061   5.485   6.773  16.298 -0.4620  0.3417 -0.5444
18882TIP3    H278062   5.585   6.663  16.270 -0.6501  0.1273 -0.3816
18883TIP3   OH278063   6.042   2.692   4.850  0.0220  0.4487  0.6336
18883TIP3    H178064   6.077   2.678   4.938 -0.6546  1.5206  1.0867
18883TIP3    H278065   5.960   2.739   4.864  0.0982  0.9715 -0.5916
18884TIP3   OH278066   1.825   5.548   4.576  0.2738 -0.4779  0.4855
18884TIP3    H178067   1.729   5.545   4.573  0.3189 -1.1930 -0.4513
18884TIP3    H278068   1.847   5.505   4.659 -0.2915  2.4302  2.2834
18885TIP3   OH278069   2.153   1.562  14.890  0.2744  0.1642  0.2615
18885TIP3    H178070   2.142   1.652  14.861  2.0166  0.8949  1.7524
18885TIP3    H278071   2.096   1.554  14.966 -0.2713 -0.1887 -0.1671
18886TIP3   OH278072   3.903   4.400  15.373 -0.5790 -0.2561  0.5759
18886TIP3    H178073   3.830   4.451  15.340  0.0482  0.1581 -0.1866
18886TIP3    H278074   3.865   4.313  15.390 -1.2015 -0.1041  0.0164
18887TIP3   OH278075   4.249   1.476   4.341  0.7551 -0.0380  0.4548
18887TIP3    H178076   4.315   1.408   4.359  1.8038  1.0814  0.9829
18887TIP3    H278077   4.215   1.454   4.254  2.2201 -0.3451 -0.0728
18888TIP3   OH278078   3.555   2.154  12.790 -0.1949  0.3764 -0.0883
18888TIP3    H178079   3.594   2.238  12.766  0.2464 -0.1228 -1.2389
18888TIP3    H278080   3.531   2.163  12.882  3.7510  0.3522  1.1644
18889TIP3   OH278081   5.272   2.256  14.420  0.2397  0.3207  0.1083
18889TIP3    H178082   5.252   2.294  14.334 -1.2624  1.9526  1.0845
18889TIP3    H278083   5.224   2.174  14.422  0.7349 -0.0003 -0.8087
18890TIP3   OH278084   0.037   4.473   0.973 -0.2212 -0.1279 -0.2314
18890TIP3    H178085  -0.004   4.523   1.043 -0.0463 -0.2081 -0.0722
18890TIP3    H278086   0.051   4.536   0.903  4.6485  1.4391  1.7051
18891TIP3   OH278087   6.454   4.947   0.987 -0.4512  0.0251  0.2025
18891TIP3    H178088   6.433   5.028   1.034 -0.2400  1.4090 -1.9585
18891TIP3    H278089   6.388   4.941   0.918 -0.1932 -1.4241  0.0564
18892TIP3   OH278090   1.410   1.131   5.934 -0.5984  0.7619  0.2740
18892TIP3    H178091   1.483   1.192   5.920 -0.0060 -0.2518 -1.4746
18892TIP3    H278092   1.367   1.126   5.848 -1.4805 -0.2145  0.7518
18893TIP3   OH278093   0.204   4.971  11.735 -0.7611 -0.1160  0.5588
18893TIP3    H178094   0.210   5.039  11.669 -1.6820 -1.0722 -0.5526
18893TIP3    H278095   0.135   5.000  11.795  0.5368  1.0745  1.5380
18894TIP3   OH278096   2.139   5.229   0.918  0.2465  0.3605  0.0703
18894TIP3    H178097   2.169   5.138   0.919  0.6794  0.4858  1.3208
18894TIP3    H278098   2.061   5.229   0.864  0.4547 -0.6876 -0.2434
18895TIP3   OH278099   4.650   6.270   4.154  0.2173 -0.4596  0.3685
18895TIP3    H178100   4.668   6.241   4.244  0.8516  1.3289  0.8566
18895TIP3    H278101   4.668   6.364   4.155  0.5422 -0.4503 -1.7223
18896TIP3   OH278102   5.182   5.005  16.940  0.6466 -0.1667 -0.2431
18896TIP3    H178103   5.165   4.970  17.027  2.1604  1.5805  0.8198
18896TIP3    H278104   5.100   5.049  16.915  0.9554  1.3976  1.3684
18897TIP3   OH278105   0.815   3.097   2.746  0.7986 -0.0569  0.5603
18897TIP3    H178106   0.832   3.182   2.787 -0.5966 -0.5895  2.3625
18897TIP3    H278107   0.722   3.081   2.761  0.6120 -1.0936 -1.3845
18898TIP3   OH278108   4.404   6.666  11.759 -0.2136 -0.4650  0.2779
18898TIP3    H178109   4.385   6.593  11.701 -0.9749  0.5560 -0.8220
18898TIP3    H278110   4.322   6.715  11.763  0.1256  0.0412  1.4087
18899TIP3   OH278111   0.624   2.411   3.224  0.3196  0.2833  0.5734
18899TIP3    H178112   0.657   2.399   3.134  0.3044 -2.9210  0.8700
18899TIP3    H278113   0.539   2.453   3.213  0.3011 -0.0719 -0.9520
18900TIP3   OH278114   5.954   5.076   0.307  0.1342 -0.0935 -0.6962
18900TIP3    H178115   5.871   5.124   0.308  0.6983  0.9233  0.2228
18900TIP3    H278116   6.016   5.137   0.268  0.6654 -0.4497 -0.4162
18901TIP3   OH278117   6.759   3.399  12.275  0.0663  0.3478  0.5065
18901TIP3    H178118   6.722   3.361  12.355 -0.1177 -1.0685 -0.2091
18901TIP3    H278119   6.828   3.457  12.306  1.3979 -1.7139  1.6817
18902TIP3   OH278120   5.220   1.050  14.266 -0.3877  0.1906  0.1190
18902TIP3    H178121   5.244   1.133  14.224 -0.3914 -0.1463 -0.5785
18902TIP3    H278122   5.292   1.031  14.326 -0.5704  0.8834  0.5704
18903TIP3   OH278123   3.183   0.768   0.546  0.2261 -0.0660 -0.1301
18903TIP3    H178124   3.270   0.732   0.528  1.3029  1.7602  0.9912
18903TIP3    H278125   3.179   0.774   0.642 -1.1807 -0.2026 -0.1643
18904TIP3   OH278126   5.671   4.329  10.785 -0.1537  0.0772  0.2825
18904TIP3    H178127   5.672   4.283  10.701  0.0674 -0.3263  0.4991
18904TIP3    H278128   5.583   4.316  10.819  0.2426 -1.2134  0.8849
18905TIP3   OH278129   3.454   6.544   2.168  0.0991 -0.1779 -0.2809
18905TIP3    H178130   3.451   6.635   2.199  1.4344 -0.5385  0.9532
18905TIP3    H278131   3.546   6.520   2.171 -0.0839 -1.2106 -1.7693
18906TIP3   OH278132   4.543   1.331  14.500  0.5042  0.0677  0.3867
18906TIP3    H178133   4.462   1.352  14.454  0.9028  1.1054  0.1374
18906TIP3    H278134   4.590   1.414  14.506  0.6759 -0.1178  2.2501
18907TIP3   OH278135   2.495   4.883   6.070 -0.6431  0.4202  0.0997
18907TIP3    H178136   2.531   4.854   5.987 -0.1640 -1.3377  0.8655
18907TIP3    H278137   2.571   4.911   6.121 -0.4986 -1.4627  1.0196
18908TIP3   OH278138   0.813   5.756  14.083 -0.3881  0.2857  0.1904
18908TIP3    H178139   0.815   5.666  14.114 -1.5246  1.3360  3.7535
18908TIP3    H278140   0.722   5.770  14.056 -0.3524  0.5201  0.1895
18909TIP3   OH278141   3.046   5.834  10.751  0.2048 -0.2670 -0.6038
18909TIP3    H178142   3.028   5.928  10.751 -0.3296 -0.3639 -0.1950
18909TIP3    H278143   2.987   5.799  10.684 -0.2051 -0.4155 -0.1733
18910TIP3   OH278144   0.824   1.105   0.664  0.1415  0.1485  0.0055
18910TIP3    H178145   0.819   1.187   0.616  0.1290  0.2628  0.2042
18910TIP3    H278146   0.814   1.037   0.596  0.7713  0.2973 -0.2389
18911TIP3   OH278147   2.968   0.006   2.987  0.1626 -0.0444  0.2296
18911TIP3    H178148   2.995   0.048   3.068  4.2551  1.0057 -1.4482
18911TIP3    H278149   2.971   0.076   2.921 -1.9841 -1.0930 -1.1191
18912TIP3   OH278150   3.034   4.305   1.527 -0.0274 -0.3669  0.2965
18912TIP3    H178151   3.015   4.236   1.463  1.2242  2.4966 -3.4961
18912TIP3    H278152   3.124   4.287   1.555  0.0194 -0.7077 -0.0585
18913TIP3   OH278153   2.132   1.827  15.269  0.3858 -0.1526  0.4799
18913TIP3    H178154   2.214   1.859  15.231 -0.4488 -0.1946 -1.4428
18913TIP3    H278155   2.122   1.878  15.350  0.9466  1.8440 -0.6384
18914TIP3   OH278156   6.076   3.409  11.978  0.0433  0.5552  0.2074
18914TIP3    H178157   6.022   3.486  11.960 -0.0783  1.0828  2.5272
18914TIP3    H278158   6.113   3.425  12.065  1.5848 -1.1404 -0.0645
18915TIP3   OH278159   3.453   2.596  14.383 -0.3311 -0.0783  0.3108
18915TIP3    H178160   3.428   2.664  14.321 -1.8235 -0.5184  0.4010
18915TIP3    H278161   3.441   2.637  14.469  0.9884  0.2767  0.3439
18916TIP3   OH278162   1.459   1.710  14.738  0.0946 -0.0703  0.2902
18916TIP3    H178163   1.417   1.746  14.660 -0.2617  0.1197  0.5680
18916TIP3    H278164   1.409   1.747  14.812 -1.6556 -2.7272  0.5748
18917TIP3   OH278165   6.003   5.430  13.618  0.6102 -0.1822 -0.2036
18917TIP3    H178166   6.016   5.516  13.656 -0.5749  0.3610 -0.9605
18917TIP3    H278167   6.023   5.369  13.689  2.7171  0.6339 -0.0195
18918TIP3   OH278168   5.158   4.057  13.842  0.0193 -0.3211  0.3412
18918TIP3    H178169   5.253   4.057  13.847  0.0036 -0.1915  0.6936
18918TIP3    H278170   5.131   3.989  13.903 -0.1607  0.7587  1.5020
18919TIP3   OH278171   0.252   1.601  14.762  0.4547  0.1724  0.2201
18919TIP3    H178172   0.287   1.647  14.839  1.6378  0.3720 -0.4034
18919TIP3    H278173   0.239   1.511  14.791  0.0916  0.4366  0.8847
18920TIP3   OH278174   2.038   2.464  12.506 -0.1909 -0.1743  0.1735
18920TIP3    H178175   2.040   2.532  12.574 -0.4440 -0.8913  0.9163
18920TIP3    H278176   2.065   2.385  12.551 -1.9137 -0.9987 -0.1432
18921TIP3   OH278177   1.528   2.240  12.228 -0.0789  0.0300 -0.1541
18921TIP3    H178178   1.457   2.304  12.228 -0.0539  0.0690  0.5819
18921TIP3    H278179   1.572   2.253  12.312  0.9374  0.1582 -0.6922
18922TIP3   OH278180   4.242   5.654  15.282  0.4009  0.2067 -0.2633
18922TIP3    H178181   4.218   5.607  15.362  0.8347  0.4549  0.0158
18922TIP3    H278182   4.182   5.729  15.280 -0.1940 -0.2734 -0.6317
18923TIP3   OH278183   6.577   3.799  15.575 -0.1167  0.1355  0.9449
18923TIP3    H178184   6.605   3.708  15.575 -0.0843  0.1297 -0.0941
18923TIP3    H278185   6.618   3.837  15.497 -0.7097  0.8444  0.9595
18924TIP3   OH278186   3.530   1.665   4.878  0.6851 -0.1566  0.4488
18924TIP3    H178187   3.540   1.573   4.851 -0.8860  0.2105 -1.5968
18924TIP3    H278188   3.602   1.711   4.835  0.1160 -0.0967 -0.4697
18925TIP3   OH278189   5.773   4.937  17.211 -0.2906  0.3073 -0.0140
18925TIP3    H178190   5.775   4.847  17.242 -0.2987 -0.2875 -1.6434
18925TIP3    H278191   5.731   4.932  17.125  1.1140  1.6302 -0.8198
18926TIP3   OH278192   5.164   0.567  14.590 -0.0190  0.2952  0.3385
18926TIP3    H178193   5.100   0.607  14.648 -1.2338 -1.4125  0.2385
18926TIP3    H278194   5.235   0.631  14.584 -2.1776  2.7362 -0.4403
18927TIP3   OH278195   5.837   5.103  13.598  0.5510  0.1111 -0.8825
18927TIP3    H178196   5.894   5.025  13.594 -0.0014 -0.2724 -1.3811
18927TIP3    H278197   5.823   5.127  13.506  0.6296  0.7433 -0.7321
18928TIP3   OH278198   1.460   3.264  17.004  0.1471  0.3499 -0.2940
18928TIP3    H178199   1.421   3.263  17.091  0.0851 -1.4299 -0.2958
18928TIP3    H278200   1.538   3.319  17.013 -0.1913  0.6792  0.7298
18929TIP3   OH278201   1.701   3.865   6.392  0.5602 -0.2006  0.3217
18929TIP3    H178202   1.680   3.790   6.447  0.3922  1.4779  2.7051
18929TIP3    H278203   1.616   3.897   6.362  0.6421 -1.0191 -0.8397
18930TIP3   OH278204   3.854   4.493  14.884  0.0418  0.1581  0.2528
18930TIP3    H178205   3.928   4.539  14.925  0.6146 -0.6730  0.1758
18930TIP3    H278206   3.810   4.449  14.955 -1.3049  1.8401  0.5326
18931TIP3   OH278207   4.408   1.599   1.926 -0.3294 -0.1116  0.3022
18931TIP3    H178208   4.425   1.520   1.874  2.7521  1.1232 -0.7823
18931TIP3    H278209   4.338   1.644   1.879 -0.5944 -1.1106 -0.2954
18932TIP3   OH278210   4.419   5.560   0.495  0.7546 -0.7634  0.3548
18932TIP3    H178211   4.425   5.506   0.415 -3.1032 -0.2452 -0.4791
18932TIP3    H278212   4.430   5.650   0.464 -1.2034 -0.5235  0.2284
18933TIP3   OH278213   0.837   6.472  15.484 -0.0766 -0.5269 -0.4089
18933TIP3    H178214   0.770   6.484  15.552  2.3867 -0.0627  2.1241
18933TIP3    H278215   0.798   6.510  15.405 -1.8281  2.1768  1.5696
18934TIP3   OH278216   4.724   2.252  15.027  0.1816 -0.6386  0.6771
18934TIP3    H178217   4.801   2.198  15.045  1.9190  1.6993  0.7814
18934TIP3    H278218   4.739   2.332  15.077 -0.8366  1.1380 -1.6644
18935TIP3   OH278219   2.566   0.715  15.623  0.4052  0.0973 -0.9701
18935TIP3    H178220   2.649   0.746  15.589  2.1003 -1.9622  0.9714
18935TIP3    H278221   2.567   0.737  15.716 -1.2454  0.0651 -0.9066
18936TIP3   OH278222   4.710   2.554   4.434  0.0890  0.1949 -0.6841
18936TIP3    H178223   4.638   2.588   4.381 -0.5708 -0.6704 -0.3773
18936TIP3    H278224   4.669   2.488   4.490  0.8707  0.6867  0.5086
18937TIP3   OH278225   1.452   0.477  16.128  0.0886 -0.2188 -0.5870
18937TIP3    H178226   1.504   0.507  16.053  1.7707  0.8191  0.9359
18937TIP3    H278227   1.515   0.436  16.186 -0.2528  2.9020  2.2867
18938TIP3   OH278228   2.184   1.066  15.304 -0.2466  0.2472  0.7279
18938TIP3    H178229   2.094   1.043  15.283  0.3933 -1.2550 -0.5760
18938TIP3    H278230   2.187   1.161  15.299 -1.4331  0.2364 -0.6961
18939TIP3   OH278231   0.195   5.117  15.983 -0.1940 -0.0662  0.0456
18939TIP3    H178232   0.160   5.047  15.928  1.0616 -0.2928 -0.5010
18939TIP3    H278233   0.266   5.076  16.032  1.1522  0.9898 -0.9327
18940TIP3   OH278234   2.751   5.782  15.031 -0.4604 -0.2001  0.2467
18940TIP3    H178235   2.682   5.849  15.035  0.0930  0.4258 -0.4213
18940TIP3    H278236   2.724   5.726  14.958 -0.8136 -0.5882  0.6713
18941TIP3   OH278237   4.594   6.108  15.951 -0.1191 -0.0141 -0.2981
18941TIP3    H178238   4.515   6.153  15.981 -0.9673  0.1785 -2.6082
18941TIP3    H278239   4.578   6.091  15.858  1.9387 -1.3565 -0.4705
18942TIP3   OH278240   6.484   4.883  12.034  1.0573 -0.1396  0.1148
18942TIP3    H178241   6.462   4.828  12.109  1.5025  1.4060  1.4413
18942TIP3    H278242   6.400   4.900  11.993  0.6176  0.0678  1.0581
18943TIP3   OH278243   6.534   5.729   0.064 -0.6243 -0.0150 -0.0085
18943TIP3    H178244   6.555   5.790   0.134  0.2119  0.5797 -0.7701
18943TIP3    H278245   6.606   5.666   0.065  0.0515  0.7169 -1.1349
18944TIP3   OH278246   3.771   2.555   5.750  0.1104  0.7774  0.1203
18944TIP3    H178247   3.813   2.638   5.772 -1.5077  1.2671  1.6256
18944TIP3    H278248   3.678   2.570   5.767 -0.2741 -1.2014 -0.0081
18945TIP3   OH278249   1.786   2.442  13.634 -0.2414 -0.2986  0.4317
18945TIP3    H178250   1.839   2.516  13.665  0.3475 -0.9018  0.8962
18945TIP3    H278251   1.836   2.407  13.560 -0.4508 -0.3177  0.2994
18946TIP3   OH278252   3.040   1.314  11.224 -0.1872  0.1948 -0.4657
18946TIP3    H178253   3.017   1.241  11.167 -3.7723  0.7987 -0.0225
18946TIP3    H278254   3.003   1.391  11.180  0.5260  1.2523  0.7238
18947TIP3   OH278255   5.773   1.147   1.534  0.9959 -0.1564 -0.4124
18947TIP3    H178256   5.843   1.126   1.596  1.0040  1.5704  0.2424
18947TIP3    H278257   5.810   1.217   1.480  0.2839 -0.2607 -1.0519
18948TIP3   OH278258   6.005   1.045  12.289 -0.1515  0.3291 -0.9847
18948TIP3    H178259   6.077   1.067  12.347 -0.3328  0.0100 -0.6301
18948TIP3    H278260   6.007   1.112  12.221  0.4814  0.3136 -0.9852
18949TIP3   OH278261   1.375   0.422  13.485  0.6701  0.5607  0.0742
18949TIP3    H178262   1.467   0.411  13.506  0.9313  1.0401 -0.7785
18949TIP3    H278263   1.371   0.418  13.389 -0.5045 -1.8565  0.1521
18950TIP3   OH278264   0.860   4.498   3.528  0.2476  0.2870 -0.5733
18950TIP3    H178265   0.857   4.437   3.454  2.0380 -0.8251  0.2096
18950TIP3    H278266   0.797   4.566   3.505 -0.0727 -0.6107 -2.5863
18951TIP3   OH278267   0.032   5.597   0.137 -0.4283  0.0661  0.5682
18951TIP3    H178268   0.116   5.605   0.092  0.7622  0.3995  2.7133
18951TIP3    H278269   0.050   5.543   0.213 -1.9118  0.9709  1.6244
18952TIP3   OH278270   2.070   3.224  11.981 -0.1302 -0.2522  0.6424
18952TIP3    H178271   2.074   3.236  11.886  2.4628  0.0323  0.7040
18952TIP3    H278272   2.068   3.313  12.017  0.5617 -0.3118  0.8515
18953TIP3   OH278273   0.959   4.993  14.626 -0.6403  0.1785 -0.4236
18953TIP3    H178274   0.964   5.008  14.721 -0.2272 -0.4026 -0.3470
18953TIP3    H278275   1.043   4.953  14.604 -0.4541  0.9425 -1.1592
18954TIP3   OH278276   3.186   0.307   1.105  0.3226  0.0772  0.2568
18954TIP3    H178277   3.160   0.234   1.049 -1.0357  0.5483  0.2318
18954TIP3    H278278   3.111   0.319   1.164 -0.8274  3.3190 -1.6485
18955TIP3   OH278279   0.107   2.212   3.850 -0.2216  0.3596  0.4791
18955TIP3    H178280   0.087   2.302   3.823 -2.1137 -0.2326 -0.2473
18955TIP3    H278281   0.134   2.220   3.942 -1.6592  1.5371  0.8369
18956TIP3   OH278282   2.672   5.709   0.234 -0.1604 -0.2308 -0.1047
18956TIP3    H178283   2.676   5.801   0.262  0.6514 -0.6841  1.3784
18956TIP3    H278284   2.719   5.708   0.151 -0.0177  0.6736 -0.0521
18957TIP3   OH278285   6.446   2.528  11.375 -0.0859  0.4080 -0.2748
18957TIP3    H178286   6.485   2.572  11.450 -0.2379 -0.8348  0.5706
18957TIP3    H278287   6.361   2.497  11.406  1.2796 -3.2477  0.2786
18958TIP3   OH278288   3.519   3.536  14.385 -0.0007 -0.6049  0.3542
18958TIP3    H178289   3.562   3.554  14.302  0.5337 -0.9988  0.5402
18958TIP3    H278290   3.508   3.622  14.427  3.0532 -0.6708  1.5067
18959TIP3   OH278291   1.457   0.229  14.246  0.4515  0.6050  0.3780
18959TIP3    H178292   1.425   0.140  14.257  1.7646 -0.1820 -1.5994
18959TIP3    H278293   1.394   0.271  14.187  0.5464  0.5581  0.2431
18960TIP3   OH278294   2.375   0.052   4.555 -0.5053 -0.5687 -0.7316
18960TIP3    H178295   2.421   0.079   4.476  1.0184  0.0480  0.3178
18960TIP3    H278296   2.430  -0.018   4.592 -0.1156  0.4832  0.7819
18961TIP3   OH278297   2.102   6.103  14.383  0.1056 -0.2866  0.7234
18961TIP3    H178298   2.158   6.180  14.391 -0.7673  0.5364 -0.7140
18961TIP3    H278299   2.162   6.032  14.359  0.8380  0.0394  1.5214
18962TIP3   OH278300   2.169   0.819   6.295  0.4942  0.1812 -0.5578
18962TIP3    H178301   2.077   0.842   6.308  0.4404 -0.3655  0.0840
18962TIP3    H278302   2.216   0.903   6.301 -0.0319  0.5805 -1.7455
18963TIP3   OH278303   2.530   0.376   0.531 -0.0320 -0.5342 -0.0691
18963TIP3    H178304   2.496   0.386   0.442  1.3477 -2.3003 -0.8484
18963TIP3    H278305   2.452   0.379   0.587 -0.8695  1.1426 -1.2561
18964TIP3   OH278306   1.329   0.819   3.617  0.0943 -0.7548 -0.1622
18964TIP3    H178307   1.394   0.845   3.682 -0.9124  1.5254  0.0072
18964TIP3    H278308   1.270   0.761   3.664  0.7925 -1.1558  0.2424
18965TIP3   OH278309   1.096   4.981  11.515 -0.1789 -0.5539  0.0468
18965TIP3    H178310   1.083   4.891  11.545 -1.1969 -0.9667 -1.5148
18965TIP3    H278311   1.008   5.013  11.498  0.2302  0.4496 -0.2306
18966TIP3   OH278312   1.056   4.198  13.602 -0.0372 -0.6228  0.2344
18966TIP3    H178313   1.111   4.202  13.680  0.7488 -0.6960 -0.3110
18966TIP3    H278314   0.969   4.224  13.634  0.2622 -0.6711  1.1361
18967TIP3   OH278315   4.831   2.397  15.574  0.1437  0.4086  0.2263
18967TIP3    H178316   4.829   2.481  15.619  0.7340 -0.3751  1.7808
18967TIP3    H278317   4.917   2.360  15.596  0.3710 -0.1121 -1.3971
18968TIP3   OH278318   6.455   5.675   6.165 -0.2821  0.2511  0.8977
18968TIP3    H178319   6.361   5.660   6.181  0.0320  0.4496  3.3465
18968TIP3    H278320   6.499   5.629   6.236  1.5638 -0.3691 -0.5649
18969TIP3   OH278321   4.176   2.988   3.089 -0.3139 -0.1355 -0.1286
18969TIP3    H178322   4.246   2.960   3.030  0.2416  1.6497 -0.3514
18969TIP3    H278323   4.216   2.986   3.176 -0.3206 -0.1338 -0.1254
18970TIP3   OH278324   5.962   4.984   5.741  0.2575  0.4401  0.2797
18970TIP3    H178325   5.973   5.051   5.674 -2.0627  0.3055 -0.2946
18970TIP3    H278326   6.027   5.006   5.808  0.0519  2.8217 -0.2241
18971TIP3   OH278327   2.415   6.292   4.534 -0.1433 -0.1540 -0.3799
18971TIP3    H178328   2.449   6.370   4.491  0.1348 -0.7901 -1.3420
18971TIP3    H278329   2.322   6.308   4.544 -0.2887 -0.1506 -1.6006
18972TIP3   OH278330   4.035   3.732   0.976  0.1860  0.7140  0.0725
18972TIP3    H178331   4.019   3.823   0.953 -1.4804 -0.2112 -2.9600
18972TIP3    H278332   4.001   3.682   0.902  1.3125 -2.3897  1.4701
18973TIP3   OH278333   2.382   2.342   0.028  0.0251  0.1947  0.8559
18973TIP3    H178334   2.395   2.400   0.103  0.5861  0.5764  0.4717
18973TIP3    H278335   2.465   2.295   0.019  0.4439  1.1181 -0.3303
18974TIP3   OH278336   0.367   0.046   5.211 -0.3782  0.5489  0.1937
18974TIP3    H178337   0.420   0.017   5.285  0.2778  1.3644  0.0535
18974TIP3    H278338   0.402  -0.003   5.136 -0.0749  0.8104  0.1653
18975TIP3   OH278339   2.731   4.204  16.685  0.0802  0.1746  0.5389
18975TIP3    H178340   2.756   4.180  16.596  2.5891  0.6574  1.0267
18975TIP3    H278341   2.749   4.126  16.737 -1.9930 -0.3256  0.5847
18976TIP3   OH278342   3.377   1.531   5.491  0.1669 -0.6169  0.0785
18976TIP3    H178343   3.305   1.525   5.554  1.5062 -0.1562  1.7275
18976TIP3    H278344   3.339   1.576   5.415 -1.1388  0.1510  1.1408
18977TIP3   OH278345   0.176   5.173   1.761  0.5039  0.1457  0.8853
18977TIP3    H178346   0.138   5.132   1.838 -0.2316 -1.4009 -0.2531
18977TIP3    H278347   0.180   5.103   1.696  2.3294  1.0707 -0.0737
18978TIP3   OH278348   3.202   5.160   5.415 -0.1098  0.1792  0.1313
18978TIP3    H178349   3.194   5.072   5.380 -0.8751  0.2871  0.0252
18978TIP3    H278350   3.144   5.162   5.491 -0.3266  0.6762 -0.0396
18979TIP3   OH278351   1.303   3.544  13.742  0.1661 -0.3420 -0.7397
18979TIP3    H178352   1.393   3.509  13.745 -0.1703 -1.1923 -0.1311
18979TIP3    H278353   1.283   3.550  13.649  1.7338  2.2638 -1.0087
18980TIP3   OH278354   6.272   3.574   0.871 -0.1014  0.2888 -0.5452
18980TIP3    H178355   6.231   3.646   0.919  0.6538  1.8341 -2.1144
18980TIP3    H278356   6.324   3.617   0.803  0.0528 -1.7587 -1.8004
18981TIP3   OH278357   0.337   6.372  14.755  0.3345 -0.1408  0.5310
18981TIP3    H178358   0.303   6.374  14.665  0.2539 -0.2269  0.5592
18981TIP3    H278359   0.409   6.435  14.755 -0.2558  0.5561  0.6380
18982TIP3   OH278360   5.308   1.695   3.311  0.0402 -0.1092 -0.7223
18982TIP3    H178361   5.354   1.669   3.231  2.6318  1.4909  0.1388
18982TIP3    H278362   5.324   1.789   3.319  1.1302 -0.4315  2.3760
18983TIP3   OH278363   3.061   0.543  11.931 -0.2870  0.2065  0.0527
18983TIP3    H178364   3.004   0.473  11.898 -0.6202  0.6606 -0.3424
18983TIP3    H278365   3.022   0.624  11.898 -0.0351  0.6011  0.6927
18984TIP3   OH278366   2.640   2.604  15.207 -0.4723  0.3168  0.2220
18984TIP3    H178367   2.610   2.513  15.197 -0.9933  0.1608  2.7251
18984TIP3    H278368   2.698   2.602  15.283  0.2055  1.9530 -0.2237
18985TIP3   OH278369   3.401   4.046   6.720  0.3603 -0.1836  0.1495
18985TIP3    H178370   3.453   3.971   6.749 -0.6708  0.0213  2.8177
18985TIP3    H278371   3.344   4.066   6.794 -0.9954  1.8511 -1.3198
18986TIP3   OH278372   3.301   4.943   2.538  0.1135 -0.0155 -0.8964
18986TIP3    H178373   3.383   4.914   2.498  0.9182 -1.0675  1.3901
18986TIP3    H278374   3.305   5.039   2.535  0.4696 -0.0560 -2.5936
18987TIP3   OH278375   4.009   0.913   1.287  0.0751 -0.2864 -0.0028
18987TIP3    H178376   4.017   0.819   1.269  2.2662 -0.3879  1.2203
18987TIP3    H278377   3.985   0.917   1.379 -1.8239  0.3754 -0.4830
18988TIP3   OH278378   4.816   2.122   4.856  0.1709  0.1469 -0.2845
18988TIP3    H178379   4.847   2.187   4.793  1.2788  0.6645  0.7517
18988TIP3    H278380   4.850   2.152   4.940  1.3206 -2.1164  0.1332
18989TIP3   OH278381   6.227   3.901  12.827 -0.3654  0.5334 -0.6277
18989TIP3    H178382   6.275   3.862  12.900  1.2238  1.2642 -1.2455
18989TIP3    H278383   6.152   3.944  12.868 -0.4251 -0.4933  0.3829
18990TIP3   OH278384   3.954   4.176  14.432 -0.0750  0.3705  0.5492
18990TIP3    H178385   3.889   4.124  14.386  0.7166 -0.3176  0.1757
18990TIP3    H278386   3.904   4.245  14.476 -1.0247 -0.0603  0.1589
18991TIP3   OH278387   4.537   4.900  13.440  0.3849  0.1180  0.2829
18991TIP3    H178388   4.598   4.948  13.385  0.0825  0.7598  0.4976
18991TIP3    H278389   4.485   4.848  13.378  1.1468 -0.4554  0.1011
18992TIP3   OH278390   4.829   3.031  12.743  0.3445  0.1148  0.8520
18992TIP3    H178391   4.740   3.009  12.714  0.1757 -0.6750  1.9046
18992TIP3    H278392   4.827   3.126  12.758  0.4605  0.5863 -1.6762
18993TIP3   OH278393   4.558   0.114   5.595 -0.0798 -0.1978  0.0108
18993TIP3    H178394   4.519   0.145   5.677 -0.1767 -1.4588  0.4665
18993TIP3    H278395   4.606   0.190   5.562 -0.6191  0.5517  0.8632
18994TIP3   OH278396   5.526   2.155   3.434  0.3105  0.2204  0.0472
18994TIP3    H178397   5.579   2.227   3.470 -1.1009 -0.0043  2.8364
18994TIP3    H278398   5.436   2.177   3.459 -0.5060 -1.1334 -1.5284
18995TIP3   OH278399   4.561   1.914  13.179 -0.3240 -0.4705 -0.2943
18995TIP3    H178400   4.519   1.994  13.149  1.6995  1.0729  0.7456
18995TIP3    H278401   4.567   1.859  13.100 -2.9282 -0.2250 -0.7514
18996TIP3   OH278402   6.362   5.907   6.329  0.3415  0.0339  0.3903
18996TIP3    H178403   6.390   5.936   6.415  0.2892 -0.7563  0.6825
18996TIP3    H278404   6.277   5.866   6.343 -0.0656  0.6597 -0.1775
18997TIP3   OH278405   3.529   6.187  14.171  0.2016 -0.4834  0.2767
18997TIP3    H178406   3.484   6.211  14.090  1.0370  0.6938  0.1421
18997TIP3    H278407   3.622   6.187  14.149  0.4200 -0.5480  1.1366
18998TIP3   OH278408   6.041   0.093   1.559  0.7886 -0.6039  0.2223
18998TIP3    H178409   6.112   0.030   1.574  1.5117  0.1468  0.0705
18998TIP3    H278410   6.062   0.132   1.474  1.7679  1.6083  1.3881
18999TIP3   OH278411   0.183   3.399   0.203 -0.7358  0.0154  0.6881
18999TIP3    H178412   0.168   3.486   0.240 -1.7089 -0.2841  1.0342
18999TIP3    H278413   0.260   3.409   0.148 -2.0195  1.6220 -0.9564
19000TIP3   OH278414   4.088   6.558   1.650  0.0738 -0.4031 -0.1867
19000TIP3    H178415   4.097   6.496   1.722  0.9964 -1.4510 -1.1733
19000TIP3    H278416   3.997   6.549   1.621 -0.4038  0.2677  1.0225
19001TIP3   OH278417   1.810   4.287  12.938  0.2880  0.0838  1.1884
19001TIP3    H178418   1.897   4.259  12.909  0.1164  0.2128  0.5403
19001TIP3    H278419   1.814   4.383  12.938 -0.6989  0.2286 -1.6246
19002TIP3   OH278420   3.455   0.090   2.966 -0.0718  0.4148 -0.1125
19002TIP3    H178421   3.370   0.080   2.924 -0.1973 -0.6035  0.3459
19002TIP3    H278422   3.517   0.049   2.905  0.2825  2.1420 -0.9792
19003TIP3   OH278423   5.966   1.930  14.240  0.1316 -0.3801  0.1427
19003TIP3    H178424   5.871   1.932  14.244  0.1442 -0.2794  0.4387
19003TIP3    H278425   5.992   2.019  14.217  0.1368 -0.5279 -0.4477
19004TIP3   OH278426   2.034   2.598   1.983  0.4335 -0.5051 -0.0586
19004TIP3    H178427   2.018   2.689   1.957  0.0736 -0.5812 -0.1039
19004TIP3    H278428   2.112   2.603   2.038  0.9984 -0.2915 -0.8422
19005TIP3   OH278429   4.857   2.016   2.351  0.2476 -0.0241  0.4437
19005TIP3    H178430   4.876   1.935   2.304 -0.2579  0.9282 -1.4945
19005TIP3    H278431   4.771   2.043   2.320  0.8295  1.7592  0.2865
19006TIP3   OH278432   5.484   1.284  14.611 -0.0738 -0.3890 -0.5725
19006TIP3    H178433   5.514   1.204  14.568 -2.0806 -0.7959 -1.3250
19006TIP3    H278434   5.525   1.281  14.698 -0.9183 -2.7821 -0.1799
19007TIP3   OH278435   1.182   5.857  13.221  0.2653  0.9336  0.8114
19007TIP3    H178436   1.112   5.792  13.231  1.3077 -0.5805 -1.0211
19007TIP3    H278437   1.149   5.915  13.152  0.1873  1.1052  0.9947
19008TIP3   OH278438   3.322   4.916   5.171  0.0686  0.0853  0.0649
19008TIP3    H178439   3.331   4.823   5.153 -1.6909 -0.2273  0.5932
19008TIP3    H278440   3.387   4.934   5.238  1.0493 -0.5387 -0.6891
19009TIP3   OH278441   4.294   2.291   1.705  0.2070 -0.3978 -0.0026
19009TIP3    H178442   4.268   2.272   1.615 -0.6971  1.3964 -0.1839
19009TIP3    H278443   4.236   2.238   1.759 -2.0609  1.4589 -0.4645
19010TIP3   OH278444   2.867   3.181   0.373 -0.5797  0.7393 -0.3593
19010TIP3    H178445   2.923   3.109   0.346 -0.2861  0.7200  0.2891
19010TIP3    H278446   2.919   3.230   0.437 -2.2727 -0.9037  2.4682
19011TIP3   OH278447   5.893   1.300  17.213 -0.2867 -0.3508 -0.1548
19011TIP3    H178448   5.878   1.229  17.151 -0.5603 -0.9297  0.5640
19011TIP3    H278449   5.858   1.268  17.296 -0.5536  0.6809  0.1508
19012TIP3   OH278450   0.814   3.247  15.521  0.0732  0.1905 -0.1545
19012TIP3    H178451   0.784   3.311  15.586  2.1907  1.9450 -0.8080
19012TIP3    H278452   0.734   3.221  15.475 -1.2894 -0.0356  2.1393
19013TIP3   OH278453   1.701   5.785  13.077 -0.1301 -0.1476 -0.1447
19013TIP3    H178454   1.733   5.720  13.140 -0.6182 -1.3956 -1.1337
19013TIP3    H278455   1.684   5.735  12.997  2.1846  1.6628 -1.9222
19014TIP3   OH278456   1.165   0.652   0.315  0.2581  0.7541  0.1389
19014TIP3    H178457   1.240   0.592   0.317 -0.3740 -0.1347 -1.2306
19014TIP3    H278458   1.123   0.642   0.400 -0.4398 -1.5947 -0.4132
19015TIP3   OH278459   3.219   3.461   5.900 -0.0759  0.1011  0.1444
19015TIP3    H178460   3.152   3.496   5.958 -1.3536 -1.0293 -0.5816
19015TIP3    H278461   3.286   3.529   5.896 -1.1680  1.2526  0.9171
19016TIP3   OH278462   4.842   1.870   6.472  0.1139  0.3705  0.2339
19016TIP3    H178463   4.900   1.875   6.548  3.6487  0.2075 -2.2224
19016TIP3    H278464   4.832   1.961   6.444  1.7831  0.2170 -1.0323
19017TIP3   OH278465   6.257   1.056   0.323  0.4554  0.3239 -0.3225
19017TIP3    H178466   6.284   1.090   0.238 -1.9759  1.0776 -0.8909
19017TIP3    H278467   6.294   1.118   0.386 -0.5073  1.7511 -1.0989
19018TIP3   OH278468   1.714   6.493  16.202  0.2071 -0.2732  0.2091
19018TIP3    H178469   1.796   6.482  16.153  0.9365  0.2582  1.2901
19018TIP3    H278470   1.686   6.403  16.220  0.8281 -0.4589  0.2813
19019TIP3   OH278471   4.457   0.503  15.790  0.0328 -0.4208 -0.3596
19019TIP3    H178472   4.476   0.432  15.729  0.1807 -0.2127 -0.5543
19019TIP3    H278473   4.366   0.488  15.817  1.1667 -3.0205  2.6490
19020TIP3   OH278474   6.561   5.804   1.654  0.2597  0.0974  0.4959
19020TIP3    H178475   6.548   5.861   1.729  1.4871 -0.5938  1.2701
19020TIP3    H278476   6.620   5.854   1.597  0.7758 -0.1041  0.8470
19021TIP3   OH278477   5.536   4.003  10.956 -0.0690  0.1371  0.4836
19021TIP3    H178478   5.510   3.948  11.030  0.2806 -0.1174  0.4233
19021TIP3    H278479   5.501   4.089  10.977  3.2117  1.1134  2.8963
19022TIP3   OH278480   4.915   5.768   6.606  0.0207 -0.1352  0.8609
19022TIP3    H178481   4.841   5.809   6.652 -0.8027 -0.6397  0.0117
19022TIP3    H278482   4.903   5.674   6.620  0.5687 -0.2199  0.7961
19023TIP3   OH278483   3.865   5.196   0.094  0.4577  0.0009  0.1540
19023TIP3    H178484   3.916   5.275   0.075  0.9367 -0.6860 -1.6016
19023TIP3    H278485   3.833   5.167   0.009 -0.2387 -1.3573  0.8477
19024TIP3   OH278486   4.215   3.453   5.142 -0.0409  0.1210  0.1490
19024TIP3    H178487   4.284   3.435   5.205 -0.4698  0.3832  0.6957
19024TIP3    H278488   4.177   3.368   5.121  0.0586  0.0406  0.2988
19025TIP3   OH278489   0.927   2.222   4.958  0.0911 -0.3960 -0.0570
19025TIP3    H178490   0.879   2.145   4.926 -1.1629  0.2395  0.2156
19025TIP3    H278491   0.934   2.208   5.053 -1.0672  0.2882  0.1501
19026TIP3   OH278492   0.773   2.663   0.440 -0.8075 -0.2021 -0.4942
19026TIP3    H178493   0.762   2.756   0.420  0.2458 -0.2795 -1.4932
19026TIP3    H278494   0.780   2.620   0.355 -0.6178 -1.1188 -0.0349
19027TIP3   OH278495   3.628   1.207  13.014 -0.1176 -0.1164 -0.0686
19027TIP3    H178496   3.563   1.243  12.954 -0.9643 -0.4395  0.6344
19027TIP3    H278497   3.682   1.282  13.039  0.1712  0.0444 -1.1252
19028TIP3   OH278498   0.909   4.693   2.976 -0.4588 -0.3268 -0.4422
19028TIP3    H178499   0.832   4.657   2.933 -0.6133 -2.3146  1.3525
19028TIP3    H278500   0.884   4.702   3.068  1.4343 -1.1053  0.2127
19029TIP3   OH278501   3.341   3.337  15.374  0.4104  0.1659 -0.1923
19029TIP3    H178502   3.272   3.403  15.365 -0.3070 -0.2679  1.7557
19029TIP3    H278503   3.294   3.255  15.393  1.4173 -0.3211  0.2816
19030TIP3   OH278504   5.059   0.212  16.678  0.1488 -0.0128 -0.4175
19030TIP3    H178505   5.086   0.125  16.711  0.6661  0.1467 -0.4111
19030TIP3    H278506   4.982   0.234  16.731 -0.3405 -0.7179 -0.8109
19031TIP3   OH278507   6.755   2.377  15.041 -0.1556 -0.2052  0.0382
19031TIP3    H178508   6.779   2.456  14.994 -2.8674  0.8802  0.3041
19031TIP3    H278509   6.722   2.318  14.974  2.0680 -1.2987 -0.1919
19032TIP3   OH278510   4.620   1.280   0.683  0.3134 -0.1644  0.0507
19032TIP3    H178511   4.533   1.260   0.651  0.0799  0.7973  0.0709
19032TIP3    H278512   4.660   1.194   0.700 -1.0118 -0.6055  1.0807
19033TIP3   OH278513   2.094   2.138  13.450  0.3077  0.3847 -0.0168
19033TIP3    H178514   2.087   2.143  13.545  0.8381 -0.8863  0.1089
19033TIP3    H278515   2.084   2.044  13.430  2.8486  0.2461 -0.9711
19034TIP3   OH278516   2.907   6.644  13.079  0.2215 -0.6366  0.4744
19034TIP3    H178517   2.981   6.587  13.102 -0.5223 -2.6085 -1.7368
19034TIP3    H278518   2.939   6.697  13.006 -0.3412 -1.0250 -0.0571
19035TIP3   OH278519   0.402   5.310  11.466 -0.1918  0.7556  0.1191
19035TIP3    H178520   0.477   5.264  11.426 -0.8021  1.2122 -1.6295
19035TIP3    H278521   0.438   5.394  11.493 -0.3487  1.6017 -2.1168
19036TIP3   OH278522   0.724   3.058   0.080 -0.0357  0.8648  0.3021
19036TIP3    H178523   0.647   3.102   0.046 -0.1057 -0.3809 -1.2862
19036TIP3    H278524   0.790   3.067   0.011 -0.1326 -1.6144 -0.2421
19037TIP3   OH278525   3.379   0.412   3.286  0.3652 -0.3309  0.0781
19037TIP3    H178526   3.431   0.481   3.326 -0.7694 -0.0585  1.1715
19037TIP3    H278527   3.443   0.348   3.253  1.4325  1.2229 -0.9681
19038TIP3   OH278528   0.212   2.680  15.091 -0.1766 -0.3972  0.3919
19038TIP3    H178529   0.274   2.735  15.042 -1.1016  2.5274  2.2764
19038TIP3    H278530   0.149   2.651  15.025  0.7655  0.2041 -0.8140
19039TIP3   OH278531   6.731   6.188   3.053  0.3498 -0.8402 -0.0124
19039TIP3    H178532   6.801   6.247   3.024  0.3350 -0.2738  1.0474
19039TIP3    H278533   6.701   6.226   3.136 -1.0891 -1.1774 -0.3489
19040TIP3   OH278534   0.013   0.565   2.007 -0.3005  0.2107  0.1142
19040TIP3    H178535   0.003   0.617   2.087  0.2979 -2.2181  1.8805
19040TIP3    H278536  -0.072   0.525   1.992 -0.1122 -0.2342  0.2112
19041TIP3   OH278537   3.000   2.852   1.843  0.5001  0.3795 -0.2742
19041TIP3    H178538   2.938   2.924   1.827  0.5925  1.2435  2.6846
19041TIP3    H278539   2.971   2.782   1.785 -2.3699  1.2757 -0.0841
19042TIP3   OH278540   6.029   5.352   6.775 -0.2922 -0.1018  0.2812
19042TIP3    H178541   6.076   5.279   6.815 -0.3884 -0.1169  0.3680
19042TIP3    H278542   6.088   5.427   6.784  0.9257 -0.6847 -2.0848
19043TIP3   OH278543   3.775   6.120  14.453  0.3156  0.6091  0.3049
19043TIP3    H178544   3.786   6.147  14.362 -2.1687  0.2784 -0.1770
19043TIP3    H278545   3.782   6.201  14.504  0.2105  1.0290 -0.3435
19044TIP3   OH278546   6.121   5.277  16.067 -0.9576  0.0112  0.0754
19044TIP3    H178547   6.111   5.316  16.154  0.1174  0.1710  0.1391
19044TIP3    H278548   6.158   5.347  16.013 -5.7486  1.5159 -1.8089
19045TIP3   OH278549   0.566   1.759   5.894  0.5741  0.1652  0.5265
19045TIP3    H178550   0.519   1.793   5.970  0.5640 -0.0804  0.6306
19045TIP3    H278551   0.619   1.833   5.864 -0.8762  0.8746 -0.4130
19046TIP3   OH278552   2.086   1.020  12.110 -0.2640  0.1497  0.5240
19046TIP3    H178553   2.021   1.066  12.164 -1.4367  1.2161 -1.6390
19046TIP3    H278554   2.033   0.970  12.047  1.0376 -0.4108 -0.1538
19047TIP3   OH278555   5.173   0.026   2.797  0.2720 -0.9943 -0.0374
19047TIP3    H178556   5.210  -0.046   2.848  0.5351  0.1597  1.4762
19047TIP3    H278557   5.158   0.096   2.861 -1.0807 -0.1071 -1.2465
19048TIP3   OH278558   4.144   3.363   1.872 -0.4969 -0.3913  0.6844
19048TIP3    H178559   4.193   3.289   1.908  0.2893  0.2352  0.9334
19048TIP3    H278560   4.062   3.365   1.922 -0.1891 -0.6179  1.2043
19049TIP3   OH278561   4.690   3.661  13.603 -0.7463 -0.1935  0.1784
19049TIP3    H178562   4.647   3.736  13.561 -0.1436  0.1043  0.0809
19049TIP3    H278563   4.776   3.657  13.562 -0.1396  0.0951  1.3748
19050TIP3   OH278564   2.349   2.584  13.922 -0.0202 -0.8302  0.2577
19050TIP3    H178565   2.348   2.672  13.884  0.4361 -0.1566  1.6977
19050TIP3    H278566   2.319   2.597  14.012  1.3781 -1.9103  0.9324
19051TIP3   OH278567   3.940   2.914   3.967  0.0870  0.3214 -0.4702
19051TIP3    H178568   3.889   2.836   3.991 -1.8718  1.8738  0.7835
19051TIP3    H278569   3.955   2.959   4.050  1.4559  1.1385 -1.1351
19052TIP3   OH278570   2.840   0.602   4.648 -0.6608 -0.0397 -0.6705
19052TIP3    H178571   2.792   0.655   4.712 -2.4442 -0.6871 -1.4148
19052TIP3    H278572   2.831   0.650   4.566  1.9120  0.9720 -0.4639
19053TIP3   OH278573   5.872   4.071   0.790  0.2527  0.5066 -0.4874
19053TIP3    H178574   5.799   4.126   0.818 -0.3725 -0.2327 -0.6144
19053TIP3    H278575   5.946   4.131   0.781 -0.4495  1.3521 -0.7977
19054TIP3   OH278576   6.483   0.272   6.799  0.1686  0.8403  0.3768
19054TIP3    H178577   6.525   0.302   6.880  1.2944 -0.9363  0.5186
19054TIP3    H278578   6.396   0.313   6.800  0.9067  2.4734  1.4399
19055TIP3   OH278579   5.799   0.928   4.886 -0.4813 -0.6142  0.7648
19055TIP3    H178580   5.843   0.866   4.828  0.0512  0.1903  0.2841
19055TIP3    H278581   5.800   0.886   4.972  0.1440 -1.1334  0.5144
19056TIP3   OH278582   5.972   3.297  11.489  0.3184 -0.1935 -0.0373
19056TIP3    H178583   5.917   3.249  11.551 -1.3461  0.9241 -0.6128
19056TIP3    H278584   6.038   3.339  11.544  1.1522 -2.1811  0.5814
19057TIP3   OH278585   4.916   1.534  16.526 -0.8938  0.7212 -0.1335
19057TIP3    H178586   4.854   1.519  16.454 -2.7226  0.3611  1.4471
19057TIP3    H278587   4.944   1.447  16.552 -2.1284  0.6533  1.1169
19058TIP3   OH278588   5.849   3.667  15.867  0.4354 -0.4233  0.8396
19058TIP3    H178589   5.935   3.709  15.867  0.1966  0.0768  0.5853
19058TIP3    H278590   5.867   3.574  15.882  0.9523 -0.1971  1.7228
19059TIP3   OH278591   5.359   6.359  13.645  0.1838 -0.1489  0.0730
19059TIP3    H178592   5.363   6.452  13.670  2.2343 -0.6799  2.0636
19059TIP3    H278593   5.279   6.327  13.688 -0.1181  0.5034  0.0219
19060TIP3   OH278594   2.731   2.657  16.283  0.7167  0.0885  0.0811
19060TIP3    H178595   2.670   2.681  16.353 -0.0399  1.7971 -1.0908
19060TIP3    H278596   2.693   2.578  16.244  0.4827 -0.1594  0.7976
19061TIP3   OH278597   3.558   1.994  11.894 -0.4658  0.4537 -0.1157
19061TIP3    H178598   3.607   2.047  11.957  0.2317  2.2498 -2.0577
19061TIP3    H278599   3.482   1.961  11.943  0.5358  0.9784  1.8728
19062TIP3   OH278600   6.331   2.938  17.288 -0.4526  0.7622 -0.7476
19062TIP3    H178601   6.281   3.019  17.286 -0.7726  0.5807 -0.3042
19062TIP3    H278602   6.266   2.869  17.279 -0.1465  0.5636 -1.4763
19063TIP3   OH278603   2.506   4.983   4.961  0.2669 -0.1402 -0.6177
19063TIP3    H178604   2.602   4.982   4.967  0.3538 -1.1357 -1.7481
19063TIP3    H278605   2.478   5.046   5.028  1.6545 -0.4999  0.3370
19064TIP3   OH278606   5.618   5.668   4.537  0.2268 -0.0477  0.5957
19064TIP3    H178607   5.552   5.617   4.583  0.1230 -0.8746 -0.4454
19064TIP3    H278608   5.692   5.672   4.598  0.8947 -2.9135  0.0909
19065TIP3   OH278609   2.862   4.054   0.287 -0.2767 -0.1686 -0.1001
19065TIP3    H178610   2.924   4.122   0.258 -0.1997 -0.1344  0.1476
19065TIP3    H278611   2.841   4.006   0.207 -0.6153  0.3803 -0.3434
19066TIP3   OH278612   5.450   1.114   3.906  0.3194 -0.3731 -0.0729
19066TIP3    H178613   5.426   1.025   3.934  0.6329 -0.0237  1.3510
19066TIP3    H278614   5.367   1.162   3.904  0.0940 -0.7599 -1.2030
19067TIP3   OH278615   1.497   4.262  11.321  0.0671  0.0755  0.1548
19067TIP3    H178616   1.570   4.233  11.267 -0.7497 -0.6067 -0.6322
19067TIP3    H278617   1.508   4.357  11.327  1.5153 -0.1117  0.8418
19068TIP3   OH278618   1.901   2.299  16.227 -0.6427 -0.3735  0.2257
19068TIP3    H178619   1.869   2.267  16.312 -1.1265 -1.1399 -0.2377
19068TIP3    H278620   1.833   2.274  16.165 -0.1756 -0.0262 -0.4339
19069TIP3   OH278621   4.166   5.732  12.585 -0.2385  0.4752 -0.6224
19069TIP3    H178622   4.246   5.680  12.598  0.2156  1.0859 -0.9453
19069TIP3    H278623   4.185   5.816  12.627 -0.5880  0.7370 -0.9816
19070TIP3   OH278624   3.247   5.043   1.719  0.0141 -0.1487 -0.4656
19070TIP3    H178625   3.160   5.008   1.739 -0.3765  1.2582  0.4701
19070TIP3    H278626   3.234   5.138   1.717  1.3722  0.0452 -1.1441
19071TIP3   OH278627   5.450   5.951  14.981  0.5437  0.0534 -0.3580
19071TIP3    H178628   5.542   5.975  14.989  0.9926 -2.0707  2.3365
19071TIP3    H278629   5.421   5.935  15.071 -1.5716 -2.2740 -1.3321
19072TIP3   OH278630   3.212   1.994   2.760  0.1305  0.8866 -0.0001
19072TIP3    H178631   3.223   2.087   2.743  0.5281  0.6123 -1.3832
19072TIP3    H278632   3.220   1.985   2.855  2.0780  2.0077 -0.0107
19073TIP3   OH278633   2.139   6.713   3.458 -0.4130 -0.4162 -0.2232
19073TIP3    H178634   2.060   6.691   3.408 -1.3918  1.6021  0.3081
19073TIP3    H278635   2.178   6.785   3.409  1.6672 -1.9386 -0.9552
19074TIP3   OH278636   1.904   0.804  12.634  0.2539  0.4717  0.1072
19074TIP3    H178637   1.905   0.896  12.610  0.9271  0.6022  0.6014
19074TIP3    H278638   1.917   0.804  12.729 -0.6489 -0.0983  0.2423
19075TIP3   OH278639   2.538   1.868   3.887  0.2535 -0.0935 -0.5566
19075TIP3    H178640   2.616   1.911   3.851 -0.0766  0.8688 -0.1491
19075TIP3    H278641   2.469   1.885   3.823  0.1472 -0.1256 -0.4515
19076TIP3   OH278642   2.310   1.453   5.453 -0.0472 -0.2533 -0.5431
19076TIP3    H178643   2.330   1.362   5.435  0.9535 -0.0905 -0.3626
19076TIP3    H278644   2.382   1.502   5.412  1.3581  0.2246  2.1869
19077TIP3   OH278645   4.554   0.307  15.623  0.9365  0.1220  0.1291
19077TIP3    H178646   4.630   0.363  15.641 -0.2284  1.8030  0.0474
19077TIP3    H278647   4.591   0.219  15.614  2.6660  0.6022  1.8136
19078TIP3   OH278648   4.086   1.685   2.382  0.3360  0.0517 -0.5530
19078TIP3    H178649   4.097   1.680   2.477 -0.0152  0.5322 -0.4825
19078TIP3    H278650   4.175   1.698   2.348  0.7682 -2.2478 -0.4708
19079TIP3   OH278651   1.238   2.831   6.347 -0.3237  0.4237 -0.6121
19079TIP3    H178652   1.159   2.778   6.344 -0.8664  1.0332  1.2909
19079TIP3    H278653   1.287   2.805   6.269 -1.7949 -0.8931 -1.1613
19080TIP3   OH278654   1.148   2.382  13.804 -0.4517  0.3495  0.4751
19080TIP3    H178655   1.196   2.464  13.798 -0.1508  0.1419 -0.0469
19080TIP3    H278656   1.115   2.367  13.716  0.2475 -0.5355  0.3484
19081TIP3   OH278657   2.972   6.665   4.026  0.1238 -0.1081 -0.2648
19081TIP3    H178658   2.934   6.631   3.946  0.0757  0.5562 -0.5309
19081TIP3    H278659   3.042   6.603   4.048 -0.3559 -0.7059 -0.3982
19082TIP3   OH278660   4.846   5.230  13.188  0.0911 -0.6187  0.3871
19082TIP3    H178661   4.838   5.298  13.254 -1.9298 -0.2824 -0.1302
19082TIP3    H278662   4.880   5.275  13.110 -1.6663 -0.0550 -0.0917
19083TIP3   OH278663   3.964   6.336   2.358 -0.7901  0.1638 -0.1276
19083TIP3    H178664   3.963   6.249   2.396 -1.0171 -0.4542 -1.4822
19083TIP3    H278665   3.939   6.323   2.267  1.9133  1.2652 -1.1499
19084TIP3   OH278666   3.105   4.679  17.323  0.2385  0.1733 -0.1679
19084TIP3    H178667   3.084   4.736  17.249  0.4903 -0.3488 -0.6464
19084TIP3    H278668   3.169   4.729  17.374 -1.2404  1.2886  0.6771
19085TIP3   OH278669   5.668   3.521   1.870  0.0250  0.6038 -0.4216
19085TIP3    H178670   5.661   3.615   1.853  1.1301  0.0821 -4.7134
19085TIP3    H278671   5.719   3.516   1.951 -0.0617  3.6627 -0.0291
19086TIP3   OH278672   2.422   3.399   2.725  0.1956 -0.8937 -0.8451
19086TIP3    H178673   2.447   3.313   2.692 -0.2486  0.3752 -5.1701
19086TIP3    H278674   2.397   3.448   2.647 -0.0006  3.0646  1.4198
19087TIP3   OH278675   4.119   3.651   4.759 -0.2590  0.1703  0.5932
19087TIP3    H178676   4.085   3.586   4.697  0.5675 -0.3824  0.7048
19087TIP3    H278677   4.214   3.641   4.754 -0.1345  1.0419  0.9768
19088TIP3   OH278678   5.291   4.821   5.043  0.2274  0.2465 -0.4837
19088TIP3    H178679   5.251   4.880   5.107  1.1169 -0.8881  1.1896
19088TIP3    H278680   5.375   4.863   5.021  2.0437 -1.3987  2.5831
19089TIP3   OH278681   3.630   1.367   0.930  0.4198 -0.5850 -0.7446
19089TIP3    H178682   3.600   1.368   1.021  3.3568  0.4350  0.3223
19089TIP3    H278683   3.559   1.407   0.881 -1.1320 -0.9202  1.1138
19090TIP3   OH278684   0.337   5.984  16.246 -0.1988  0.4039  0.6895
19090TIP3    H178685   0.409   5.967  16.185  0.1726 -0.6163  1.3840
19090TIP3    H278686   0.265   6.012  16.191  1.2596  3.4446  0.1038
19091TIP3   OH278687   0.199   1.116  16.709  0.1457  0.3119  0.0959
19091TIP3    H178688   0.288   1.080  16.710 -0.3857 -1.2681  3.3959
19091TIP3    H278689   0.146   1.047  16.670  0.1182  0.6150 -0.4171
19092TIP3   OH278690   1.137   4.920   1.679  0.1625 -0.2058  0.1985
19092TIP3    H178691   1.127   4.980   1.753 -0.4597  0.0546 -0.0858
19092TIP3    H278692   1.136   4.833   1.718  0.0060 -0.0634  0.5117
19093TIP3   OH278693   0.125   2.999  13.426  0.8316  0.0840  0.5062
19093TIP3    H178694   0.131   2.924  13.368  0.5113  0.6005 -0.2031
19093TIP3    H278695   0.213   3.007  13.464  1.6670  1.0021 -1.4950
19094TIP3   OH278696   5.774   5.159   1.080  0.3765 -0.1138  0.8087
19094TIP3    H178697   5.759   5.076   1.035  2.9919 -0.9382  1.2834
19094TIP3    H278698   5.805   5.134   1.167 -0.3715  1.4080  1.5472
19095TIP3   OH278699   5.922   2.097   3.640  0.1724  0.3482  0.5265
19095TIP3    H178700   5.865   2.036   3.592 -0.3896 -0.6078  2.3180
19095TIP3    H278701   5.974   2.139   3.572 -0.8258 -0.6901 -0.9499
19096TIP3   OH278702   2.576   6.319  12.602 -0.0936 -0.5001 -0.3301
19096TIP3    H178703   2.494   6.367  12.614 -0.4968 -0.9279 -1.2173
19096TIP3    H278704   2.572   6.288  12.511  0.6605 -1.2570 -0.1224
19097TIP3   OH278705   5.671   0.745   3.990 -0.0434 -0.1674 -0.0663
19097TIP3    H178706   5.749   0.775   4.038 -1.2245  2.1431  0.5628
19097TIP3    H278707   5.598   0.768   4.047 -1.2976 -0.6807 -1.4217
19098TIP3   OH278708   2.590   6.519  15.200  0.1475  0.0843  0.6375
19098TIP3    H178709   2.508   6.485  15.163  0.0144 -0.3272  1.2971
19098TIP3    H278710   2.570   6.536  15.292  0.8925 -0.3311  0.8854
19099TIP3   OH278711   5.138   3.046  15.914  0.4365  0.3305  0.8773
19099TIP3    H178712   5.213   3.002  15.873 -0.1617 -0.0153  0.1335
19099TIP3    H278713   5.124   3.124  15.860 -0.1471  0.0502  0.6251
19100TIP3   OH278714   1.532   5.366   1.920  0.5288  0.1491  0.5265
19100TIP3    H178715   1.519   5.387   1.828 -0.5707 -0.4506  0.5371
19100TIP3    H278716   1.506   5.275   1.929 -0.7761  0.5896  1.6949
19101TIP3   OH278717   6.144   1.866  15.723  0.1574  0.3820  0.0247
19101TIP3    H178718   6.219   1.815  15.755 -0.0407  0.3078  0.3748
19101TIP3    H278719   6.072   1.803  15.720 -0.9865  1.2511  3.6106
19102TIP3   OH278720   4.456   3.127   3.480 -0.8929  1.4692 -0.2881
19102TIP3    H178721   4.404   3.137   3.560 -1.5396 -0.3125 -0.4420
19102TIP3    H278722   4.520   3.198   3.484  0.5076  0.2502  2.9209
19103TIP3   OH278723   0.728   5.810   4.697 -0.1028 -0.3717  0.4905
19103TIP3    H178724   0.719   5.883   4.635 -1.7639 -0.9754 -0.0065
19103TIP3    H278725   0.688   5.842   4.778  1.0105 -0.0212  0.9346
19104TIP3   OH278726   1.560   0.315  16.479 -0.0921  0.0033 -0.0844
19104TIP3    H178727   1.521   0.386  16.530 -0.9825 -0.9195  0.5642
19104TIP3    H278728   1.595   0.255  16.544  0.0876 -0.4593 -0.5998
19105TIP3   OH278729   3.529   5.052   1.739  0.3435  0.0567 -0.1812
19105TIP3    H178730   3.590   4.982   1.714 -0.3091 -1.1245  1.3249
19105TIP3    H278731   3.443   5.011   1.736  0.0145  0.5615  1.4213
19106TIP3   OH278732   5.532   2.567   4.648  0.4527 -0.2832  0.2435
19106TIP3    H178733   5.522   2.661   4.664 -0.0483  0.1935 -2.4101
19106TIP3    H278734   5.614   2.544   4.691  0.8838  1.5036  0.4608
19107TIP3   OH278735   5.809   2.305  15.226 -0.4381 -0.4844  0.2601
19107TIP3    H178736   5.820   2.249  15.303  0.7267 -1.8988 -0.9044
19107TIP3    H278737   5.784   2.246  15.155  0.9276  0.4320 -1.0352
19108TIP3   OH278738   6.664   5.304   2.634 -0.0623  0.0462  0.1932
19108TIP3    H178739   6.691   5.350   2.714 -2.0540  0.1979  0.8368
19108TIP3    H278740   6.704   5.217   2.642 -1.1884 -0.3614  1.9848
19109TIP3   OH278741   3.591   4.320   1.485 -0.1960  0.3718 -0.1219
19109TIP3    H178742   3.603   4.325   1.390  0.5980  0.8995  0.0027
19109TIP3    H278743   3.536   4.243   1.498  2.9090 -2.1518 -0.7308
19110TIP3   OH278744   4.535   0.794  13.261 -0.1140 -0.7253  0.4939
19110TIP3    H178745   4.522   0.843  13.342  1.6085 -0.9210  0.9176
19110TIP3    H278746   4.503   0.853  13.192 -0.8114 -0.2227  1.2332
19111TIP3   OH278747   5.062   3.085   1.375  0.5906 -0.1402  0.6789
19111TIP3    H178748   5.056   3.145   1.449  2.1933  0.5327  0.3031
19111TIP3    H278749   5.155   3.085   1.352  0.0800  0.0079 -1.5905
19112TIP3   OH278750   0.373   3.578  10.235 -0.4042 -0.1176  0.7795
19112TIP3    H178751   0.286   3.569  10.272 -1.0170  1.8175 -0.0543
19112TIP3    H278752   0.399   3.668  10.255  0.8036 -0.2083 -0.2254
19113TIP3   OH278753   2.052   1.093  14.777  0.5129 -0.0573  0.3876
19113TIP3    H178754   2.086   1.012  14.815 -0.1015 -0.2969  0.4249
19113TIP3    H278755   2.127   1.129  14.728  0.7369 -0.7287  0.2278
19114TIP3   OH278756   6.208   0.005   1.901  0.0276  0.1165  0.2381
19114TIP3    H178757   6.129  -0.045   1.879  0.7758 -0.7933 -0.4916
19114TIP3    H278758   6.239  -0.032   1.983 -0.5461  0.7825  0.7618
19115TIP3   OH278759   6.423   0.528  12.285  0.0180 -0.6698 -0.1136
19115TIP3    H178760   6.424   0.623  12.284 -1.0969 -0.6294  0.2289
19115TIP3    H278761   6.443   0.502  12.195  1.6661 -0.1701  0.0781
19116TIP3   OH278762   5.632   5.096   5.584  0.8019  0.1159 -0.3264
19116TIP3    H178763   5.623   5.125   5.494  1.6853 -1.7956 -1.0749
19116TIP3    H278764   5.726   5.095   5.600  0.7518 -1.3338 -0.0219
19117TIP3   OH278765   4.150   6.472  15.083  0.0369 -0.5334 -0.9190
19117TIP3    H178766   4.222   6.436  15.032  0.4069 -1.3097  0.0999
19117TIP3    H278767   4.125   6.400  15.142 -2.0114 -0.5203 -1.6871
19118TIP3   OH278768   2.181   1.340  11.885  0.3525 -0.0257 -0.3670
19118TIP3    H178769   2.190   1.435  11.891  0.7157 -0.1539  3.1462
19118TIP3    H278770   2.089   1.323  11.903  0.4164 -0.3396 -0.3146
19119TIP3   OH278771   0.680   4.567  14.789  0.0953  0.5343  0.1242
19119TIP3    H178772   0.736   4.506  14.742  0.5127  0.5467  0.6051
19119TIP3    H278773   0.721   4.653  14.777  0.1408  0.5543  0.4127
19120TIP3   OH278774   4.110   5.914  15.836 -0.2132  0.0332 -0.2784
19120TIP3    H178775   4.181   5.851  15.850  1.3177  1.7731  0.2030
19120TIP3    H278776   4.114   5.972  15.912 -1.2692  1.0060 -0.9294
19121TIP3   OH278777   3.810   0.534  12.839  0.1103 -0.2186  0.0968
19121TIP3    H178778   3.778   0.624  12.834  1.3251  0.4496  2.6810
19121TIP3    H278779   3.741   0.482  12.799 -0.5641  1.8302 -1.5993
19122TIP3   OH278780   0.202   3.701  15.382 -0.1897 -0.2254 -0.0828
19122TIP3    H178781   0.230   3.781  15.426  0.4335 -1.0626  1.0829
19122TIP3    H278782   0.216   3.631  15.446  0.6132 -1.4718 -1.5229
19123TIP3   OH278783   6.168   6.139  12.859 -0.1436  0.0423  0.1764
19123TIP3    H178784   6.252   6.117  12.818 -0.2804 -2.0173  0.8522
19123TIP3    H278785   6.191   6.168  12.948 -0.1651 -2.3093  1.0206
19124TIP3   OH278786   4.981   6.383  16.274 -0.0917  0.3283  0.5073
19124TIP3    H178787   5.020   6.337  16.199 -1.6581  1.2818 -0.9665
19124TIP3    H278788   5.055   6.425  16.318  0.8899 -0.4530 -0.3571
19125TIP3   OH278789   3.168   5.159  11.262 -0.3335  0.3517  0.0242
19125TIP3    H178790   3.083   5.130  11.228 -0.4603  2.5059 -1.6653
19125TIP3    H278791   3.226   5.158  11.187  1.3310 -1.4173  1.2279
19126TIP3   OH278792   3.299   4.546   0.190  0.1045  0.3337 -0.7918
19126TIP3    H178793   3.321   4.624   0.138 -0.7230  2.2650  1.5467
19126TIP3    H278794   3.225   4.574   0.244 -0.3153 -2.1665  0.0379
19127TIP3   OH278795   0.178   3.500  10.421  0.0475 -0.5048  0.6855
19127TIP3    H178796   0.172   3.415  10.464  1.6198 -0.7471  0.4899
19127TIP3    H278797   0.147   3.563  10.487 -0.4704 -1.1562  1.0695
19128TIP3   OH278798   1.415   1.738   3.825 -0.5038 -0.3577 -0.5746
19128TIP3    H178799   1.397   1.826   3.857 -0.6908 -0.3962 -0.5745
19128TIP3    H278800   1.475   1.751   3.751 -1.1007 -0.1770 -1.0411
19129TIP3   OH278801   6.036   4.548  14.451 -0.6296 -0.4069  0.1442
19129TIP3    H178802   6.011   4.626  14.402  0.9301 -0.1044 -0.2515
19129TIP3    H278803   6.027   4.476  14.388 -0.4490 -0.2914 -0.0168
19130TIP3   OH278804   4.857   1.742   0.895  0.4707 -0.0183 -0.4085
19130TIP3    H178805   4.863   1.651   0.925 -2.3888 -0.5048 -0.9316
19130TIP3    H278806   4.930   1.753   0.834  1.4088 -1.6694  0.3653
19131TIP3   OH278807   5.353   5.447  14.151 -0.0269 -0.6006 -0.4691
19131TIP3    H178808   5.360   5.535  14.188 -1.6959 -0.7527  0.3095
19131TIP3    H278809   5.287   5.455  14.082 -0.2652 -1.2511 -0.3234
19132TIP3   OH278810   3.170   1.927  16.108  0.9931  0.5151 -0.3787
19132TIP3    H178811   3.117   1.964  16.179 -1.6418 -1.0573 -1.4098
19132TIP3    H278812   3.109   1.913  16.036  2.5161 -2.4831 -1.2549
19133TIP3   OH278813   1.707   5.637   3.082 -0.3054 -0.0116 -1.0584
19133TIP3    H178814   1.640   5.638   3.013 -0.4687 -0.6794 -0.9172
19133TIP3    H278815   1.730   5.729   3.095 -1.8925  0.3217 -0.4355
19134TIP3   OH278816   5.128   2.418  11.807  0.5063  0.2890  0.5171
19134TIP3    H178817   5.095   2.461  11.885 -0.5675 -0.8338  0.7336
19134TIP3    H278818   5.221   2.438  11.804  0.2392  1.6800  1.1803
19135TIP3   OH278819   5.989   6.138   2.562 -0.2387  0.1215 -0.0118
19135TIP3    H178820   5.959   6.052   2.591  0.5685 -0.3683 -0.5775
19135TIP3    H278821   5.940   6.200   2.616 -1.1815 -0.6735  0.0823
19136TIP3   OH278822   5.563   2.464   4.411  0.1836  0.1129 -0.5278
19136TIP3    H178823   5.556   2.489   4.503 -0.2430 -0.4738 -0.3928
19136TIP3    H278824   5.638   2.404   4.408  1.4092  1.6069 -0.9051
19137TIP3   OH278825   2.859   5.767   2.941 -0.3437 -0.6092  0.3796
19137TIP3    H178826   2.951   5.789   2.925 -0.4539 -0.8576 -0.6505
19137TIP3    H278827   2.821   5.847   2.975  0.2474 -0.4946  0.7874
19138TIP3   OH278828   6.683   6.735   3.720 -0.2522  0.3502 -0.2482
19138TIP3    H178829   6.645   6.686   3.647 -1.0930  0.3890  0.1472
19138TIP3    H278830   6.680   6.826   3.691  0.4489  0.2641 -0.6081
19139TIP3   OH278831   4.041   0.277  12.290  0.2258  0.3332 -0.2982
19139TIP3    H178832   4.083   0.241  12.368 -0.0653 -0.8967 -0.6793
19139TIP3    H278833   4.024   0.368  12.312  0.7009  0.1712  0.8440
19140TIP3   OH278834   5.814   0.397  13.140  0.0027  0.2210  0.6914
19140TIP3    H178835   5.869   0.375  13.215  1.5088  0.2339 -0.3409
19140TIP3    H278836   5.839   0.486  13.117 -0.3132  0.1639  0.0883
19141TIP3   OH278837   5.043   5.190  11.936  0.0639 -0.0034 -0.0199
19141TIP3    H178838   5.108   5.122  11.955 -0.9976 -1.2999 -0.8065
19141TIP3    H278839   4.998   5.158  11.858 -0.0240  1.9650 -0.8386
19142TIP3   OH278840   1.159   1.141  13.696  0.3006 -0.2139  0.1978
19142TIP3    H178841   1.170   1.219  13.643  2.4292  0.4258  1.4332
19142TIP3    H278842   1.073   1.150  13.737  0.3017  1.2163 -0.0944
19143TIP3   OH278843   5.268   3.453   3.254  0.5308 -0.0911 -0.2628
19143TIP3    H178844   5.302   3.540   3.234  1.7604 -0.4593  0.1406
19143TIP3    H278845   5.266   3.408   3.170 -1.4434  0.7377 -0.7188
19144TIP3   OH278846   2.731   6.331   4.109  0.3731 -0.1255  0.9995
19144TIP3    H178847   2.698   6.329   4.199 -4.1313 -1.6329 -0.3803
19144TIP3    H278848   2.719   6.241   4.077  1.5213  0.4348 -1.2365
19145TIP3   OH278849   0.601   0.985  12.783  0.6273  0.0966  0.0419
19145TIP3    H178850   0.680   0.937  12.810 -0.5861 -1.8336  0.3174
19145TIP3    H278851   0.578   0.947  12.698  0.3897  1.1684 -0.3862
19146TIP3   OH278852   4.900   1.271  14.200 -0.1077 -0.0849  0.1086
19146TIP3    H178853   4.823   1.328  14.194  1.3373  1.8509 -1.2426
19146TIP3    H278854   4.907   1.230  14.114  1.2448  1.0514 -0.3697
19147TIP3   OH278855   3.850   3.670   1.168 -0.1290 -0.4216 -0.2904
19147TIP3    H178856   3.907   3.689   1.093 -2.1584  2.5671 -1.2539
19147TIP3    H278857   3.774   3.626   1.130  1.1451 -4.0534  0.9363
19148TIP3   OH278858   4.031   2.474  13.777  0.3187 -0.1572 -0.5775
19148TIP3    H178859   3.948   2.505  13.742 -0.2423 -1.5546 -0.5408
19148TIP3    H278860   4.024   2.379  13.776  1.0674 -0.2886  1.4449
19149TIP3   OH278861   1.340   2.192  13.524  0.4456  0.5727 -0.3446
19149TIP3    H178862   1.405   2.227  13.585 -0.0711 -0.0666  0.5921
19149TIP3    H278863   1.323   2.103  13.555  0.0972  0.2645 -1.3708
19150TIP3   OH278864   6.032   2.825  11.793  0.1674  0.3972 -0.3876
19150TIP3    H178865   5.964   2.759  11.805  0.0260  0.5528 -0.3269
19150TIP3    H278866   6.058   2.848  11.882 -0.6120  1.2728 -0.3700
19151TIP3   OH278867   6.747   1.057   3.262  0.2154  0.0933 -0.8829
19151TIP3    H178868   6.779   1.054   3.172  1.0783  0.8733 -0.6202
19151TIP3    H278869   6.826   1.067   3.315 -0.3122 -0.0007 -0.0696
19152TIP3   OH278870   2.064   1.313  16.709  0.2833 -0.7336  0.4092
19152TIP3    H178871   1.986   1.297  16.762  0.1175 -1.6422 -0.0808
19152TIP3    H278872   2.034   1.302  16.619  1.0637 -1.5590  0.2357
19153TIP3   OH278873   2.156   1.517   4.828  0.3449 -0.3931  0.0209
19153TIP3    H178874   2.065   1.492   4.842 -0.3505  1.4465 -0.8969
19153TIP3    H278875   2.165   1.521   4.732  1.1598  0.2262  0.1151
19154TIP3   OH278876   5.618   0.946   5.850  0.7597 -0.8390  0.5380
19154TIP3    H178877   5.581   0.866   5.888  2.4857 -1.4354  1.0373
19154TIP3    H278878   5.580   1.016   5.902 -0.4628 -1.3370  0.3610
19155TIP3   OH278879   3.126   0.860   1.206 -0.3050 -0.5988  0.2080
19155TIP3    H178880   3.220   0.858   1.186 -0.3219  1.7001 -0.4221
19155TIP3    H278881   3.105   0.770   1.232  2.2358 -0.9782  1.2605
19156TIP3   OH278882   1.612   3.406  14.687 -0.0855  0.1399  0.3085
19156TIP3    H178883   1.536   3.464  14.692 -1.0841 -1.2321  1.5611
19156TIP3    H278884   1.656   3.417  14.771 -1.7011 -2.7356  1.6341
19157TIP3   OH278885   4.855   1.500   2.105  0.3250 -0.1579 -0.8037
19157TIP3    H178886   4.831   1.576   2.053  0.7511  0.2560 -0.4129
19157TIP3    H278887   4.942   1.475   2.072  1.0620  0.7348  0.3588
19158TIP3   OH278888   1.738   4.177  15.909 -0.0583 -0.0222  0.3539
19158TIP3    H178889   1.713   4.189  16.001  0.3098 -1.2356  0.6441
19158TIP3    H278890   1.662   4.135  15.869  1.3073 -3.8069  1.2613
19159TIP3   OH278891   1.446   6.126  15.810  0.5266  0.3005  0.4949
19159TIP3    H178892   1.413   6.212  15.783  1.0594  0.6446  0.9283
19159TIP3    H278893   1.438   6.072  15.731 -0.9666  0.3913  0.5483
19160TIP3   OH278894   4.657   6.473  14.814 -0.2623 -0.3837 -0.4997
19160TIP3    H178895   4.565   6.447  14.814 -0.9585  1.9124 -0.2444
19160TIP3    H278896   4.669   6.524  14.894  1.4530 -1.2372 -0.1519
19161TIP3   OH278897   0.248   2.289  11.751  0.1830  0.0009 -0.4821
19161TIP3    H178898   0.261   2.341  11.672  0.6833  1.0501  0.2644
19161TIP3    H278899   0.154   2.293  11.768 -0.2098 -1.6543 -1.9336
19162TIP3   OH278900   2.026   6.313  12.388  0.6920  0.0535  0.3685
19162TIP3    H178901   1.940   6.272  12.400 -0.1246  1.7252  0.5856
19162TIP3    H278902   2.066   6.312  12.475 -0.7050  2.5360  1.1395
19163TIP3   OH278903   3.463   6.761  13.756  0.7050  0.3471 -0.4081
19163TIP3    H178904   3.406   6.833  13.731 -0.3372  0.0409  0.9288
19163TIP3    H278905   3.471   6.707  13.677 -2.8471 -0.8809 -0.1283
19164TIP3   OH278906   2.919   2.188   0.934  0.6566  0.1148  0.0833
19164TIP3    H178907   2.979   2.238   0.991  0.2137  3.0764 -1.8313
19164TIP3    H278908   2.899   2.248   0.862 -1.2863 -2.3332 -1.5726
19165TIP3   OH278909   0.380   0.479  12.862 -0.2004 -0.5895  0.5383
19165TIP3    H178910   0.440   0.414  12.826 -0.2601 -0.2377 -0.2153
19165TIP3    H278911   0.430   0.561  12.864 -0.0587 -0.6794  1.6691
19166TIP3   OH278912   2.131   3.921  11.177 -0.1171  0.4299  0.0304
19166TIP3    H178913   2.213   3.955  11.213 -0.2682 -0.0780  0.8820
19166TIP3    H278914   2.158   3.862  11.106  0.1453  2.3476 -1.5626
19167TIP3   OH278915   0.116   2.514  16.141  0.0585 -0.1715 -0.0297
19167TIP3    H178916   0.162   2.493  16.222  1.2183  0.3365 -0.5321
19167TIP3    H278917   0.024   2.521  16.166  0.0954 -2.1941  0.8284
19168TIP3   OH278918   0.886   6.646   5.682  0.2674  0.4443 -0.5660
19168TIP3    H178919   0.810   6.696   5.711 -1.6289 -1.7584 -1.4211
19168TIP3    H278920   0.943   6.641   5.759 -1.1158  0.9698  0.5273
19169TIP3   OH278921   4.096   3.127  11.267 -0.1288  0.1261  0.2676
19169TIP3    H178922   4.177   3.093  11.229  0.4973  2.6369 -0.8201
19169TIP3    H278923   4.031   3.114  11.198 -0.1328  0.1378  0.2697
19170TIP3   OH278924   6.476   1.222  14.867  0.2135 -0.2931 -0.6466
19170TIP3    H178925   6.406   1.246  14.927  2.5324  2.2909  1.3362
19170TIP3    H278926   6.481   1.294  14.805  2.3891  0.8003  0.6379
19171TIP3   OH278927   5.141   5.440  13.337 -0.3502 -0.2445  0.5675
19171TIP3    H178928   5.180   5.523  13.309 -0.0946 -0.1531  1.1750
19171TIP3    H278929   5.159   5.380  13.265 -0.0749  0.0928  0.3498
19172TIP3   OH278930   2.123   1.141  14.321 -0.7836 -0.2965  0.3382
19172TIP3    H178931   2.147   1.234  14.324 -2.3895  0.1243  1.2275
19172TIP3    H278932   2.027   1.141  14.320 -0.8043 -1.9458 -0.2252
19173TIP3   OH278933   4.276   5.008  12.717  0.4428  0.3019 -0.2549
19173TIP3    H178934   4.224   5.060  12.656 -1.0457 -2.2564 -1.3389
19173TIP3    H278935   4.340   5.069  12.753  0.2610  2.3329 -3.0768
19174TIP3   OH278936   4.925   6.089   5.986  0.1131  0.3198  0.1185
19174TIP3    H178937   4.998   6.106   6.047  1.5522  3.8236 -2.2372
19174TIP3    H278938   4.957   6.020   5.929  0.9188  0.6507  0.1526
19175TIP3   OH278939   2.339   2.490  15.899 -0.6798 -0.6125  0.4201
19175TIP3    H178940   2.312   2.541  15.975  0.3863 -0.4996  0.7493
19175TIP3    H278941   2.383   2.553  15.842 -1.5571 -0.6812 -0.3370
19176TIP3   OH278942   3.487   2.126  13.063  0.1968 -0.3880  0.4144
19176TIP3    H178943   3.439   2.188  13.118  0.4138 -0.1464  0.3335
19176TIP3    H278944   3.471   2.041  13.104  0.3043 -0.2195  0.8186
19177TIP3   OH278945   5.048   6.697   4.826  0.0912 -0.0027 -0.1745
19177TIP3    H178946   5.032   6.751   4.748  1.7985  1.0187  0.1520
19177TIP3    H278947   4.997   6.617   4.810  1.1260 -0.2404 -2.7932
19178TIP3   OH278948   5.606   6.423  11.389 -0.0418 -0.4281 -0.3643
19178TIP3    H178949   5.512   6.438  11.376 -0.1400 -0.2478  0.4835
19178TIP3    H278950   5.612   6.388  11.478  0.9922  2.8942  1.0264
19179TIP3   OH278951   6.340   3.072  10.690 -0.1085 -0.0884 -0.9540
19179TIP3    H178952   6.372   3.089  10.779 -0.1407  0.2549 -1.0054
19179TIP3    H278953   6.245   3.063  10.700  0.1032 -2.4647 -0.5935
19180TIP3   OH278954   1.503   2.917   3.117  0.0956 -0.4795  0.2085
19180TIP3    H178955   1.582   2.901   3.169  0.1724  0.3988  0.3854
19180TIP3    H278956   1.531   2.977   3.048 -0.3486 -0.3797  0.1078
19181TIP3   OH278957   3.782   0.737   6.196  0.3558  0.6748 -0.7482
19181TIP3    H178958   3.834   0.657   6.194  0.0900  0.3801  1.4900
19181TIP3    H278959   3.747   0.745   6.107  1.6462 -0.8202 -1.4433
19182TIP3   OH278960   6.420   2.870  14.876 -0.3622  0.1562 -0.1899
19182TIP3    H178961   6.403   2.883  14.783 -2.2499  1.4474  0.2571
19182TIP3    H278962   6.425   2.775  14.887 -1.0397 -0.0507 -1.4645
19183TIP3   OH278963   2.328   2.392  13.612 -0.1714  0.1883 -0.1092
19183TIP3    H178964   2.398   2.441  13.655  1.1186 -2.4093  0.9738
19183TIP3    H278965   2.257   2.456  13.601  2.3956  3.0101 -1.5560
19184TIP3   OH278966   6.176   0.849  15.550  0.0007  0.5520 -0.5469
19184TIP3    H178967   6.169   0.754  15.540 -1.9465  0.8059 -2.2001
19184TIP3    H278968   6.092   0.877  15.586  0.0729  1.7768 -1.2510
19185TIP3   OH278969   6.348   4.961  11.705  0.3565 -0.1097 -0.3300
19185TIP3    H178970   6.335   4.886  11.763  0.6092  0.4443  0.4531
19185TIP3    H278971   6.325   5.037  11.758  0.3959  0.3958 -1.0196
19186TIP3   OH278972   2.480   1.329   5.799  0.3697 -0.2633  0.0185
19186TIP3    H178973   2.390   1.332   5.833  0.0995 -0.4640 -0.6724
19186TIP3    H278974   2.534   1.333   5.878 -0.1713  2.2945  0.3650
19187TIP3   OH278975   1.239   5.406  17.121 -0.1505  0.4315  0.5355
19187TIP3    H178976   1.230   5.327  17.069  2.0664  1.2303 -1.2148
19187TIP3    H278977   1.149   5.438  17.132 -0.8222 -0.6351 -1.4032
19188TIP3   OH278978   0.742   4.607   0.416  0.5875  0.2150  0.5251
19188TIP3    H178979   0.649   4.621   0.399  0.5543 -0.0347  0.5011
19188TIP3    H278980   0.786   4.678   0.369  0.6463 -1.4963 -2.2854
19189TIP3   OH278981   3.022   2.161  17.164 -0.2048  0.2654 -0.1765
19189TIP3    H178982   2.932   2.133  17.179  0.2155 -0.8272  0.4074
19189TIP3    H278983   3.017   2.257  17.159 -1.3355  0.2381  0.2547
19190TIP3   OH278984   6.014   6.696  11.080 -0.1082 -0.4704 -0.0532
19190TIP3    H178985   5.928   6.706  11.119  0.1841  0.4207  0.3855
19190TIP3    H278986   6.068   6.658  11.150 -0.4254 -2.2763 -0.7175
19191TIP3   OH278987   5.032   6.318  12.306  0.4001  0.5059 -0.4829
19191TIP3    H178988   5.064   6.408  12.307  1.7045  0.0724  0.1086
19191TIP3    H278989   4.974   6.312  12.382 -0.3465  1.0502 -0.9995
19192TIP3   OH278990   4.012   0.885  12.598 -0.0404  0.8993  0.3942
19192TIP3    H178991   3.928   0.927  12.620 -0.1141  0.0440  1.9236
19192TIP3    H278992   3.988   0.813  12.541 -0.3557  0.7030  0.7653
19193TIP3   OH278993   3.262   1.686  15.134 -0.3639 -0.4902 -0.0698
19193TIP3    H178994   3.168   1.691  15.120 -0.2994  0.8256 -0.1840
19193TIP3    H278995   3.271   1.644  15.220 -1.0797 -0.0425  0.2325
19194TIP3   OH278996   5.506   4.447  15.879 -0.1748 -0.2373 -0.7004
19194TIP3    H178997   5.538   4.383  15.942  0.6199 -0.4503 -1.2953
19194TIP3    H278998   5.584   4.494  15.851 -0.7022  0.7694 -0.5318
19195TIP3   OH278999   5.705   0.541   5.575 -0.2022  0.0226  0.5082
19195TIP3    H179000   5.642   0.517   5.643  1.0968 -1.0378  1.3874
19195TIP3    H279001   5.714   0.462   5.521  0.5750  0.0609  0.5687
19196TIP3   OH279002   3.640   0.889   3.220 -0.4398 -0.0272 -0.7394
19196TIP3    H179003   3.642   0.941   3.139 -0.4776  0.1098 -0.6519
19196TIP3    H279004   3.606   0.949   3.286 -2.6913 -0.8000 -1.1093
19197TIP3   OH279005   4.126   0.671  14.103  0.1873  0.2630  0.1693
19197TIP3    H179006   4.104   0.718  14.023  0.4633 -0.6010 -0.4266
19197TIP3    H279007   4.057   0.604  14.112  1.3888 -1.1391 -0.6127
19198TIP3   OH279008   5.377   6.055   1.278 -0.0220 -0.8724 -0.2875
19198TIP3    H179009   5.372   6.149   1.265  1.5295 -0.8128 -0.6448
19198TIP3    H279010   5.378   6.044   1.373 -2.4831 -0.7168 -0.1846
19199TIP3   OH279011   2.641   3.690   3.536 -0.1105 -0.0406 -0.4776
19199TIP3    H179012   2.572   3.623   3.537 -0.6667  0.4766 -1.7861
19199TIP3    H279013   2.712   3.651   3.485 -0.7868  0.6482 -2.0193
19200TIP3   OH279014   2.723   3.511  16.363 -0.7476 -0.5765  0.1852
19200TIP3    H179015   2.655   3.469  16.311 -1.3778  0.1176  0.4435
19200TIP3    H279016   2.703   3.487  16.454 -3.0605  2.8039  0.7551
19201TIP3   OH279017   3.554   4.268  12.602  0.1567 -0.5484  0.2435
19201TIP3    H179018   3.615   4.301  12.536  1.4000 -0.8236  1.2156
19201TIP3    H279019   3.609   4.217  12.662 -0.8695 -0.0687  1.6498
19202TIP3   OH279020   0.163   2.684  12.996  0.6980  0.9980 -0.6374
19202TIP3    H179021   0.114   2.635  12.930  1.2557 -1.1680  0.4635
19202TIP3    H279022   0.187   2.765  12.952 -1.9642  1.2063 -1.9118
19203TIP3   OH279023   3.821   6.112   1.780  0.2841  0.2615 -0.3324
19203TIP3    H179024   3.857   6.200   1.790 -0.3572  0.7084 -1.6410
19203TIP3    H279025   3.835   6.070   1.865  2.1367  1.0396 -0.2128
19204TIP3   OH279026   6.355   2.823  15.710  0.5854  0.0086  0.1558
19204TIP3    H179027   6.306   2.895  15.672 -1.2539 -2.0892 -1.7369
19204TIP3    H279028   6.311   2.806  15.794  1.2157  1.1800  0.7573
19205TIP3   OH279029   0.298   4.697   5.255  0.6396  0.3542 -0.5307
19205TIP3    H179030   0.321   4.610   5.221 -1.1500 -0.0005 -0.9666
19205TIP3    H279031   0.374   4.725   5.306  0.1633 -2.8099  2.2537
19206TIP3   OH279032   5.006   0.384  15.581 -0.0513  0.2004  0.3240
19206TIP3    H179033   4.937   0.360  15.519  0.4751 -0.3187 -0.0632
19206TIP3    H279034   5.024   0.476  15.561 -0.4213  0.2581  0.2334
19207TIP3   OH279035   5.022   1.555  12.135 -0.0351 -0.3964  0.1616
19207TIP3    H179036   4.980   1.613  12.198 -0.8038 -0.5524 -0.1935
19207TIP3    H279037   5.047   1.612  12.062 -1.6576 -0.6344 -0.6176
19208TIP3   OH279038   4.541   4.236  13.413 -0.0143  0.6410  0.0539
19208TIP3    H179039   4.612   4.282  13.367 -1.5722  2.4713 -0.6724
19208TIP3    H279040   4.468   4.238  13.352 -1.1220  0.0643  1.3261
19209TIP3   OH279041   5.768   5.243  14.888 -0.1540  0.6841  0.1909
19209TIP3    H179042   5.792   5.167  14.940 -1.1089  1.3253  1.6232
19209TIP3    H279043   5.738   5.207  14.805 -2.0501 -0.6354  1.3695
19210TIP3   OH279044   2.168   4.521  12.876 -0.4126 -0.5836 -0.4265
19210TIP3    H179045   2.225   4.536  12.951 -0.0120 -0.0273 -0.8356
19210TIP3    H279046   2.150   4.608  12.841 -0.4130 -0.8483 -1.1086
19211TIP3   OH279047   5.794   3.027   0.048 -0.0836  0.1471  0.2468
19211TIP3    H179048   5.761   3.117   0.055  1.9454  0.9284  0.2477
19211TIP3    H279049   5.775   2.988   0.133 -1.4023  0.3823  0.0916
19212TIP3   OH279050   4.419   1.079   3.048  0.1247 -0.0805  0.3230
19212TIP3    H179051   4.331   1.059   3.080  0.4505 -0.1962  1.1542
19212TIP3    H279052   4.477   1.060   3.121  0.9580 -0.9512 -0.5353
19213TIP3   OH279053   1.485   1.064  13.352 -0.2683  0.2564 -0.2542
19213TIP3    H179054   1.462   0.973  13.371 -0.8860  0.4338 -0.1219
19213TIP3    H279055   1.580   1.067  13.360 -0.3557 -0.0621  1.1206
19214TIP3   OH279056   5.197   0.681  13.240  0.0175  0.2798 -0.6759
19214TIP3    H179057   5.139   0.638  13.303  1.6872  1.1345  1.5643
19214TIP3    H279058   5.147   0.681  13.159 -2.0226 -1.3872  0.4640
19215TIP3   OH279059   5.959   1.633  15.193 -0.5829  0.3009 -0.7929
19215TIP3    H179060   6.032   1.587  15.151 -1.0377 -0.3156 -0.9118
19215TIP3    H279061   5.998   1.676  15.269 -0.1574 -0.2905 -0.6724
19216TIP3   OH279062   3.385   3.620  12.999 -0.0780 -0.7612 -0.2718
19216TIP3    H179063   3.310   3.666  12.962 -0.0011 -0.1072  0.3694
19216TIP3    H279064   3.401   3.548  12.939 -0.9091 -0.6101 -0.6790
19217TIP3   OH279065   6.666   5.454   5.249  0.3529 -0.7717  0.2832
19217TIP3    H179066   6.728   5.385   5.224 -2.4213 -2.9503 -1.0843
19217TIP3    H279067   6.645   5.435   5.340  0.4306 -1.0821  0.2387
19218TIP3   OH279068   4.374   1.878   6.697 -0.0275  0.5993  0.2657
19218TIP3    H179069   4.279   1.870   6.702 -0.0269  0.6509  0.3716
19218TIP3    H279070   4.404   1.795   6.661  0.0387 -0.1848  2.0461
19219TIP3   OH279071   1.254   1.007   2.724 -0.0430 -0.3962  0.4040
19219TIP3    H179072   1.228   1.097   2.742  1.2560  0.1388 -0.2600
19219TIP3    H279073   1.226   0.958   2.802 -2.8989  0.0749 -0.2009
19220TIP3   OH279074   3.629   6.246  12.640  0.3043  0.1515  0.5578
19220TIP3    H179075   3.567   6.179  12.668  1.4993 -0.1503  2.7118
19220TIP3    H279076   3.582   6.328  12.647 -0.6803 -0.2848 -0.5666
19221TIP3   OH279077   1.013   4.384  12.190 -0.8736 -0.0941  0.1728
19221TIP3    H179078   0.975   4.335  12.264 -0.0892 -1.0148 -0.0173
19221TIP3    H279079   1.016   4.320  12.119 -0.9613  0.5908 -0.4586
19222TIP3   OH279080   1.225   1.235   4.380 -0.4224  0.5729 -0.3238
19222TIP3    H179081   1.209   1.310   4.323 -0.8116  0.4786 -0.3439
19222TIP3    H279082   1.320   1.226   4.382 -0.3924  0.7643 -0.7193
19223TIP3   OH279083   4.881   6.292   0.123 -0.4060  0.7947 -0.3995
19223TIP3    H179084   4.958   6.313   0.176 -1.2132  0.9800  0.7311
19223TIP3    H279085   4.891   6.347   0.045  1.5267 -0.5309 -1.1685
19224TIP3   OH279086   3.001   6.430  14.648  0.3946  0.4450  0.8403
19224TIP3    H179087   2.950   6.363  14.692  1.3919  0.4126  1.9915
19224TIP3    H279088   3.089   6.393  14.642  0.0827 -0.0743 -2.3206
19225TIP3   OH279089   6.676   1.801   2.314  0.3800 -0.1812  0.2120
19225TIP3    H179090   6.640   1.863   2.378  2.2681  0.1991  0.9874
19225TIP3    H279091   6.624   1.722   2.325  1.6178 -0.6951  3.4478
19226TIP3   OH279092   0.759   2.383   2.973  0.4540 -0.8569  0.4883
19226TIP3    H179093   0.721   2.460   2.930  0.0401 -0.0160  2.2551
19226TIP3    H279094   0.800   2.334   2.902  0.6164  0.9174 -0.7246
19227TIP3   OH279095   3.442   4.796  15.733  0.4716 -0.3275 -0.4310
19227TIP3    H179096   3.400   4.744  15.801  1.3807  0.9527  1.1793
19227TIP3    H279097   3.370   4.839  15.687 -0.1086 -0.1593  0.6144
19228TIP3   OH279098   2.926   3.013  12.404  0.1572 -0.1334 -0.5066
19228TIP3    H179099   2.853   3.004  12.342  0.7493  1.1631 -1.4279
19228TIP3    H279100   2.953   3.104  12.396  1.1037 -0.2919  0.7146
19229TIP3   OH279101   0.048   4.322  15.149 -0.1181  0.6121  0.3223
19229TIP3    H179102   0.121   4.338  15.209  0.5253  0.7829 -0.4879
19229TIP3    H279103   0.085   4.267  15.080 -0.4810  1.5136 -0.6186
19230TIP3   OH279104   2.660   1.861   1.244  0.0315 -0.4098 -0.5584
19230TIP3    H179105   2.568   1.842   1.229 -0.2772 -0.3844  1.0732
19230TIP3    H279106   2.660   1.924   1.316  1.2501  1.4823 -2.0861
19231TIP3   OH279107   2.868   4.482  15.949  0.0805 -0.1163 -0.2682
19231TIP3    H179108   2.803   4.549  15.965  0.7014  0.3409  0.4399
19231TIP3    H279109   2.843   4.442  15.866 -0.7336  0.4690 -0.3082
19232TIP3   OH279110   1.775   6.576  11.886  0.4879 -0.2146  0.1326
19232TIP3    H179111   1.825   6.652  11.915 -1.4496  1.4639 -0.7220
19232TIP3    H279112   1.732   6.544  11.965 -0.1103  0.7177  0.1978
19233TIP3   OH279113   4.246   3.351   2.962  0.0833 -0.2347  0.5044
19233TIP3    H179114   4.303   3.404   2.906 -1.2327  1.1582  0.4090
19233TIP3    H279115   4.200   3.294   2.901  0.8085 -0.8385  0.5062
19234TIP3   OH279116   4.799   2.566  13.292  0.2542  0.0962  0.3577
19234TIP3    H179117   4.851   2.641  13.262 -0.4111  0.5575  0.3215
19234TIP3    H279118   4.720   2.606  13.329 -1.3532 -0.6362 -2.0352
19235TIP3   OH279119   1.119   2.629  12.311 -0.2630 -0.0798  0.5115
19235TIP3    H179120   1.177   2.591  12.376 -0.4486 -1.2358  0.0238
19235TIP3    H279121   1.053   2.561  12.295  1.0789 -0.8090 -2.5832
19236TIP3   OH279122   4.802   0.332  13.855  0.1328 -0.3971 -0.6570
19236TIP3    H179123   4.875   0.388  13.828 -0.4025 -0.0335 -1.3684
19236TIP3    H279124   4.728   0.392  13.867 -0.0507 -0.7620  0.0713
19237TIP3   OH279125   2.019   5.838   1.414 -0.2684 -0.1882 -0.7570
19237TIP3    H179126   1.980   5.918   1.449  1.2562 -0.4340  1.7160
19237TIP3    H279127   1.952   5.802   1.356 -1.3326  2.3857 -1.2223
19238TIP3   OH279128   4.226   2.124  12.413 -0.1627  0.4710 -0.4534
19238TIP3    H179129   4.199   2.112  12.322 -2.3698  0.5705  0.1159
19238TIP3    H279130   4.179   2.056  12.461  0.1078  1.1016  0.7494
19239TIP3   OH279131   3.182   2.662  15.532 -0.0984  0.3460 -0.1113
19239TIP3    H179132   3.223   2.646  15.447 -0.2573 -0.0719 -0.1134
19239TIP3    H279133   3.154   2.575  15.561  0.0119  0.4791  0.3985
19240TIP3   OH279134   4.694   3.578  14.263 -0.7448 -0.0652  0.3247
19240TIP3    H179135   4.686   3.667  14.228 -2.5877 -0.1382  0.4620
19240TIP3    H279136   4.750   3.532  14.201 -0.5074  0.9445 -0.2301
19241TIP3   OH279137   1.206   6.230   3.826 -0.3984  0.1478  0.6839
19241TIP3    H179138   1.159   6.288   3.887 -1.6504 -0.5680  0.4310
19241TIP3    H279139   1.203   6.277   3.743 -0.9959 -0.0537  0.5868
19242TIP3   OH279140   3.410   2.695  12.979 -0.4143  0.4641 -0.2310
19242TIP3    H179141   3.442   2.628  13.039 -1.0143  0.4509  0.0813
19242TIP3    H279142   3.345   2.650  12.925 -1.3349  0.9375  0.4429
19243TIP3   OH279143   4.571   1.464   6.043  0.1474  0.1282 -0.0582
19243TIP3    H179144   4.608   1.392   6.094 -1.7417  0.2014  1.5637
19243TIP3    H279145   4.505   1.423   5.988 -0.8464  0.5581  0.7760
19244TIP3   OH279146   5.921   3.108  14.066  0.0826  0.3189 -0.4097
19244TIP3    H179147   5.850   3.047  14.047 -1.5266  1.7641  0.6915
19244TIP3    H279148   5.910   3.178  14.001  0.5960  0.4918 -0.3133
19245TIP3   OH279149   4.527   4.996  11.209  0.8415  0.2445 -0.1301
19245TIP3    H179150   4.487   4.997  11.122 -0.7461 -0.7473  0.5270
19245TIP3    H279151   4.568   5.082  11.218  2.1271 -0.0781 -2.3032
19246TIP3   OH279152   2.466   4.585  14.935  0.3264 -0.3605 -0.1435
19246TIP3    H179153   2.499   4.636  15.009  0.6452 -0.3517 -0.2905
19246TIP3    H279154   2.384   4.547  14.967 -0.2863  0.8172 -0.2637
19247TIP3   OH279155   5.099   5.777  15.690 -0.1099  0.2928 -0.0222
19247TIP3    H179156   5.193   5.763  15.705  0.4937  1.0387 -2.6560
19247TIP3    H279157   5.059   5.693  15.713  1.3418 -0.3816  0.1887
19248TIP3   OH279158   4.380   0.028   1.143  0.0029  0.2743  0.0763
19248TIP3    H179159   4.298   0.077   1.152  0.1707  0.9956 -1.8223
19248TIP3    H279160   4.399   0.030   1.049  2.2774  0.2603  0.4791
19249TIP3   OH279161   3.127   3.772   6.413 -0.5940 -0.2972 -0.0690
19249TIP3    H179162   3.152   3.830   6.341  0.0481 -0.4288  0.0354
19249TIP3    H279163   3.072   3.826   6.469 -0.0755  0.1910 -0.0185
19250TIP3   OH279164   5.519   4.516   5.360 -0.2971 -1.0854  0.0539
19250TIP3    H179165   5.562   4.595   5.392 -2.5518  0.1813  0.1201
19250TIP3    H279166   5.589   4.467   5.316  1.4202  0.3101  1.0933
19251TIP3   OH279167   2.585   2.125   6.245 -0.0271 -0.3504  0.6838
19251TIP3    H179168   2.592   2.035   6.279  0.4402 -0.4503  0.3287
19251TIP3    H279169   2.521   2.118   6.173 -0.9275 -0.1606  1.4423
19252TIP3   OH279170   5.370   2.083  12.446 -0.0419 -0.0739 -0.3590
19252TIP3    H179171   5.392   1.990  12.447 -0.7864 -0.2514  0.6213
19252TIP3    H279172   5.354   2.103  12.353 -0.5595 -1.0858 -0.4957
19253TIP3   OH279173   4.150   2.130   1.862  0.2814 -0.1002  0.1920
19253TIP3    H179174   4.055   2.114   1.869  0.2309  0.2237  0.2819
19253TIP3    H279175   4.172   2.175   1.944  0.4324  0.2019 -0.0121
19254TIP3   OH279176   6.433   0.068   3.049  0.8305 -0.2123 -0.1588
19254TIP3    H179177   6.361   0.096   2.993  1.1580 -0.3256 -0.6445
19254TIP3    H279178   6.431  -0.028   3.045  0.3629 -0.2511  0.6665
19255TIP3   OH279179   0.787   4.804  16.276 -0.6503  0.2095  0.6429
19255TIP3    H179180   0.763   4.886  16.232 -0.9697  0.0608  0.5352
19255TIP3    H279181   0.807   4.744  16.204  0.7446  0.5254  0.7327
19256TIP3   OH279182   1.826   1.119   0.282 -0.2989  0.0943 -0.2762
19256TIP3    H179183   1.746   1.093   0.326 -1.4101  1.4060 -1.4325
19256TIP3    H279184   1.805   1.202   0.241  1.1768 -0.2879 -1.9195
19257TIP3   OH279185   4.071   5.595  13.088  0.5547  0.1131  0.0014
19257TIP3    H179186   4.155   5.641  13.081  0.5203  0.1565 -0.1191
19257TIP3    H279187   4.068   5.539  13.011  2.2898 -2.9086  1.9128
19258TIP3   OH279188   4.711   6.494  11.398  0.0556  0.5433  0.5804
19258TIP3    H179189   4.716   6.450  11.483  0.1569  1.1584  0.9013
19258TIP3    H279190   4.658   6.435  11.344 -0.2972  0.3011  1.1688
19259TIP3   OH279191   5.588   6.061  11.052 -0.1704 -0.3089  0.3651
19259TIP3    H179192   5.524   6.097  10.992  0.8290  0.5136 -0.2527
19259TIP3    H279193   5.540   5.996  11.103 -1.2225 -0.4733 -0.7899
19260TIP3   OH279194   3.628   6.184  16.786  0.3683 -0.2774 -0.0752
19260TIP3    H179195   3.602   6.092  16.783 -0.7249 -0.1139  2.1578
19260TIP3    H279196   3.546   6.232  16.798  1.1419  0.6709  2.0059
19261TIP3   OH279197   1.573   6.281  14.932 -0.0657 -0.0917  0.0902
19261TIP3    H179198   1.589   6.301  15.024  1.3800  1.7820 -0.5038
19261TIP3    H279199   1.652   6.237  14.902  0.3267  1.0801 -0.6955
19262TIP3   OH279200   5.762   5.833   6.002 -0.1332 -0.0818 -0.7857
19262TIP3    H179201   5.751   5.926   5.982 -3.3148 -0.0880  0.4359
19262TIP3    H279202   5.808   5.832   6.086 -0.0635  0.3904 -0.8163
19263TIP3   OH279203   5.065   3.309  14.021 -0.3365  0.2521  0.0547
19263TIP3    H179204   5.088   3.220  13.994 -0.4569 -0.1104  1.1338
19263TIP3    H279205   5.076   3.310  14.116  0.3775  1.6017 -0.0103
19264TIP3   OH279206   0.634   5.462  13.821  0.2205 -0.1843 -0.3226
19264TIP3    H179207   0.728   5.480  13.816  0.0075  1.1349  0.2257
19264TIP3    H279208   0.629   5.370  13.848  1.3474 -0.2522 -0.2983
19265TIP3   OH279209   6.195   3.561   1.247 -0.3518 -0.2091 -0.1443
19265TIP3    H179210   6.205   3.500   1.174  2.0682  0.5439 -0.5155
19265TIP3    H279211   6.192   3.647   1.205  0.7146  0.2037  0.5941
19266TIP3   OH279212   5.466   0.180  11.893 -0.0472  0.1834 -0.3080
19266TIP3    H179213   5.556   0.212  11.903 -0.4442  0.8711  1.4226
19266TIP3    H279214   5.461   0.150  11.802  2.7767 -2.6557  0.3146
19267TIP3   OH279215   1.128   2.009   2.675 -0.4342  0.4903 -0.0412
19267TIP3    H179216   1.097   2.097   2.653 -1.0238 -0.3756 -3.2018
19267TIP3    H279217   1.223   2.016   2.676 -0.4873  1.7081  2.6823
19268TIP3   OH279218   6.218   2.736   5.371 -0.1279  0.2076 -0.5896
19268TIP3    H179219   6.239   2.716   5.280 -1.1637 -2.0304 -0.4153
19268TIP3    H279220   6.183   2.825   5.370  2.1912  1.1821 -1.9554
19269TIP3   OH279221   5.864   5.238  10.810  0.0886 -0.3539 -0.3669
19269TIP3    H179222   5.819   5.200  10.885 -1.7111 -1.4303 -1.8952
19269TIP3    H279223   5.798   5.296  10.770  1.0529  0.3156 -1.0207
19270TIP3   OH279224   5.439   0.977  13.836  0.2840  0.6436  0.6939
19270TIP3    H179225   5.506   0.925  13.793 -0.1288  1.0626 -0.5158
19270TIP3    H279226   5.482   1.013  13.914  1.1917  0.2037  0.4085
19271TIP3   OH279227   5.755   2.656  14.921 -0.0990 -0.0816  0.3962
19271TIP3    H179228   5.817   2.585  14.943  0.9913  0.7223  0.0286
19271TIP3    H279229   5.728   2.692  15.005 -0.5121 -0.8022  0.5794
19272TIP3   OH279230   0.244   1.347   2.938 -0.1050 -0.1873  0.0191
19272TIP3    H179231   0.272   1.288   2.868 -2.3406 -0.3982 -0.7757
19272TIP3    H279232   0.324   1.392   2.965  1.0484 -1.0875 -1.7278
19273TIP3   OH279233   2.056   2.200   2.942 -0.0425 -0.0502 -0.4373
19273TIP3    H179234   2.119   2.258   2.985 -0.2267  0.5379 -0.9354
19273TIP3    H279235   1.975   2.214   2.991  0.2900 -1.0873  0.4395
19274TIP3   OH279236   6.140   2.462   5.452  0.3807 -0.5075 -0.0836
19274TIP3    H179237   6.203   2.405   5.496  0.5813  0.2793  0.6611
19274TIP3    H279238   6.188   2.543   5.435  1.0125 -1.4460 -3.7250
19275TIP3   OH279239   5.221   3.754   6.005  0.1170  0.1125 -0.1082
19275TIP3    H179240   5.167   3.678   6.028  0.7061 -0.3989 -0.3828
19275TIP3    H279241   5.290   3.755   6.071  0.4436  0.0696 -0.4498
19276TIP3   OH279242   1.054   2.038  17.289 -0.5575  0.2433 -0.3927
19276TIP3    H179243   1.065   1.992  17.206  1.4680 -0.5512  0.2554
19276TIP3    H279244   1.113   2.113  17.284  0.8466 -0.7183  0.9139
19277TIP3   OH279245   4.736   3.760  16.259  0.1075  0.8985 -0.7194
19277TIP3    H179246   4.695   3.844  16.240  0.0409  0.5412 -2.2876
19277TIP3    H279247   4.790   3.741  16.182 -0.1513 -0.6366 -0.5640
19278TIP3   OH279248   2.969   1.650   3.895 -0.2171  0.2357 -0.3782
19278TIP3    H179249   2.897   1.628   3.836 -1.2763 -1.4993  1.4046
19278TIP3    H279250   3.048   1.645   3.841 -1.0980 -1.5420 -1.5767
19279TIP3   OH279251   1.920   3.358  15.342  0.5280  1.0635 -0.1454
19279TIP3    H179252   1.932   3.411  15.420 -0.8653  0.3650  0.5843
19279TIP3    H279253   1.838   3.391  15.303  0.9823  1.1229 -1.0872
19280TIP3   OH279254   4.488   0.777  12.662 -0.1208 -0.2349 -0.3909
19280TIP3    H179255   4.453   0.843  12.722  0.9651 -0.5152  0.5908
19280TIP3    H279256   4.564   0.741  12.707  0.1334 -1.1847 -1.5115
19281TIP3   OH279257   4.574   5.608   5.895 -0.3343 -0.3355 -0.6639
19281TIP3    H179258   4.563   5.578   5.985  0.0612 -1.5356 -0.9888
19281TIP3    H279259   4.550   5.701   5.897  1.7395  0.2262  1.0960
19282TIP3   OH279260   3.987   2.798   1.146  0.0825 -0.0715  0.5473
19282TIP3    H179261   3.925   2.844   1.203 -0.0761 -0.0956  0.3952
19282TIP3    H279262   3.932   2.743   1.091  0.2049  0.2583  0.0884
19283TIP3   OH279263   1.500   1.881  13.426  0.1235  0.7397 -0.1727
19283TIP3    H179264   1.580   1.865  13.375  0.0210 -2.0478  0.3879
19283TIP3    H279265   1.439   1.918  13.363  1.4072  1.6699 -0.9347
19284TIP3   OH279266   4.729   1.161  15.187 -0.4164 -0.1361 -0.2388
19284TIP3    H179267   4.741   1.236  15.129 -1.1262 -0.3128 -0.6326
19284TIP3    H279268   4.769   1.088  15.140 -1.1905 -0.3245 -0.6256
19285TIP3   OH279269   0.073   1.799   4.278 -0.0487 -0.5386 -0.1300
19285TIP3    H179270   0.049   1.765   4.192 -1.9371 -1.6722  0.7677
19285TIP3    H279271   0.141   1.739   4.309  0.3992 -0.3216 -0.6674
19286TIP3   OH279272   1.510   5.176   4.996  0.0237 -0.0922 -0.0003
19286TIP3    H179273   1.480   5.261   5.030  0.3656  0.0571 -0.0694
19286TIP3    H279274   1.487   5.179   4.903  2.4023  1.0304 -0.6295
19287TIP3   OH279275   2.111   3.254  13.566 -0.2059  0.3267  0.7457
19287TIP3    H179276   2.117   3.345  13.536  0.9993  0.3262  0.9336
19287TIP3    H279277   2.122   3.259  13.661 -0.4728  0.0129  0.7961
19288TIP3   OH279278   4.961   4.323  16.521  0.4356 -0.2098  0.0817
19288TIP3    H179279   5.043   4.290  16.558  1.2194 -0.3308 -1.6483
19288TIP3    H279280   4.947   4.269  16.443 -1.2683 -0.1443  0.3142
19289TIP3   OH279281   3.917   4.676  12.999  0.2865 -0.1405  0.0928
19289TIP3    H179282   3.906   4.771  13.001  2.8353  0.2054  1.3682
19289TIP3    H279283   3.901   4.652  12.907 -0.8772  1.4099 -0.1522
19290TIP3   OH279284   4.254   4.543  14.157  0.1204 -0.6280 -0.0446
19290TIP3    H179285   4.254   4.522  14.063 -0.4291 -0.8413  0.0054
19290TIP3    H279286   4.162   4.541  14.183  0.4053 -4.9099  1.4508
19291TIP3   OH279287   4.638   4.244   4.216  0.1634  0.5361  0.1092
19291TIP3    H179288   4.666   4.336   4.217  0.4470  0.4875  2.5391
19291TIP3    H279289   4.685   4.204   4.289  1.9107 -2.1866 -2.2863
19292TIP3   OH279290   1.646   1.253   3.056  0.2186  0.3545  0.1035
19292TIP3    H179291   1.712   1.252   3.126 -0.1209  0.9855  0.4412
19292TIP3    H279292   1.690   1.213   2.981  0.5062 -0.5850  0.7450
19293TIP3   OH279293   0.015   3.705   4.266  0.2444 -0.2923  0.3758
19293TIP3    H179294   0.012   3.722   4.172  1.0920 -1.2459  0.1523
19293TIP3    H279295  -0.071   3.732   4.298 -0.7261 -1.5599 -0.9759
19294TIP3   OH279296   2.119   3.087  16.871  0.2631  0.6262 -0.1483
19294TIP3    H179297   2.112   3.005  16.920  0.5410  1.4439  1.3393
19294TIP3    H279298   2.149   3.061  16.784  3.7722 -0.6282  1.2375
19295TIP3   OH279299   2.765   3.928  13.565  0.3672  0.0288 -0.2902
19295TIP3    H179300   2.739   3.892  13.480  1.0950 -0.3105 -0.3756
19295TIP3    H279301   2.811   4.009  13.544  0.0973  0.2126 -0.1844
19296TIP3   OH279302   4.596   6.199   6.652  0.3490  0.2577  0.1375
19296TIP3    H179303   4.619   6.289   6.627  0.2702  0.4752  0.8056
19296TIP3    H279304   4.517   6.179   6.601 -1.8970  1.9692  2.6373
19297TIP3   OH279305   3.013   1.628  14.401 -0.0727 -0.2341 -0.2081
19297TIP3    H179306   2.986   1.552  14.349 -0.9093  1.0111 -1.7184
19297TIP3    H279307   2.932   1.678  14.413  0.2003 -0.2077  1.9278
19298TIP3   OH279308   4.204   5.954  15.103 -0.1540 -0.3353 -0.5631
19298TIP3    H179309   4.260   5.885  15.068 -0.6469 -0.1251 -1.8325
19298TIP3    H279310   4.243   5.975  15.188 -0.0487 -2.2090 -0.1017
19299TIP3   OH279311   4.036   2.264  16.813 -0.0785 -0.4201  0.1619
19299TIP3    H179312   4.073   2.189  16.861  0.9387  0.1904  0.3673
19299TIP3    H279313   3.971   2.300  16.874  1.0570  0.2239  1.0339
19300TIP3   OH279314   1.374   1.048   1.394 -0.3344  0.3879  0.2199
19300TIP3    H179315   1.340   1.044   1.483  1.5800  0.4993  0.9823
19300TIP3    H279316   1.463   1.081   1.403  0.1725 -0.3328 -1.6665
19301TIP3   OH279317   6.597   3.211   5.205 -0.4874  0.1860 -0.0658
19301TIP3    H179318   6.599   3.202   5.110  0.7044  1.4781 -0.2012
19301TIP3    H279319   6.611   3.122   5.238 -0.9649 -0.2769 -1.0977
19302TIP3   OH279320   4.989   0.106  17.175  0.0989 -0.4203 -0.4329
19302TIP3    H179321   4.908   0.145  17.142 -0.1514 -0.5198  0.0513
19302TIP3    H279322   5.052   0.178  17.176  0.0150 -0.3421 -0.8126
19303TIP3   OH279323   0.286   0.631   2.446 -0.4664  0.4097  0.0315
19303TIP3    H179324   0.349   0.625   2.517  1.5222  1.1065 -1.5631
19303TIP3    H279325   0.265   0.725   2.441 -0.6822  0.3488 -0.2255
19304TIP3   OH279326   2.397   4.603   6.609 -0.2606  0.0145  0.2716
19304TIP3    H179327   2.329   4.539   6.587 -0.0310 -0.4188  0.7945
19304TIP3    H279328   2.349   4.685   6.625 -0.4805  0.1859 -1.1849
19305TIP3   OH279329   4.004   4.341  11.831  0.0503  0.1688  0.2382
19305TIP3    H179330   4.027   4.251  11.806  1.0124  0.4554  0.0376
19305TIP3    H279331   4.038   4.395  11.760 -1.8476  0.6020 -0.3943
19306TIP3   OH279332   3.346   1.851   2.569  0.0003  0.2087  0.2545
19306TIP3    H179333   3.440   1.852   2.589 -0.4373 -2.9090  3.4214
19306TIP3    H279334   3.305   1.888   2.647 -1.5267  1.3558 -1.0111
19307TIP3   OH279335   6.271   0.201   6.022 -0.1543  0.4210 -0.0980
19307TIP3    H179336   6.321   0.278   6.047  0.9106 -0.3349  0.2047
19307TIP3    H279337   6.230   0.172   6.104  0.3363  0.0514  0.0217
19308TIP3   OH279338   1.423   4.566   1.983 -0.0978  0.0448  0.3587
19308TIP3    H179339   1.519   4.569   1.976 -0.1393  0.2819 -0.1848
19308TIP3    H279340   1.392   4.592   1.896 -0.6640  0.7582  0.7615
19309TIP3   OH279341   6.272   0.972  17.280  0.0319  0.5858 -0.2055
19309TIP3    H179342   6.181   0.943  17.272  0.4759 -1.1125  0.3896
19309TIP3    H279343   6.281   1.041  17.215 -1.3039 -0.1883 -1.2775
19310TIP3   OH279344   5.575   0.380  16.456 -0.2408 -0.0527  0.0077
19310TIP3    H179345   5.577   0.296  16.501  1.5139 -0.0834 -0.0562
19310TIP3    H279346   5.630   0.367  16.379  0.8442  1.3966  0.4975
19311TIP3   OH279347   2.915   0.340   0.924  0.0669  0.2339  0.4642
19311TIP3    H179348   2.855   0.299   0.862  1.0581  0.0008 -0.3731
19311TIP3    H279349   2.912   0.433   0.903  1.0287  0.0701 -0.5564
19312TIP3   OH279350   6.763   6.210  15.144  0.4602 -0.4086 -0.1776
19312TIP3    H179351   6.673   6.212  15.177  0.2161 -0.9282 -0.7888
19312TIP3    H279352   6.815   6.244  15.217 -0.0116 -1.8900  0.9215
19313TIP3   OH279353   6.516   3.443   0.281  0.3680  0.2959  0.1174
19313TIP3    H179354   6.559   3.413   0.361 -0.1462  2.3140  1.2061
19313TIP3    H279355   6.576   3.508   0.245  0.2188 -0.0218 -0.7177
19314TIP3   OH279356   4.439   0.433  12.842  0.2498 -0.3237 -0.2718
19314TIP3    H179357   4.357   0.398  12.809 -0.2597 -0.3734  0.9766
19314TIP3    H279358   4.415   0.512  12.890  1.1978  0.8658 -1.6477
19315TIP3   OH279359   0.802   4.748   6.190  0.1602 -0.3964  0.5408
19315TIP3    H179360   0.761   4.664   6.211  0.1803 -0.3019  0.9580
19315TIP3    H279361   0.826   4.786   6.274  1.3264 -0.5507  0.2966
19316TIP3   OH279362   5.680   4.947   1.608  0.3300  0.9551  0.2602
19316TIP3    H179363   5.636   4.988   1.683  3.6178  4.0054  0.7727
19316TIP3    H279364   5.683   5.016   1.542  0.4878 -0.6116 -1.4515
19317TIP3   OH279365   2.929   4.763  13.108 -0.7044 -0.5189  0.3248
19317TIP3    H179366   3.016   4.740  13.075  0.1685  0.3804  1.8419
19317TIP3    H279367   2.883   4.799  13.033  0.2012 -1.0800 -0.5231
19318TIP3   OH279368   6.711   6.133   1.530  0.5457 -0.6633  0.2546
19318TIP3    H179369   6.647   6.070   1.496 -0.9499  0.0650  1.5572
19318TIP3    H279370   6.755   6.167   1.452 -1.5514 -0.2948 -0.8403
19319TIP3   OH279371   0.720   2.640   3.554  0.0475 -1.1902  0.4978
19319TIP3    H179372   0.719   2.680   3.467 -2.1106  1.2748  1.5095
19319TIP3    H279373   0.636   2.596   3.561 -1.6297  1.9331  2.5381
19320TIP3   OH279374   5.093   5.709   2.772  0.2318  0.9087  0.7484
19320TIP3    H179375   5.082   5.725   2.866  0.4223  0.6536  0.8164
19320TIP3    H279376   5.150   5.632   2.768 -0.9705  0.0152  0.4290
19321TIP3   OH279377   0.545   3.504   4.652 -0.5500  0.1815 -0.5859
19321TIP3    H179378   0.544   3.482   4.746 -0.6010  0.1352 -0.5969
19321TIP3    H279379   0.633   3.480   4.623 -0.2750  0.8972 -0.3865
19322TIP3   OH279380   4.772   0.399   3.974 -0.4150  0.3899 -0.3567
19322TIP3    H179381   4.826   0.325   3.946  0.5898  0.3777  1.4848
19322TIP3    H279382   4.806   0.474   3.924  1.2030  0.3361  0.6021
19323TIP3   OH279383   1.572   3.705   2.155  0.2316 -0.2085 -0.2435
19323TIP3    H179384   1.616   3.665   2.081  3.5266  1.4593  0.6091
19323TIP3    H279385   1.590   3.646   2.228  1.7849  0.7895  0.2378
19324TIP3   OH279386   1.959   6.181  17.266 -1.2622 -0.2500  0.4629
19324TIP3    H179387   2.003   6.165  17.349 -0.4459  0.8993  0.2739
19324TIP3    H279388   1.996   6.263  17.235  2.0384 -2.7762 -3.3571
19325TIP3   OH279389   2.091   0.559  14.966  0.7461 -0.5615 -0.1078
19325TIP3    H179390   2.062   0.470  14.985  2.5389 -1.3769 -0.8753
19325TIP3    H279391   2.059   0.576  14.877  0.3925 -0.4302  0.0431
19326TIP3   OH279392   1.379   3.236   5.521 -0.3388 -0.6217 -0.1726
19326TIP3    H179393   1.291   3.266   5.544  0.3965  2.4980 -0.9125
19326TIP3    H279394   1.437   3.290   5.574  1.2079 -3.3825  1.1480
19327TIP3   OH279395   5.034   6.540  13.922 -0.3813  0.1474 -0.6403
19327TIP3    H179396   5.115   6.541  13.871  1.3613  0.3067  1.9460
19327TIP3    H279397   5.006   6.632  13.923  1.4506  0.7709  1.3344
19328TIP3   OH279398   4.549   1.442   6.442  0.1623 -0.3099 -0.1061
19328TIP3    H179399   4.621   1.504   6.427  0.9983 -0.5440  2.4416
19328TIP3    H279400   4.556   1.379   6.370  1.5970  0.4957 -0.7091
19329TIP3   OH279401   4.547   1.961  17.162  0.5372 -0.0897 -0.4304
19329TIP3    H179402   4.462   1.970  17.205  0.9498 -1.2796  0.7389
19329TIP3    H279403   4.551   2.032  17.099 -1.1913  0.1688 -0.2840
19330TIP3   OH279404   1.824   6.091  15.888  0.5156  0.1703  0.3806
19330TIP3    H179405   1.869   6.104  15.805 -2.1159  1.6205 -0.9518
19330TIP3    H279406   1.778   6.174  15.903 -0.2197 -0.5718  2.5760
19331TIP3   OH279407   6.276   0.447   1.115 -0.3651 -0.3883 -0.2054
19331TIP3    H179408   6.224   0.512   1.164 -0.4380 -1.3228  1.0287
19331TIP3    H279409   6.353   0.494   1.086 -1.2739  0.7066 -0.9422
19332TIP3   OH279410   4.900   5.345  15.594 -0.4185  0.2537 -0.1911
19332TIP3    H179411   4.880   5.255  15.570  0.7674 -0.1326  0.1634
19332TIP3    H279412   4.815   5.389  15.601 -1.1787 -1.3791  1.6864
19333TIP3   OH279413   4.957   4.584   3.460 -0.6229  0.2127  0.0797
19333TIP3    H179414   4.874   4.548   3.492 -0.0814 -1.0030  0.1894
19333TIP3    H279415   5.001   4.615   3.538 -0.6575  0.1691  0.1168
19334TIP3   OH279416   5.220   5.457   6.326 -0.4777 -0.3061 -0.0033
19334TIP3    H179417   5.178   5.451   6.240 -0.7609 -0.5110  0.1496
19334TIP3    H279418   5.204   5.547   6.354 -1.5837 -0.6278  0.4427
19335TIP3   OH279419   3.291   3.105   2.756 -0.3443  0.2331 -0.2725
19335TIP3    H179420   3.207   3.073   2.723  0.4673 -1.3193 -0.9860
19335TIP3    H279421   3.276   3.123   2.849 -1.7421  1.1234 -0.6410
19336TIP3   OH279422   2.219   6.528  15.661  0.4757  0.7315  0.1597
19336TIP3    H179423   2.146   6.481  15.622  1.8815 -2.0387  0.5699
19336TIP3    H279424   2.259   6.576  15.589  0.6123 -0.9924 -0.9557
19337TIP3   OH279425   2.796   4.971   0.806  0.5333  0.3814 -0.2458
19337TIP3    H179426   2.799   4.963   0.711  0.1375 -0.7453 -0.1764
19337TIP3    H279427   2.744   5.050   0.822 -0.1388  0.0964 -0.9545
19338TIP3   OH279428   0.087   5.221   5.263 -0.3271  0.1313  0.0124
19338TIP3    H179429   0.167   5.271   5.248 -1.3065  1.7785  0.0395
19338TIP3    H279430   0.078   5.219   5.359  0.5878 -1.6050  0.0978
19339TIP3   OH279431   3.234   3.663   5.109 -0.4411 -0.0765 -0.2136
19339TIP3    H179432   3.210   3.606   5.181 -0.3368 -0.7520 -0.7019
19339TIP3    H279433   3.304   3.717   5.143 -1.3330  0.5857  0.6229
19340TIP3   OH279434   1.999   0.725   3.482  0.5569  0.1451 -0.0989
19340TIP3    H179435   1.988   0.635   3.449  1.9206  0.1508 -0.6043
19340TIP3    H279436   2.008   0.715   3.577  0.5369 -0.2382 -0.1352
19341TIP3   OH279437   6.274   1.591  14.754  0.4304  0.5315 -0.1685
19341TIP3    H179438   6.346   1.528  14.764  1.7320  2.0995  0.8379
19341TIP3    H279439   6.308   1.655  14.691 -0.7001  0.4884 -0.8452
19342TIP3   OH279440   2.113   4.353   1.806 -0.4112 -0.1005 -0.2417
19342TIP3    H179441   2.064   4.341   1.888 -0.3404  0.4517 -0.1131
19342TIP3    H279442   2.117   4.448   1.795 -0.0400 -0.1648 -0.6583
19343TIP3   OH279443   3.546   6.043  12.411  0.1899 -0.5118 -0.1445
19343TIP3    H179444   3.547   6.001  12.498 -0.7404 -0.2906 -0.0152
19343TIP3    H279445   3.559   6.136  12.430  3.2209 -0.7460 -0.4936
19344TIP3   OH279446   6.679   0.883   5.057  0.6088 -0.1415 -0.3111
19344TIP3    H179447   6.773   0.900   5.062  0.6354 -0.5474  0.9008
19344TIP3    H279448   6.668   0.796   5.094 -0.2983  0.1033  0.0341
19345TIP3   OH279449   0.421   4.685  15.035  0.0797  0.3293  0.0551
19345TIP3    H179450   0.457   4.773  15.032  0.5244  0.2589  2.1752
19345TIP3    H279451   0.497   4.628  15.044 -0.2586 -0.2161 -0.4523
19346TIP3   OH279452   1.251   1.553   1.400  0.1204 -0.5655 -0.4821
19346TIP3    H179453   1.286   1.637   1.431 -0.0961 -0.3902 -0.7115
19346TIP3    H279454   1.328   1.504   1.371  0.2273 -0.3709 -0.5296
19347TIP3   OH279455   4.020   6.589  14.475  0.2392  0.2796 -0.0149
19347TIP3    H179456   4.028   6.543  14.559  0.5453 -2.5177 -1.4725
19347TIP3    H279457   4.055   6.676  14.493 -0.5270  0.0922  2.9659
19348TIP3   OH279458   1.622   0.984   5.679  0.7465  0.0522 -0.3525
19348TIP3    H179459   1.579   1.051   5.626 -0.1500 -0.2750 -0.0602
19348TIP3    H279460   1.590   1.000   5.768  1.2803 -0.1690 -0.1150
19349TIP3   OH279461   1.374   4.763  14.259 -0.1077 -0.1974 -0.2533
19349TIP3    H179462   1.279   4.754  14.272 -0.0957  2.0077  2.2704
19349TIP3    H279463   1.382   4.838  14.199  0.0440 -0.5261 -0.6448
19350TIP3   OH279464   4.402   2.782  16.772  0.3376  0.1307 -0.4213
19350TIP3    H179465   4.359   2.737  16.700  1.2894 -0.6406 -0.5267
19350TIP3    H279466   4.482   2.731  16.789  1.0829  1.3618 -0.0638
19351TIP3   OH279467   5.605   5.432  11.837  0.1909  0.0082 -0.3205
19351TIP3    H179468   5.681   5.479  11.871  1.4534 -1.1941 -1.3837
19351TIP3    H279469   5.539   5.441  11.906  1.4312  0.6961  0.8264
19352TIP3   OH279470   4.178   4.639  14.578  0.6069  0.0903 -0.0385
19352TIP3    H179471   4.260   4.647  14.529  0.9692 -2.0192  0.1344
19352TIP3    H279472   4.196   4.571  14.643 -1.1165 -0.0149  0.3589
19353TIP3   OH279473   0.885   1.042  16.874  0.0317 -0.2934  0.9470
19353TIP3    H179474   0.843   1.038  16.788 -1.1348 -1.2403  1.5279
19353TIP3    H279475   0.979   1.041  16.855 -0.1494  1.7691 -0.3876
19354TIP3   OH279476   6.123   3.176  12.099 -0.6057 -0.0228 -0.1583
19354TIP3    H179477   6.119   3.258  12.048 -0.0046 -0.6888 -1.3143
19354TIP3    H279478   6.048   3.181  12.158 -0.8395  1.1578 -0.5266
19355TIP3   OH279479   2.797   0.150   0.557  0.3304 -0.4106 -0.6430
19355TIP3    H179480   2.705   0.148   0.584  0.4260  1.8877  0.0198
19355TIP3    H279481   2.844   0.110   0.630  0.0002 -0.0746 -0.2403
19356TIP3   OH279482   1.010   1.190   6.184 -0.1029 -0.1073  0.2408
19356TIP3    H179483   1.041   1.162   6.270  0.7033 -0.5524 -0.1781
19356TIP3    H279484   1.068   1.145   6.122 -1.8487 -1.3259 -0.5958
19357TIP3   OH279485   2.466   2.293   3.765  0.1248  0.0575  0.4221
19357TIP3    H179486   2.554   2.267   3.793  0.4471  1.3447  0.6930
19357TIP3    H279487   2.409   2.265   3.836  0.3706 -0.3793  0.4526
19358TIP3   OH279488   2.690   4.498  16.560  0.1108 -0.4228 -0.4646
19358TIP3    H179489   2.648   4.577  16.527 -0.0694 -0.9405 -1.4903
19358TIP3    H279490   2.685   4.507  16.656  0.0767  0.7878 -0.5632
19359TIP3   OH279491   0.450   4.745  16.786  0.1939 -0.0381  0.6878
19359TIP3    H179492   0.539   4.712  16.791  1.2804  2.5644  0.0260
19359TIP3    H279493   0.439   4.798  16.865 -1.6265 -2.0444  1.9170
19360TIP3   OH279494   2.426   5.762  15.040 -0.0601 -0.4519 -0.1002
19360TIP3    H179495   2.412   5.853  15.065 -0.6391 -0.3215 -0.8629
19360TIP3    H279496   2.351   5.740  14.985 -0.7368 -1.8832  1.3202
19361TIP3   OH279497   1.829   5.443   5.792 -0.0181 -0.5268 -0.0274
19361TIP3    H179498   1.791   5.369   5.840  0.7835  0.2102  1.8452
19361TIP3    H279499   1.754   5.492   5.759 -0.5911 -1.1086  0.3955
19362TIP3   OH279500   6.476   1.699  15.077  0.1520  0.1570 -0.6301
19362TIP3    H179501   6.479   1.788  15.043  2.2677  0.2320 -0.3763
19362TIP3    H279502   6.568   1.673  15.085 -0.2624 -0.8090  2.5230
19363TIP3   OH279503   3.143   0.248   5.605 -0.4866 -0.0600  0.2803
19363TIP3    H179504   3.116   0.340   5.616 -2.2904 -0.7433  2.3629
19363TIP3    H279505   3.062   0.198   5.614  0.1214 -1.8441 -2.7502
19364TIP3   OH279506   1.912   0.109  14.516 -0.0264 -0.2468 -0.0311
19364TIP3    H179507   1.900   0.199  14.484  0.6674 -0.3365 -0.5866
19364TIP3    H279508   1.877   0.110  14.604 -0.7248  0.3772 -0.3045
19365TIP3   OH279509   3.168   2.030  17.370  0.4325  0.3196 -0.3253
19365TIP3    H179510   3.212   2.110  17.397  1.8729  0.7480 -3.4990
19365TIP3    H279511   3.101   2.059  17.308 -1.7627 -0.6873  1.4497
19366TIP3   OH279512   0.097   6.145  14.131 -0.6536 -0.1328  0.6738
19366TIP3    H179513   0.070   6.058  14.103  1.3748 -0.2582 -1.2271
19366TIP3    H279514   0.193   6.143  14.126 -0.4088  1.4224  3.1914
19367TIP3   OH279515   6.293   0.382   2.451  0.1466  0.1496 -0.1296
19367TIP3    H179516   6.350   0.447   2.409 -0.0627 -0.2090 -1.0091
19367TIP3    H279517   6.207   0.396   2.410 -0.1181 -0.0742  0.3429
19368TIP3   OH279518   1.226   2.351  14.251  0.2289  0.1501  0.0120
19368TIP3    H179519   1.288   2.373  14.320 -0.0053  0.2351  0.1956
19368TIP3    H279520   1.204   2.435  14.211  0.1277  0.1361  0.0372
19369TIP3   OH279521   1.889   0.186  13.387  0.6483 -0.8745  0.7340
19369TIP3    H179522   1.964   0.236  13.421  1.0274  0.4421 -1.7804
19369TIP3    H279523   1.928   0.122  13.328 -0.1686  0.7503 -1.7070
19370TIP3   OH279524   1.528   0.019   4.367  0.4970 -0.0118 -0.7557
19370TIP3    H179525   1.484   0.015   4.281 -0.4391  0.7696 -0.3428
19370TIP3    H279526   1.619  -0.004   4.349  0.0507 -1.0797 -1.7504
19371TIP3   OH279527   5.800   5.620   1.181 -0.4649 -0.3806  0.0973
19371TIP3    H179528   5.719   5.654   1.220 -0.2291  0.8298 -0.4484
19371TIP3    H279529   5.770   5.558   1.114 -1.0374  1.5149 -1.4776
19372TIP3   OH279530   5.384   6.750  14.494 -0.3208  0.0894  0.1279
19372TIP3    H179531   5.383   6.845  14.510  1.5455  1.2034 -4.5862
19372TIP3    H279532   5.314   6.736  14.430  0.9703 -1.1828 -1.0650
19373TIP3   OH279533   5.010   5.051  12.968  0.3551  0.0351  0.4173
19373TIP3    H179534   4.995   4.980  13.031  0.5237 -0.8487 -0.5022
19373TIP3    H279535   5.098   5.036  12.935  0.0531  0.1311 -0.4564
19374TIP3   OH279536   1.202   2.820  11.110 -1.1211 -0.2757  0.0844
19374TIP3    H179537   1.293   2.794  11.121 -0.9674  0.6800  1.4084
19374TIP3    H279538   1.155   2.738  11.093  0.0641 -0.6821 -1.3693
19375TIP3   OH279539   2.635   3.390  11.869  0.2107  0.2055  0.0035
19375TIP3    H179540   2.654   3.319  11.807  0.9406 -0.0735  0.5357
19375TIP3    H279541   2.540   3.387  11.880  0.2657 -0.8719  0.2328
19376TIP3   OH279542   0.332   2.827  14.223  0.1089 -0.0526 -0.3216
19376TIP3    H179543   0.420   2.839  14.257  0.1180 -0.2315 -0.2831
19376TIP3    H279544   0.290   2.913  14.235 -0.0784 -0.2695  0.7045
19377TIP3   OH279545   0.323   4.651  13.963 -0.0844 -0.3585  0.0667
19377TIP3    H179546   0.357   4.601  13.888 -2.3346  0.5105 -1.6510
19377TIP3    H279547   0.340   4.594  14.038  0.8872 -1.9840 -1.2881
19378TIP3   OH279548   2.714   4.624  14.737  0.0698 -0.2597 -0.0249
19378TIP3    H179549   2.620   4.637  14.750 -0.5633 -2.4030 -1.7873
19378TIP3    H279550   2.740   4.566  14.808 -0.0261  0.0176  0.2379
19379TIP3   OH279551   4.269   4.835  14.048  0.1067 -0.2410  0.3571
19379TIP3    H179552   4.363   4.821  14.044  0.2184  0.6278 -0.4095
19379TIP3    H279553   4.238   4.773  14.114  1.2928 -0.0658  1.0975
19380TIP3   OH279554   1.656   0.749   1.315 -0.1924  0.0295 -0.4133
19380TIP3    H179555   1.614   0.722   1.396  0.1481 -0.0063 -0.2478
19380TIP3    H279556   1.707   0.673   1.287 -4.4455 -2.0968 -3.5378
19381TIP3   OH279557   3.713   3.684   5.837  0.1346 -0.2511  0.5814
19381TIP3    H179558   3.753   3.619   5.895 -1.5355 -1.1999  0.7375
19381TIP3    H279559   3.738   3.768   5.874  1.8113 -0.7928  0.7550
19382TIP3   OH279560   2.185   2.151  17.210 -0.2279 -0.2223  0.0391
19382TIP3    H179561   2.160   2.233  17.253  0.6926  0.5594 -0.8878
19382TIP3    H279562   2.277   2.140  17.231 -0.6598 -1.8100  1.3646
19383TIP3   OH279563   3.022   4.572   2.363  0.1329  0.3561  0.0374
19383TIP3    H179564   3.062   4.488   2.384 -0.5044  0.1543  0.4868
19383TIP3    H279565   3.075   4.637   2.410  0.1509  0.1288  0.3324
19384TIP3   OH279566   5.315   6.046  13.220 -0.2345  0.2531  0.1660
19384TIP3    H179567   5.311   6.136  13.252  0.9131 -0.0825  1.3730
19384TIP3    H279568   5.337   5.994  13.297  2.9805 -0.5723 -1.1023
19385TIP3   OH279569   1.117   1.043  14.208 -0.1822  0.5460 -0.4339
19385TIP3    H179570   1.137   1.132  14.236  0.7350  0.4081 -0.6297
19385TIP3    H279571   1.185   1.021  14.144 -1.0629  0.1106 -1.2411
19386TIP3   OH279572   3.162   5.518   4.203 -0.1039 -0.4677 -0.0579
19386TIP3    H179573   3.155   5.490   4.294  1.3545  0.9972  0.5505
19386TIP3    H279574   3.145   5.612   4.205 -0.7511 -0.5292 -1.4258
19387TIP3   OH279575   6.046   6.451  12.392 -0.5547 -0.4103 -0.4906
19387TIP3    H179576   5.959   6.422  12.419 -0.9630  1.7075  0.6844
19387TIP3    H279577   6.100   6.443  12.470  0.4269 -1.9113 -1.2682
19388TIP3   OH279578   6.384   1.448   1.399  0.6241  0.5297  0.3497
19388TIP3    H179579   6.394   1.370   1.453  0.8954  0.8318  0.7393
19388TIP3    H279580   6.459   1.503   1.422  0.0657  1.2143  0.5930
19389TIP3   OH279581   4.864   4.716  13.800 -0.3557  0.2656  0.6484
19389TIP3    H179582   4.905   4.800  13.779 -0.5081  0.5313  1.3837
19389TIP3    H279583   4.847   4.720  13.894 -3.6258  0.8693  0.1477
19390TIP3   OH279584   1.662   4.443   4.620  0.0088 -0.1395  0.2905
19390TIP3    H179585   1.734   4.388   4.589  0.3569 -0.2284  1.2344
19390TIP3    H279586   1.698   4.531   4.622  0.6311 -0.3814  2.2537
19391TIP3   OH279587   5.349   4.016   4.123 -0.2917 -0.4494  0.2186
19391TIP3    H179588   5.287   3.988   4.056  1.9340 -1.1515 -1.6743
19391TIP3    H279589   5.435   3.996   4.086  1.1414  1.4629  2.2525
19392TIP3   OH279590   2.169   5.588   2.982  0.1303  0.0038 -0.5579
19392TIP3    H179591   2.182   5.599   3.077  1.7310  0.7549 -0.8184
19392TIP3    H279592   2.151   5.495   2.971  1.3652 -0.3832  0.3839
19393TIP3   OH279593   3.628   2.430  17.347  0.0014 -0.2208 -0.1010
19393TIP3    H179594   3.663   2.516  17.370 -2.4363  1.0455 -0.7429
19393TIP3    H279595   3.614   2.386  17.430  0.4956  0.3498  0.2893
19394TIP3   OH279596   0.581   5.956   5.880  0.3189  0.6228 -0.5441
19394TIP3    H179597   0.610   6.045   5.858 -0.1613  1.2399  1.1467
19394TIP3    H279598   0.600   5.947   5.974 -0.5056 -0.7206 -0.4732
19395TIP3   OH279599   4.193   0.276   1.995 -0.2889 -0.1442  0.1360
19395TIP3    H179600   4.153   0.305   1.913  0.4622  1.4153  0.2786
19395TIP3    H279601   4.278   0.320   1.997  0.6687 -1.9145  0.7047
19396TIP3   OH279602   4.180   6.195   6.939 -0.2289  0.3173  0.4450
19396TIP3    H179603   4.193   6.106   6.973 -0.5356 -0.6630 -1.8447
19396TIP3    H279604   4.248   6.206   6.873  0.5580  2.2757  1.5090
19397TIP3   OH279605   5.351   2.627  15.344  0.0339 -1.0388  0.4618
19397TIP3    H179606   5.437   2.591  15.365  0.8146 -0.2000 -1.1118
19397TIP3    H279607   5.367   2.721  15.332 -0.7326 -1.1129 -1.5326
19398TIP3   OH279608   6.297   1.678  16.571 -0.3929  0.6596 -0.1798
19398TIP3    H179609   6.203   1.688  16.560 -0.2319  1.6176 -0.8467
19398TIP3    H279610   6.313   1.696  16.663 -1.0354 -1.1419  0.3184
19399TIP3   OH279611   6.219   4.314   5.376  0.8822  0.5463 -0.0479
19399TIP3    H179612   6.247   4.247   5.439 -0.9470  1.7463  2.2067
19399TIP3    H279613   6.294   4.325   5.318  2.4300 -1.1301  1.4827
19400TIP3   OH279614   5.600   1.369   2.931 -0.1078  0.5068 -0.1698
19400TIP3    H179615   5.512   1.334   2.943 -0.1005  0.5786  0.0973
19400TIP3    H279616   5.657   1.292   2.934 -0.0979  0.5291  0.3511
19401TIP3   OH279617   2.490   3.243  15.046  0.0431  0.2403 -0.5822
19401TIP3    H179618   2.583   3.222  15.059 -0.0920 -0.1969 -0.3038
19401TIP3    H279619   2.449   3.158  15.028 -0.6733  0.1164  1.4071
19402TIP3   OH279620   2.571   5.866  12.923  0.4135 -0.2996  0.0894
19402TIP3    H179621   2.640   5.812  12.961 -0.1154 -1.8051 -1.0055
19402TIP3    H279622   2.560   5.938  12.985  1.9722 -0.7904  0.9856
19403TIP3   OH279623   2.915   0.069   2.329 -0.6417 -0.6406  0.3761
19403TIP3    H179624   2.971   0.081   2.253 -2.4524 -1.2042 -1.1358
19403TIP3    H279625   2.946  -0.012   2.369 -0.5467 -1.1050 -0.6055
19404TIP3   OH279626   1.708   4.853  11.912  0.1726  0.2498  0.6670
19404TIP3    H179627   1.747   4.868  11.999 -3.0381  2.2104  1.9461
19404TIP3    H279628   1.720   4.937  11.866  2.0132 -0.8232 -1.0061
19405TIP3   OH279629   3.246   4.274  15.739  0.3593 -0.0448 -0.0859
19405TIP3    H179630   3.263   4.318  15.823  2.9595 -0.1870 -0.4418
19405TIP3    H279631   3.256   4.181  15.758 -1.0763 -0.2394 -0.1754
19406TIP3   OH279632   1.918   4.944  12.556 -0.2268 -0.3229 -0.2472
19406TIP3    H179633   1.848   5.008  12.562  0.8206  0.9298 -0.7099
19406TIP3    H279634   1.886   4.868  12.604 -1.3087  0.7346  0.7835
19407TIP3   OH279635   2.243   1.308   6.565  0.2196 -0.0646 -0.0502
19407TIP3    H179636   2.215   1.383   6.513  1.7867  0.9424  0.4614
19407TIP3    H279637   2.338   1.318   6.572  0.1315 -0.1928  2.8507
19408TIP3   OH279638   0.325   2.609  15.990 -0.5978 -0.4410  0.1164
19408TIP3    H179639   0.357   2.645  16.073 -0.8955 -0.0933  0.0838
19408TIP3    H279640   0.238   2.577  16.010 -0.7377 -0.2012 -0.0983
19409TIP3   OH279641   3.620   4.828  14.438  0.4882 -0.5867 -0.4304
19409TIP3    H179642   3.618   4.752  14.496 -1.0417 -0.2048  0.0724
19409TIP3    H279643   3.530   4.837  14.407  0.6836  0.8602 -0.6675
19410TIP3   OH279644   0.274   5.361  17.016  0.1062 -0.4370  0.0983
19410TIP3    H179645   0.217   5.417  17.068 -0.8161 -0.7593 -0.5577
19410TIP3    H279646   0.217   5.293  16.981  0.2660  0.8421 -2.9611
19411TIP3   OH279647   5.496   4.971  16.432  0.1745  0.1966  0.8885
19411TIP3    H179648   5.506   5.045  16.372  0.2282 -0.5734 -0.0703
19411TIP3    H279649   5.431   5.002  16.496  0.0646  1.0134  0.4071
19412TIP3   OH279650   3.180   1.565   1.000 -0.0536 -0.4699  0.1438
19412TIP3    H179651   3.231   1.641   0.974  2.5235 -1.7215  1.2493
19412TIP3    H279652   3.171   1.514   0.919 -0.8538  0.4219 -0.3577
19413TIP3   OH279653   1.515   6.054  12.458 -0.0478  0.6633  0.4173
19413TIP3    H179654   1.582   5.987  12.445  0.8893  1.3505  1.5385
19413TIP3    H279655   1.476   6.066  12.371  1.2901  0.2657 -0.2661
19414TIP3   OH279656   6.087   3.687   4.699 -0.3884 -0.4160  0.1589
19414TIP3    H179657   6.127   3.690   4.786 -0.6460  0.9694  0.2568
19414TIP3    H279658   6.135   3.618   4.653  0.0544 -0.8591  1.2469
19415TIP3   OH279659   1.802   1.459  16.878 -0.1972  0.0610  0.1353
19415TIP3    H179660   1.772   1.490  16.793  0.4196 -1.6603 -0.7643
19415TIP3    H279661   1.789   1.533  16.937 -1.6349  0.9493 -1.2192
19416TIP3   OH279662   5.284   3.025  12.814  0.2321  0.2594  0.1920
19416TIP3    H179663   5.224   3.093  12.785 -0.9649 -0.3904  1.0389
19416TIP3    H279664   5.336   3.004  12.737 -1.0959  0.3763 -0.7605
19417TIP3   OH279665   0.224   4.000   6.747 -0.6992 -0.2477  0.4453
19417TIP3    H179666   0.139   4.036   6.773 -1.0334 -0.5947 -0.1561
19417TIP3    H279667   0.269   4.074   6.707 -1.4865 -0.5140 -1.0238
19418TIP3   OH279668   1.655   1.804  13.969  0.2515  0.3638 -0.2936
19418TIP3    H179669   1.666   1.736  13.903 -1.8725 -0.5527  0.2254
19418TIP3    H279670   1.626   1.881  13.921  0.6020  0.2785 -0.6433
19419TIP3   OH279671   3.700   0.958   1.025 -0.1588 -0.4557  0.1546
19419TIP3    H179672   3.701   1.052   1.003  0.6860  0.0855  2.3178
19419TIP3    H279673   3.772   0.922   0.973  0.9818  0.5420  0.9756
19420TIP3   OH279674   0.693   4.054  12.923  0.2452 -0.3760  0.3678
19420TIP3    H179675   0.690   4.148  12.907 -1.4471 -0.2037  1.4536
19420TIP3    H279676   0.637   4.016  12.855  1.3145 -0.6849 -0.3736
19421TIP3   OH279677   0.466   2.789   2.325  0.3209 -0.0441  0.4994
19421TIP3    H179678   0.403   2.786   2.398 -0.8651  1.0928 -0.4326
19421TIP3    H279679   0.428   2.733   2.258 -0.4864  1.7398 -0.6175
19422TIP3   OH279680   4.238   4.215  11.436 -0.3233 -0.4204 -0.2330
19422TIP3    H179681   4.262   4.306  11.454  0.7978 -0.8028  0.2991
19422TIP3    H279682   4.262   4.201  11.344  0.8063 -0.5643  0.0696
19423TIP3   OH279683   0.113   1.309   4.085  0.6917  0.0134  0.8102
19423TIP3    H179684   0.060   1.234   4.110 -2.4984  1.3343 -1.2286
19423TIP3    H279685   0.149   1.286   3.999 -0.2627  0.7124  0.1971
19424TIP3   OH279686   4.299   4.747   2.514 -0.0362  0.0102  0.1831
19424TIP3    H179687   4.385   4.786   2.497 -0.1676  0.1515 -0.1643
19424TIP3    H279688   4.237   4.803   2.467 -0.7133  1.8996  3.0824
19425TIP3   OH279689   1.631   5.484   0.030  0.3344 -0.2346 -0.6190
19425TIP3    H179690   1.727   5.483   0.027  0.3202 -0.2984 -1.0896
19425TIP3    H279691   1.604   5.465  -0.060 -0.1097  1.3861 -0.8641
19426TIP3   OH279692   2.352   2.491   2.656  0.0375  0.1321  0.3779
19426TIP3    H179693   2.357   2.529   2.568  0.5871 -1.1371 -0.1646
19426TIP3    H279694   2.364   2.397   2.642 -1.3938 -0.2840  1.6514
19427TIP3   OH279695   0.509   6.413  11.260 -0.0848 -0.1715 -0.0626
19427TIP3    H179696   0.546   6.335  11.299 -0.8748 -0.6306 -0.2057
19427TIP3    H279697   0.582   6.474  11.253  0.1611 -0.2094  1.7525
19428TIP3   OH279698   0.613   1.089   5.302 -0.0160  0.4724  0.5097
19428TIP3    H179699   0.585   1.092   5.393  1.9394  0.5108  1.1591
19428TIP3    H279700   0.632   0.996   5.285  2.0839  0.7553  1.0041
19429TIP3   OH279701   2.134   0.882  11.372 -0.0889 -0.1688  0.1927
19429TIP3    H179702   2.119   0.872  11.466  0.1976 -0.8483  0.1699
19429TIP3    H279703   2.071   0.949  11.345  0.6757  0.9351  1.0860
19430TIP3   OH279704   3.616   5.121  11.899 -0.1511 -0.1009 -0.7716
19430TIP3    H179705   3.554   5.164  11.958  0.1016 -1.0199  0.2127
19430TIP3    H279706   3.675   5.191  11.871 -1.5350  0.7569 -1.6311
19431TIP3   OH279707   4.670   1.236   1.235 -0.2927 -0.3112  0.2857
19431TIP3    H179708   4.662   1.330   1.246  2.8710 -0.0336  1.2207
19431TIP3    H279709   4.584   1.201   1.262 -0.6833  2.1136  2.6199
19432TIP3   OH279710   5.986   4.610  11.448  0.1458  0.4485  0.3573
19432TIP3    H179711   5.972   4.576  11.360 -1.7931 -1.7283  1.3859
19432TIP3    H279712   6.075   4.582  11.471 -0.1163 -0.8703 -0.1573
19433TIP3   OH279713   2.689   1.043   0.184  0.4657 -0.1024 -0.5458
19433TIP3    H179714   2.701   0.990   0.262  0.9910 -0.9484 -1.1833
19433TIP3    H279715   2.599   1.076   0.190  0.1974 -0.9138 -0.0510
19434TIP3   OH279716   6.115   4.862   0.399  0.0363 -0.3751 -0.3847
19434TIP3    H179717   6.069   4.944   0.382  2.6621  1.1921 -0.5079
19434TIP3    H279718   6.175   4.852   0.326 -0.0531 -2.3332 -0.2509
19435TIP3   OH279719   0.290   6.752  17.229  0.5740  0.0902  0.5528
19435TIP3    H179720   0.348   6.793  17.292  1.7505 -2.2842  1.1444
19435TIP3    H279721   0.320   6.661  17.224  0.4467  0.0901 -3.3464
19436TIP3   OH279722   3.660   6.644   4.695 -0.2477  0.1501  0.4575
19436TIP3    H179723   3.584   6.604   4.737 -1.3549  2.1737  0.4610
19436TIP3    H279724   3.629   6.669   4.608  0.9400 -0.5522 -0.1934
19437TIP3   OH279725   6.584   3.120  11.563 -0.1811  0.0576  0.3493
19437TIP3    H179726   6.521   3.050  11.578 -0.8815  0.9217  1.6197
19437TIP3    H279727   6.532   3.191  11.526  0.3384  0.2580 -0.0055
19438TIP3   OH279728   4.148   1.384  11.946  0.0336  0.4022  0.2431
19438TIP3    H179729   4.176   1.461  11.996  0.8079 -0.0947  0.5904
19438TIP3    H279730   4.062   1.362  11.982  0.0211  0.8220  0.4707
19439TIP3   OH279731   0.235   5.431   2.236 -0.6653 -0.0215  0.0831
19439TIP3    H179732   0.257   5.483   2.159 -1.6848  0.3409  0.0235
19439TIP3    H279733   0.225   5.495   2.307 -0.3783 -0.2898  0.3715
19440TIP3   OH279734   5.864   0.624  13.510 -0.7509 -0.2273  0.6523
19440TIP3    H179735   5.865   0.555  13.576 -0.0743 -1.0968 -0.2406
19440TIP3    H279736   5.954   0.630  13.480 -1.0653  0.0323 -0.3006
19441TIP3   OH279737   4.647   2.214  13.352  0.1473  0.4137  0.2016
19441TIP3    H179738   4.692   2.276  13.411 -0.6051 -0.2003  1.4597
19441TIP3    H279739   4.566   2.259  13.327 -0.6336 -0.2161  1.5061
19442TIP3   OH279740   0.080   1.052  14.944 -0.0048 -0.3454 -0.4622
19442TIP3    H179741   0.097   0.960  14.961 -0.0316 -1.1172 -3.8108
19442TIP3    H279742   0.004   1.073  14.997  0.4589 -2.0137  0.9417
19443TIP3   OH279743   1.186   0.404  12.163  0.2629 -0.0772  0.2411
19443TIP3    H179744   1.228   0.388  12.247  2.9409 -1.2151 -1.2073
19443TIP3    H279745   1.108   0.348  12.164 -0.4031  0.7980  2.3383
19444TIP3   OH279746   1.637   1.592   1.486 -0.0099  0.2252  0.2453
19444TIP3    H179747   1.587   1.657   1.535  0.1350 -0.8705  1.9622
19444TIP3    H279748   1.704   1.562   1.548  0.4412 -0.9688 -0.7636
19445TIP3   OH279749   3.063   5.973   2.020 -0.6773  0.8161 -0.4691
19445TIP3    H179750   3.155   5.969   1.992 -0.5507 -0.5371  0.0675
19445TIP3    H279751   3.018   6.018   1.949  0.1566  0.1927 -1.4132
19446TIP3   OH279752   3.016   0.438  12.386  0.1501  0.0221 -0.6109
19446TIP3    H179753   3.020   0.431  12.481 -2.0716 -1.2622 -0.5608
19446TIP3    H279754   3.077   0.370  12.355 -0.5777 -0.8952 -0.0801
19447TIP3   OH279755   2.620   4.357   3.930 -0.1623 -0.2585  0.7526
19447TIP3    H179756   2.677   4.433   3.914 -0.1242 -0.0607  1.7365
19447TIP3    H279757   2.633   4.338   4.023 -0.9918 -0.8081  0.7582
19448TIP3   OH279758   1.261   5.791   4.737 -0.7583 -0.4343 -0.0855
19448TIP3    H179759   1.271   5.869   4.683 -0.8695  0.1284  0.6888
19448TIP3    H279760   1.168   5.791   4.762 -0.4264  0.0864  1.2266
19449TIP3   OH279761   1.862   5.181   0.219 -0.0753  0.3997 -0.0989
19449TIP3    H179762   1.907   5.158   0.138  0.2490 -0.2421  0.2546
19449TIP3    H279763   1.770   5.166   0.200 -0.1472  1.5926 -0.7832
19450TIP3   OH279764   5.171   4.736  14.329 -0.0564 -0.0935 -0.5044
19450TIP3    H179765   5.261   4.735  14.297 -0.4694  1.0342 -1.7878
19450TIP3    H279766   5.176   4.783  14.413  0.7916 -1.6948  0.4033
19451TIP3   OH279767   5.860   4.554  13.751 -0.3592 -0.2726  0.2711
19451TIP3    H179768   5.774   4.585  13.723 -0.6565 -1.0832  0.2754
19451TIP3    H279769   5.914   4.556  13.671 -0.1407  0.9776  0.4199
19452TIP3   OH279770   2.248   3.833   1.590  0.7803  0.1928  0.6183
19452TIP3    H179771   2.251   3.747   1.632  1.3337 -0.4788 -0.7341
19452TIP3    H279772   2.232   3.894   1.662  0.1190 -1.0558  1.5715
19453TIP3   OH279773   4.736   0.902   5.011 -0.2692  0.7817  0.1159
19453TIP3    H179774   4.749   0.807   5.018 -3.3251  0.1186 -1.5143
19453TIP3    H279775   4.725   0.932   5.101  0.9835 -0.3472  0.6678
19454TIP3   OH279776   6.474   2.337   4.581  0.6733  0.0556  1.1007
19454TIP3    H179777   6.418   2.401   4.537 -0.2390 -0.8907  0.8784
19454TIP3    H279778   6.508   2.283   4.510  1.0274 -0.0443  1.3447
19455TIP3   OH279779   6.164   2.224   0.806  0.1388  0.5422 -0.0007
19455TIP3    H179780   6.200   2.150   0.855  2.5868  0.5967 -1.5704
19455TIP3    H279781   6.218   2.298   0.832 -1.1919  1.4595  0.2612
19456TIP3   OH279782   0.085   5.333   1.485  0.3590 -0.8228  0.7151
19456TIP3    H179783   0.067   5.419   1.523 -2.4145 -0.7104 -0.6015
19456TIP3    H279784   0.129   5.285   1.555  1.8031  1.5502  1.5580
19457TIP3   OH279785   5.068   1.578  12.782 -0.0448 -0.5356  0.5380
19457TIP3    H179786   5.138   1.622  12.831  0.2918 -0.1505 -0.2621
19457TIP3    H279787   5.023   1.524  12.846  0.2772  0.0923  1.3018
19458TIP3   OH279788   0.209   5.575   2.618 -0.3446  0.6000  0.0477
19458TIP3    H179789   0.136   5.607   2.671 -2.2544 -2.0957 -0.7803
19458TIP3    H279790   0.188   5.603   2.529  0.4273  1.0361 -0.0120
19459TIP3   OH279791   0.919   1.015  11.631 -0.2097 -0.3654  0.2652
19459TIP3    H179792   0.968   0.943  11.591 -0.2650  0.8626 -2.1687
19459TIP3    H279793   0.876   0.975  11.707 -0.5954 -3.0278 -1.2126
19460TIP3   OH279794   5.658   5.564  12.909 -0.2251 -0.0801 -0.7414
19460TIP3    H179795   5.736   5.526  12.870 -0.5923 -2.0020  0.2575
19460TIP3    H279796   5.628   5.629  12.846  0.9211 -0.8792 -2.1558
19461TIP3   OH279797   6.539   1.985   1.671 -0.8196  0.2290  0.0409
19461TIP3    H179798   6.447   1.977   1.645 -0.8589 -0.2980  0.3371
19461TIP3    H279799   6.549   1.925   1.745 -0.1808  0.1147 -0.1328
19462TIP3   OH279800   6.030   6.751   6.398  0.7953 -0.4524  0.4061
19462TIP3    H179801   5.999   6.828   6.444  0.6115 -0.5387  0.4294
19462TIP3    H279802   6.097   6.713   6.454 -0.6284 -1.5389  1.4569
19463TIP3   OH279803   5.302   3.343   2.486  0.1079  0.2582  0.0447
19463TIP3    H179804   5.312   3.369   2.394  1.3907  0.9386  0.3487
19463TIP3    H279805   5.391   3.348   2.522 -0.3444 -0.1895  1.2818
19464TIP3   OH279806   4.686   1.026  13.122  0.7217  0.6104 -0.6730
19464TIP3    H179807   4.768   0.977  13.131  0.4192 -0.6131 -3.4344
19464TIP3    H279808   4.629   0.967  13.073 -1.3318  2.0084 -0.0950
19465TIP3   OH279809   3.101   6.145  13.310 -0.0261 -0.0303 -0.2766
19465TIP3    H179810   3.093   6.240  13.303  0.8613 -0.0176 -1.5751
19465TIP3    H279811   3.189   6.127  13.277 -0.7733 -1.4375 -1.6214
19466TIP3   OH279812   6.511   5.292   3.028  0.3313  0.0049 -0.1520
19466TIP3    H179813   6.525   5.357   2.959 -0.4514  0.5642  0.2043
19466TIP3    H279814   6.596   5.286   3.072  0.0241  2.0061  0.8314
19467TIP3   OH279815   1.028   1.753  15.851  0.1311 -0.6080  0.4620
19467TIP3    H179816   1.094   1.796  15.797 -0.7625  0.4127  0.1419
19467TIP3    H279817   0.992   1.823  15.905 -2.7400 -0.4456 -1.4469
19468TIP3   OH279818   1.197   0.296   3.766  0.0021  0.6612  0.4462
19468TIP3    H179819   1.222   0.243   3.690 -0.8870 -1.3464  1.5006
19468TIP3    H279820   1.142   0.239   3.819  1.1240  1.7514  2.9696
19469TIP3   OH279821   2.918   2.840  15.695 -0.0388  0.7318  0.1543
19469TIP3    H179822   2.846   2.791  15.735 -0.0657 -0.5725 -1.3727
19469TIP3    H279823   2.879   2.882  15.619  1.0274 -1.2375 -1.6013
19470TIP3   OH279824   0.592   3.748  13.273 -0.2764  0.1400 -0.2936
19470TIP3    H179825   0.620   3.661  13.246 -0.1133 -0.0522  0.4685
19470TIP3    H279826   0.646   3.808  13.220  1.0088 -0.2296  0.5544
19471TIP3   OH279827   6.414   6.761   1.713  0.5872  0.3172  0.3573
19471TIP3    H179828   6.350   6.757   1.784  0.3982  2.7054  0.4132
19471TIP3    H279829   6.464   6.680   1.721 -1.9411 -1.3437  0.7284
19472TIP3   OH279830   5.213   5.799  13.692  0.2499 -0.5604 -0.5343
19472TIP3    H179831   5.129   5.765  13.660 -0.5624 -0.0836  0.9859
19472TIP3    H279832   5.277   5.733  13.666  0.1563  0.8341 -5.2391
19473TIP3   OH279833   5.951   5.277   2.913  0.1342  0.3691  0.5123
19473TIP3    H179834   6.012   5.229   2.858  0.9091  0.6027  1.1381
19473TIP3    H279835   5.935   5.359   2.865  1.0214  0.6948  0.7391
19474TIP3   OH279836   0.515   2.571  15.589  0.5142 -0.0577  0.6103
19474TIP3    H179837   0.543   2.514  15.517 -0.2651  1.7320 -1.2002
19474TIP3    H279838   0.593   2.623  15.610 -0.1952  2.0748 -1.6384
19475TIP3   OH279839   6.211   5.515  11.691 -0.1070  0.8246  0.2337
19475TIP3    H179840   6.197   5.472  11.606 -1.2160 -3.1674  2.2007
19475TIP3    H279841   6.136   5.573  11.701  0.4542  2.0047 -1.7573
19476TIP3   OH279842   1.469   4.528   0.088  0.5928  0.5979 -0.2824
19476TIP3    H179843   1.432   4.444   0.062 -2.3967  1.7772 -0.1867
19476TIP3    H279844   1.516   4.508   0.169 -2.2648 -0.6475  1.2278
19477TIP3   OH279845   6.331   1.313  11.814  0.5545  0.2037 -0.2139
19477TIP3    H179846   6.325   1.246  11.882  0.8349  0.5440  0.1541
19477TIP3    H279847   6.425   1.328  11.803  0.4984  2.3690  1.5681
19478TIP3   OH279848   5.038   6.027  11.473 -0.0821 -0.1133 -0.5860
19478TIP3    H179849   4.966   5.965  11.477  0.5519 -0.8464 -0.2502
19478TIP3    H279850   5.032   6.077  11.554  0.0900 -0.5319 -0.3100
19479TIP3   OH279851   1.091   0.037   5.569 -0.1496  0.3380  0.1881
19479TIP3    H179852   1.015  -0.018   5.588 -0.0273  0.4221  0.9448
19479TIP3    H279853   1.147   0.028   5.646  0.3389  0.7350 -0.1141
19480TIP3   OH279854   2.671   1.734   1.797  0.2064  0.2356 -0.1151
19480TIP3    H179855   2.705   1.821   1.815  0.1307 -0.0359  1.4946
19480TIP3    H279856   2.577   1.740   1.812  0.1221 -0.0075 -0.5059
19481TIP3   OH279857   6.041   5.251   4.984 -0.5762  0.0580  0.8239
19481TIP3    H179858   6.025   5.163   5.017 -0.2066  0.9771  3.8310
19481TIP3    H279859   6.134   5.267   5.003 -0.0849  0.3977 -1.6147
19482TIP3   OH279860   3.266   0.553   1.213  0.1507  0.5971 -0.1535
19482TIP3    H179861   3.199   0.552   1.281  0.7495 -0.2112  0.4448
19482TIP3    H279862   3.246   0.475   1.160 -0.8056  1.6640 -1.4188
19483TIP3   OH279863   2.012   0.346   4.475  0.3030 -0.0765 -0.2282
19483TIP3    H179864   1.959   0.268   4.458 -1.5333  1.0011  0.2806
19483TIP3    H279865   2.047   0.332   4.563  0.2577 -0.4580 -0.2679
19484TIP3   OH279866   4.503   4.030  12.077  0.1665  0.0306 -0.1188
19484TIP3    H179867   4.519   4.101  12.015 -2.0596  1.2340  0.5478
19484TIP3    H279868   4.521   3.950  12.028  1.6995  1.0086 -1.2346
19485TIP3   OH279869   4.807   1.343   2.478  0.7507 -0.3325  0.1023
19485TIP3    H179870   4.883   1.304   2.521  1.4926  0.4026 -0.5110
19485TIP3    H279871   4.836   1.431   2.453 -0.7731  0.5332  1.1858
19486TIP3   OH279872   1.108   1.288   4.635 -0.2367 -1.0197  0.2654
19486TIP3    H179873   1.189   1.314   4.680 -0.9499  3.2206 -0.5596
19486TIP3    H279874   1.135   1.266   4.546  0.2581 -2.2936  0.7024
19487TIP3   OH279875   2.708   4.081   3.966  0.1191  0.6795 -0.1949
19487TIP3    H179876   2.756   4.145   3.914 -0.1900  1.4678  0.4589
19487TIP3    H279877   2.771   4.010   3.981  1.3944  2.0561  1.3366
19488TIP3   OH279878   2.507   5.035  13.993  0.0199  0.2380 -0.5367
19488TIP3    H179879   2.493   5.033  14.087  1.2249 -1.8672 -0.3165
19488TIP3    H279880   2.423   5.007  13.955 -0.1737  0.1366 -0.0354
19489TIP3   OH279881   5.781   3.655   2.075  0.0071  0.5857  0.0259
19489TIP3    H179882   5.749   3.634   2.163 -0.2104 -1.3679 -0.4665
19489TIP3    H279883   5.782   3.750   2.072 -0.4158  0.6972  1.9850
19490TIP3   OH279884   6.650   4.004   4.587 -0.2450 -0.2959 -0.1781
19490TIP3    H179885   6.556   4.017   4.600 -0.7596 -2.3770 -1.2705
19490TIP3    H279886   6.664   3.912   4.610  1.4467 -0.1591 -0.5313
19491TIP3   OH279887   2.614   3.351   2.397  0.3880 -0.2480 -0.2549
19491TIP3    H179888   2.684   3.348   2.462  0.3878  2.1656 -0.0578
19491TIP3    H279889   2.613   3.442   2.367 -0.8189 -0.8763 -2.3196
19492TIP3   OH279890   4.103   2.040  12.175  0.3124  0.0089  0.1222
19492TIP3    H179891   4.183   2.042  12.122  0.8484  2.8779  0.8617
19492TIP3    H279892   4.033   2.019  12.113  1.2036  1.1258 -1.3356
19493TIP3   OH279893   5.378   0.954   1.293  0.4900  0.1636  0.5083
19493TIP3    H179894   5.323   0.956   1.215  0.8168  0.0821  0.2766
19493TIP3    H279895   5.364   0.867   1.330  3.6807 -1.5822 -1.8780
19494TIP3   OH279896   2.777   4.000  16.884 -0.1866  0.1880  0.6855
19494TIP3    H179897   2.862   4.035  16.911 -0.1788  0.0621  0.8298
19494TIP3    H279898   2.797   3.933  16.818 -0.3135  1.7929 -1.0454
19495TIP3   OH279899   5.041   2.624   1.581 -0.4348  0.2799 -0.1594
19495TIP3    H179900   5.108   2.692   1.587 -1.2566  1.1355 -0.4219
19495TIP3    H279901   4.979   2.658   1.516 -0.1575 -1.3497 -1.3437
19496TIP3   OH279902   0.820   3.011  13.876 -0.8175  0.1053  0.3961
19496TIP3    H179903   0.879   3.077  13.912 -0.0744 -0.5168  0.3383
19496TIP3    H279904   0.746   3.061  13.842 -0.9930  0.7958  1.7103
19497TIP3   OH279905   3.819   2.209   0.360 -0.1676  0.3316 -0.6328
19497TIP3    H179906   3.850   2.166   0.440 -0.8235  1.9443  0.5377
19497TIP3    H279907   3.789   2.137   0.305  1.6637 -0.9424 -0.0689
19498TIP3   OH279908   1.989   1.664   5.686 -0.7265  0.5492  0.4694
19498TIP3    H179909   2.030   1.702   5.763  1.2395  0.7826 -0.6353
19498TIP3    H279910   2.034   1.705   5.612 -1.5743 -0.7112 -0.7946
19499TIP3   OH279911   0.934   6.614   3.108 -0.1269 -0.4791 -0.5941
19499TIP3    H179912   0.913   6.563   3.186  2.6303 -0.1105  0.4988
19499TIP3    H279913   0.926   6.705   3.135  1.3422 -0.3442 -0.5267
19500TIP3   OH279914   4.381   4.417  13.107 -0.0911  0.0744  1.0622
19500TIP3    H179915   4.291   4.443  13.123  0.0410  0.9461  0.4385
19500TIP3    H279916   4.434   4.485  13.148  0.2714  0.1701  0.4480
19501TIP3   OH279917   5.956   0.695  16.839 -0.1694 -0.5149  1.0240
19501TIP3    H179918   5.905   0.703  16.920 -0.0675  0.6764  0.9919
19501TIP3    H279919   6.040   0.736  16.860 -0.6909  1.2291 -0.1172
19502TIP3   OH279920   3.740   4.874   0.677 -0.6676 -0.5056  0.1210
19502TIP3    H179921   3.762   4.893   0.768 -0.0721  2.0123 -0.4785
19502TIP3    H279922   3.645   4.858   0.678 -1.0819  1.6127  0.9457
19503TIP3   OH279923   5.141   0.904   5.277  0.3099  0.2627 -0.6278
19503TIP3    H179924   5.219   0.942   5.317  0.5796 -0.0826 -0.8160
19503TIP3    H279925   5.175   0.837   5.217 -0.1167  0.3153 -0.9348
19504TIP3   OH279926   4.979   4.619  14.544 -0.0012 -0.2391  0.3637
19504TIP3    H179927   5.013   4.634  14.456  0.4843 -0.5028  0.5036
19504TIP3    H279928   4.925   4.540  14.536 -0.2307 -0.0701  0.2334
19505TIP3   OH279929   0.577   2.987  11.438 -0.5753  0.2494 -0.3872
19505TIP3    H179930   0.637   3.031  11.498 -0.8230 -1.1827  0.9843
19505TIP3    H279931   0.634   2.948  11.371 -0.0495 -0.3450  0.3960
19506TIP3   OH279932   3.766   4.812   4.593 -0.2681  0.4786 -0.7320
19506TIP3    H179933   3.686   4.841   4.638 -0.4758 -0.5965 -0.3884
19506TIP3    H279934   3.740   4.805   4.501 -0.8020 -0.6178 -0.5128
19507TIP3   OH279935   3.301   1.699  16.191  0.0449 -0.0482  0.2467
19507TIP3    H179936   3.371   1.761  16.212 -1.4921  0.9534  2.9358
19507TIP3    H279937   3.230   1.754  16.156 -1.1578 -0.2600  2.2130
19508TIP3   OH279938   5.611   5.617   0.437  0.1443 -0.6201 -0.4203
19508TIP3    H179939   5.568   5.564   0.504 -1.2004  1.7681  0.7215
19508TIP3    H279940   5.541   5.670   0.399  1.3711  0.1704 -1.6700
19509TIP3   OH279941   1.290   4.065  14.807 -0.2748 -0.2685  0.1798
19509TIP3    H179942   1.288   4.152  14.767  2.4365 -0.8025 -1.3636
19509TIP3    H279943   1.273   4.005  14.735 -0.6767 -1.1076  0.9513
19510TIP3   OH279944   4.488   2.888   0.049 -0.1301 -0.2448 -0.2925
19510TIP3    H179945   4.500   2.971   0.003 -0.6873 -0.9787 -1.8499
19510TIP3    H279946   4.436   2.910   0.126 -1.7510  0.6178 -1.5879
19511TIP3   OH279947   0.693   6.747   1.239  0.2846  0.2979  0.0249
19511TIP3    H179948   0.698   6.714   1.150  0.5079  0.8209 -0.1592
19511TIP3    H279949   0.608   6.716   1.272 -0.3513  1.1340 -0.7812
19512TIP3   OH279950   1.122   1.170  11.744  0.4470 -0.1258 -0.1976
19512TIP3    H179951   1.039   1.130  11.715 -0.6309  2.2878 -0.6987
19512TIP3    H279952   1.188   1.132  11.686 -0.4538 -1.2696 -0.5273
19513TIP3   OH279953   6.145   4.796   2.072 -0.5303 -0.1196 -0.0165
19513TIP3    H179954   6.081   4.755   2.131 -1.0916  3.2477  1.9835
19513TIP3    H279955   6.102   4.876   2.042  0.9839 -0.1603 -2.5592
19514TIP3   OH279956   0.740   1.993   5.906 -0.6830 -0.8480 -0.4310
19514TIP3    H179957   0.731   2.029   5.994 -2.0536 -2.9485  0.3793
19514TIP3    H279958   0.819   1.939   5.909  0.6817  0.9981 -1.2849
19515TIP3   OH279959   5.429   4.905   1.820 -0.0471  0.3840 -0.2849
19515TIP3    H179960   5.334   4.902   1.825 -0.0497 -1.7533 -0.4895
19515TIP3    H279961   5.459   4.834   1.877  1.2914 -0.6420 -2.1363
19516TIP3   OH279962   5.318   0.308   2.410  0.2119 -0.3282 -0.0414
19516TIP3    H179963   5.346   0.306   2.318 -0.6998 -0.6889 -0.3308
19516TIP3    H279964   5.249   0.375   2.412 -0.5713 -1.1225  0.1285
19517TIP3   OH279965   6.097   2.040  13.353  0.1619 -0.2869 -0.5433
19517TIP3    H179966   6.081   1.947  13.364  2.0098 -1.4341 -5.1413
19517TIP3    H279967   6.012   2.077  13.329 -0.3008 -1.0074 -0.0655
19518TIP3   OH279968   3.776   1.412  13.129 -0.2744  0.6536 -0.6042
19518TIP3    H179969   3.824   1.460  13.062  1.3480  0.7541  0.5441
19518TIP3    H279970   3.756   1.477  13.196  1.6332 -0.1167  0.8031
19519TIP3   OH279971   4.296   6.481   4.932  0.1025 -0.0478 -1.1320
19519TIP3    H179972   4.221   6.465   4.989 -1.1205  0.1216 -2.6359
19519TIP3    H279973   4.368   6.432   4.972 -0.1246  1.7192  1.7050
19520TIP3   OH279974   2.623   2.099   1.692  0.5276  0.2809  0.2327
19520TIP3    H179975   2.687   2.056   1.748  0.5171  0.2079  0.1884
19520TIP3    H279976   2.555   2.130   1.752 -0.5370 -1.5922  0.0823
19521TIP3   OH279977   5.047   5.578  12.580 -0.3831 -0.5864 -0.4404
19521TIP3    H179978   5.065   5.595  12.488 -2.4231  1.9565 -0.4961
19521TIP3    H279979   4.975   5.515  12.579  0.7148 -1.8718 -0.5008
19522TIP3   OH279980   3.775   0.161  12.187 -0.1889 -0.2982  0.1605
19522TIP3    H179981   3.855   0.206  12.215 -0.8361  0.8052  0.2435
19522TIP3    H279982   3.776   0.168  12.091  0.3151 -1.1661  0.0913
19523TIP3   OH279983   5.427   2.236   5.289 -0.0428 -0.0025 -0.3181
19523TIP3    H179984   5.505   2.204   5.244 -1.3787 -1.1420 -1.9510
19523TIP3    H279985   5.416   2.177   5.362  1.5637  1.2377  1.0188
19524TIP3   OH279986   4.034   3.126  14.749  0.4858  0.1249  0.1837
19524TIP3    H179987   3.994   3.056  14.801  1.3905 -1.3070 -0.9532
19524TIP3    H279988   4.115   3.146  14.795  1.3467 -1.2298 -0.6515
19525TIP3   OH279989   1.641   2.424   2.700 -0.7520 -0.0477  0.0122
19525TIP3    H179990   1.607   2.483   2.633  1.5481  1.8771  0.3822
19525TIP3    H279991   1.582   2.435   2.774 -1.0886  0.8451 -0.3718
19526TIP3   OH279992   0.263   4.161  16.788 -0.2936 -0.3180 -0.1335
19526TIP3    H179993   0.209   4.227  16.832 -0.8939  0.0334 -1.3461
19526TIP3    H279994   0.294   4.104  16.858  1.2149  1.9058  1.1679
19527TIP3   OH279995   1.780   4.037  14.596 -0.4904  0.0611 -0.0288
19527TIP3    H179996   1.740   4.102  14.538  1.0045 -0.3888 -1.6753
19527TIP3    H279997   1.739   3.954  14.571  1.0890 -0.3461 -1.4797
19528TIP3   OH279998   3.052   4.320  11.629 -0.2078  1.2185  0.1073
19528TIP3    H179999   3.044   4.375  11.551 -0.0646 -0.2314 -0.9902
19528TIP3    H280000   2.971   4.269  11.630 -0.2072  1.2206  0.9238
19529TIP3   OH280001   2.309   5.848   2.679  0.6592 -0.0245  0.3133
19529TIP3    H180002   2.366   5.771   2.673  0.2269 -0.3103 -0.2480
19529TIP3    H280003   2.220   5.812   2.679  0.4492  0.4839 -0.1087
19530TIP3   OH280004   5.822   4.233   1.256  0.1591  0.2189  0.3871
19530TIP3    H180005   5.825   4.283   1.337  0.6779 -0.5199  0.8410
19530TIP3    H280006   5.745   4.267   1.209 -1.4951 -0.8169  2.1770
19531TIP3   OH280007   5.890   2.512   2.490  0.1667 -0.4992  0.0904
19531TIP3    H180008   5.894   2.608   2.495  0.2105 -0.4287 -1.0096
19531TIP3    H280009   5.942   2.482   2.565  0.8825  0.3469 -0.0456
19532TIP3   OH280010   4.810   5.468   6.001 -0.0591 -0.5698 -0.2703
19532TIP3    H180011   4.743   5.490   6.066 -1.2424  0.4206 -1.7694
19532TIP3    H280012   4.854   5.551   5.983 -0.2666 -0.6642 -1.2801
19533TIP3   OH280013   6.085   0.461  16.765 -0.2337  0.1608  0.1486
19533TIP3    H180014   6.081   0.541  16.817  0.9426 -0.0100  0.5413
19533TIP3    H280015   6.135   0.485  16.687 -0.7078  0.0520 -0.1885
19534TIP3   OH280016   1.324   2.788  15.263 -0.0592  0.2623 -0.6142
19534TIP3    H180017   1.345   2.704  15.305  2.1327  1.0138 -0.0647
19534TIP3    H280018   1.263   2.830  15.323 -0.1662 -0.4071 -0.2442
19535TIP3   OH280019   0.114   3.675   3.073 -0.2402  0.3649  1.2287
19535TIP3    H180020   0.174   3.745   3.047  0.5038 -1.1842 -1.6923
19535TIP3    H280021   0.166   3.620   3.132  0.9975 -0.4772 -0.5745
19536TIP3   OH280022   6.528   0.342  14.920  0.4523 -0.9329 -1.1812
19536TIP3    H180023   6.443   0.356  14.961  0.4338  0.1933 -1.5655
19536TIP3    H280024   6.589   0.332  14.993  0.2506 -0.0487 -0.8830
19537TIP3   OH280025   2.383   6.248   1.054 -0.3353  0.0197  0.5450
19537TIP3    H180026   2.461   6.233   0.999 -0.0574  0.0875  0.9150
19537TIP3    H280027   2.413   6.310   1.121 -0.5454 -0.3952  1.0285
19538TIP3   OH280028   3.976   5.695   4.179  0.5197 -0.7965 -0.0912
19538TIP3    H180029   3.934   5.723   4.261 -0.7817  0.2163 -1.0634
19538TIP3    H280030   4.068   5.720   4.190 -0.0162  1.1934  0.2968
19539TIP3   OH280031   3.080   0.581  15.723  0.2028 -0.3076 -0.5379
19539TIP3    H180032   3.067   0.487  15.735 -1.1409 -0.2704 -1.4861
19539TIP3    H280033   3.096   0.615  15.812  4.2819 -1.8524 -0.4879
19540TIP3   OH280034   3.443   5.921  15.908  0.5116 -0.4524 -0.1107
19540TIP3    H180035   3.368   5.870  15.939  0.3631 -0.1158  0.0855
19540TIP3    H280036   3.480   5.868  15.837  1.2368 -1.5367  1.0384
19541TIP3   OH280037   4.041   2.328   5.073 -0.3995  0.6235  0.2732
19541TIP3    H180038   3.953   2.358   5.095 -1.0902 -1.1596  0.0841
19541TIP3    H280039   4.074   2.286   5.153  0.5916  1.9049  0.5720
19542TIP3   OH280040   2.629   0.656  11.633 -0.1016 -0.0787  0.4472
19542TIP3    H180041   2.722   0.633  11.625  0.0809  0.5451  0.6816
19542TIP3    H280042   2.588   0.576  11.667  0.2053 -0.6197 -0.4045
19543TIP3   OH280043   1.633   4.285  11.622  0.5709  0.2258  0.1375
19543TIP3    H180044   1.726   4.287  11.599  0.8088 -0.4433  0.9944
19543TIP3    H280045   1.603   4.375  11.611  1.9321  1.0146  2.2661
19544TIP3   OH280046   2.330   3.980  16.107 -0.1782  0.1494  0.3729
19544TIP3    H180047   2.240   3.949  16.095 -0.1705  0.2862 -0.0418
19544TIP3    H280048   2.328   4.026  16.191 -0.8201  1.3254 -0.2662
19545TIP3   OH280049   4.423   1.653   0.982 -0.0862  0.7354  0.0071
19545TIP3    H180050   4.456   1.598   1.052 -1.0931  0.2806  0.1392
19545TIP3    H280051   4.355   1.600   0.939 -1.1642  1.8996  0.2190
19546TIP3   OH280052   2.760   2.027  13.713  0.3396 -0.1618  0.2366
19546TIP3    H180053   2.706   2.012  13.790 -0.1304  0.6046  0.0739
19546TIP3    H280054   2.830   2.085  13.743  0.4165 -0.2341  0.1962
19547TIP3   OH280055   2.476   0.827  12.986  0.2064  0.4315 -0.1147
19547TIP3    H180056   2.506   0.745  12.948  0.0552  0.1720  0.3149
19547TIP3    H280057   2.469   0.887  12.912  0.3812  0.0770 -0.4206
19548TIP3   OH280058   3.545   1.883   2.914 -0.5318 -0.0456 -0.0721
19548TIP3    H180059   3.565   1.816   2.848 -0.8232  0.4109 -0.6298
19548TIP3    H280060   3.563   1.840   2.998  0.7124 -0.3323 -0.4706
19549TIP3   OH280061   4.726   3.685   5.573  0.2520 -0.6568 -0.4320
19549TIP3    H180062   4.732   3.626   5.497 -0.0246 -0.7953 -0.3501
19549TIP3    H280063   4.658   3.749   5.547  0.6388 -0.2964 -0.5719
19550TIP3   OH280064   4.919   0.913  13.873  0.5071  0.5201 -0.3736
19550TIP3    H180065   4.920   0.946  13.783  2.4398  0.4965 -0.4108
19550TIP3    H280066   4.827   0.916  13.899  0.0798  1.8010 -1.8775
19551TIP3   OH280067   3.287   2.021  14.277  1.0797  0.4000  0.2302
19551TIP3    H180068   3.344   2.026  14.200  0.0779 -1.0136 -0.6791
19551TIP3    H280069   3.300   1.932  14.310 -0.1205  0.2499  0.3508
19552TIP3   OH280070   4.522   5.767   1.990 -0.0790  0.0380  0.2895
19552TIP3    H180071   4.472   5.727   1.919 -2.3055  0.4612  1.5359
19552TIP3    H280072   4.508   5.861   1.978  0.0699  0.1407  0.8941
19553TIP3   OH280073   2.554   4.444  14.469  1.1103 -0.2567 -0.1528
19553TIP3    H180074   2.594   4.414  14.388  0.0374  0.6602 -1.0633
19553TIP3    H280075   2.475   4.391  14.479 -1.1953  2.4595 -2.1571
19554TIP3   OH280076   0.001   4.714   1.580  0.0541 -0.1870  0.0123
19554TIP3    H180077   0.096   4.706   1.593  0.2108 -0.0425 -0.9857
19554TIP3    H280078  -0.036   4.644   1.634  0.7090 -0.1073  0.5885
19555TIP3   OH280079   5.156   1.612   1.392  0.2008  0.1535 -0.0829
19555TIP3    H180080   5.092   1.676   1.421 -0.2763 -0.5792  0.5232
19555TIP3    H280081   5.221   1.663   1.343 -1.9882  0.6523 -2.7147
19556TIP3   OH280082   0.445   3.343  10.333 -0.0973  0.1984  0.1892
19556TIP3    H180083   0.424   3.431  10.301 -0.9352  0.0248  0.2319
19556TIP3    H280084   0.369   3.290  10.307  0.6897 -0.6569 -0.4098
19557TIP3   OH280085   4.365   5.017   3.897 -0.0435 -1.0083 -0.2858
19557TIP3    H180086   4.381   4.997   3.805 -1.4428 -1.4101 -0.4748
19557TIP3    H280087   4.280   4.977   3.916 -0.2976  0.0040  0.8825
19558TIP3   OH280088   5.693   3.378   4.831 -0.1241 -0.0135 -1.0401
19558TIP3    H180089   5.634   3.415   4.766  0.1817  1.9272 -0.2771
19558TIP3    H280090   5.780   3.390   4.795 -0.0648 -2.9181 -2.1840
19559TIP3   OH280091   5.110   2.467   1.804 -0.2400 -0.1778 -0.0096
19559TIP3    H180092   5.101   2.541   1.744  1.9124 -0.6645 -1.0491
19559TIP3    H280093   5.171   2.408   1.759 -0.7251 -1.8745  1.4611
19560TIP3   OH280094   5.390   6.760   3.043  0.0214 -0.7033 -0.0504
19560TIP3    H180095   5.353   6.845   3.066 -0.4794 -0.2320 -2.4049
19560TIP3    H280096   5.376   6.706   3.121 -0.5998  1.0431  1.0999
19561TIP3   OH280097   0.489   6.670  10.687  0.5310 -0.2136 -0.0235
19561TIP3    H180098   0.578   6.684  10.653  1.4973 -2.0442  1.5413
19561TIP3    H280099   0.463   6.756  10.721  0.6906  0.9320 -2.5813
19562TIP3   OH280100   4.133   1.004   1.061  0.1060 -0.2283  0.3375
19562TIP3    H180101   4.155   1.084   1.109  0.5619 -1.0043  1.4711
19562TIP3    H280102   4.075   0.955   1.120 -0.5012 -0.5674 -0.5041
19563TIP3   OH280103   5.961   3.380   4.148  0.1296 -0.2813 -0.3100
19563TIP3    H180104   5.915   3.315   4.200 -1.0801  0.7708 -0.0176
19563TIP3    H280105   5.893   3.422   4.095  0.9033  0.6255 -0.6230
19564TIP3   OH280106   4.027   5.711  14.881  0.1490 -0.2765  0.6144
19564TIP3    H180107   4.032   5.629  14.833 -0.5930  0.1620 -0.2608
19564TIP3    H280108   3.992   5.687  14.967  1.4799 -1.0701  0.9566
19565TIP3   OH280109   0.274   0.037   7.050 -0.4841 -0.4473  0.3509
19565TIP3    H180110   0.349   0.006   7.101 -0.9466 -0.5929  0.9470
19565TIP3    H280111   0.310   0.107   6.995 -0.3557  1.1465  2.3414
19566TIP3   OH280112   5.927   0.723  11.047  0.3779  0.1019 -0.5452
19566TIP3    H180113   5.833   0.711  11.063  0.2118 -0.0966 -1.5808
19566TIP3    H280114   5.959   0.636  11.025  0.5884  0.3331 -1.1903
19567TIP3   OH280115   2.568   0.899  16.885  0.0542  0.8464 -0.5331
19567TIP3    H180116   2.561   0.890  16.980 -0.0773  1.4777 -0.4791
19567TIP3    H280117   2.480   0.879  16.852  0.2788 -0.0976 -0.5889
19568TIP3   OH280118   2.510   1.994   4.304  0.4813 -0.1746  0.1408
19568TIP3    H180119   2.577   2.009   4.237 -0.0263  0.1288 -0.3010
19568TIP3    H280120   2.439   1.951   4.257  1.2177 -2.5050  1.0256
19569TIP3   OH280121   5.111   3.978   5.629 -0.4156  0.5489 -0.3487
19569TIP3    H180122   5.165   3.928   5.568 -0.7194 -0.2342  0.0158
19569TIP3    H280123   5.166   3.990   5.706 -1.1637 -1.3699  0.5435
19570TIP3   OH280124   1.084   3.714  16.952  0.1390 -0.3055 -0.0558
19570TIP3    H180125   1.097   3.809  16.956  1.3090 -0.4912  1.6491
19570TIP3    H280126   1.080   3.686  17.044 -1.0142 -1.8154 -0.5256
19571TIP3   OH280127   1.995   4.783  10.762  0.2997 -0.0627  0.6136
19571TIP3    H180128   1.905   4.752  10.758  1.0108 -2.2302 -0.0436
19571TIP3    H280129   1.988   4.873  10.792 -2.1485  0.2440 -0.6386
19572TIP3   OH280130   1.483   2.773  12.968 -0.6198 -0.0383  0.5541
19572TIP3    H180131   1.413   2.769  12.901 -0.1312 -0.2745  0.0486
19572TIP3    H280132   1.561   2.743  12.922 -0.2247  0.0274  1.1790
19573TIP3   OH280133   1.986   3.240   2.157 -0.6240 -0.5031 -0.1585
19573TIP3    H180134   2.060   3.300   2.169  0.0760 -1.0531 -1.4414
19573TIP3    H280135   1.960   3.215   2.245 -0.6813  1.3749  0.3895
19574TIP3   OH280136   5.687   0.519  14.445 -0.6322  0.2035  0.0091
19574TIP3    H180137   5.607   0.565  14.471 -1.1852 -0.5715 -0.3035
19574TIP3    H280138   5.758   0.579  14.470 -1.3024  0.8885  0.3064
19575TIP3   OH280139   0.973   3.947   2.295  0.9551  0.5564  0.3996
19575TIP3    H180140   0.921   3.976   2.371  0.8639  1.1204  0.1252
19575TIP3    H280141   0.908   3.933   2.226  0.9421 -0.7583  0.6529
19576TIP3   OH280142   3.123   3.121  12.891  0.2681  0.2766 -0.0411
19576TIP3    H180143   3.206   3.102  12.848  0.2144 -1.0535  0.3937
19576TIP3    H280144   3.057   3.087  12.831  0.0813  0.5405  0.0148
19577TIP3   OH280145   1.254   5.640  14.324  0.5571 -0.3066  0.4350
19577TIP3    H180146   1.189   5.570  14.321 -0.4160  0.4541  2.1462
19577TIP3    H280147   1.203   5.720  14.335  1.7318  0.4929  0.3209
19578TIP3   OH280148   4.851   2.189   6.520  0.5447 -0.5820 -0.4176
19578TIP3    H180149   4.885   2.186   6.610 -0.5206 -0.1832  0.0130
19578TIP3    H280150   4.883   2.272   6.485 -0.2124 -0.0638  0.0892
19579TIP3   OH280151   4.646   4.362   0.962  0.3839  0.4088  0.5624
19579TIP3    H180152   4.665   4.318   0.879 -2.3542  0.1425 -0.0310
19579TIP3    H280153   4.633   4.454   0.938  0.6850  0.5357  0.8832
19580TIP3   OH280154   1.166   6.011  14.018 -0.9837 -0.1299  0.2686
19580TIP3    H180155   1.198   6.014  14.108  0.4901  2.5137 -0.2562
19580TIP3    H280156   1.226   5.952  13.973 -1.9216 -1.7297  1.0077
19581TIP3   OH280157   6.385   4.584   3.974  0.0666  0.0004 -0.1943
19581TIP3    H180158   6.465   4.574   4.025 -0.0204  0.8854  0.1362
19581TIP3    H280159   6.390   4.673   3.939 -0.5229 -0.1238 -0.6077
19582TIP3   OH280160   3.673   0.288  14.972  0.1086  0.1083 -0.5656
19582TIP3    H180161   3.683   0.198  15.003  3.2455  0.0481 -1.4109
19582TIP3    H280162   3.586   0.313  15.000  0.8590 -1.5011  4.1587
19583TIP3   OH280163   6.375   0.636  13.023  0.1125 -0.2260  0.1651
19583TIP3    H180164   6.452   0.581  13.015  0.0306 -0.2500 -0.4823
19583TIP3    H280165   6.303   0.575  13.041  0.0123 -0.3375 -0.6069
19584TIP3   OH280166   1.590   3.681  12.920  0.2524  0.2908 -0.0205
19584TIP3    H180167   1.561   3.715  12.835  2.0480  1.9008 -0.0383
19584TIP3    H280168   1.565   3.749  12.983 -1.2318 -0.9656  0.8497
19585TIP3   OH280169   4.384   3.935   5.997  0.3476 -0.1789 -0.2685
19585TIP3    H180170   4.475   3.960   5.982  0.6874 -0.9255  0.4800
19585TIP3    H280171   4.388   3.865   6.062 -0.8507  0.5786  0.6561
19586TIP3   OH280172   6.680   3.903  11.866 -0.5141 -0.1209  0.6137
19586TIP3    H180173   6.693   3.817  11.904  2.4393  0.1106  0.3815
19586TIP3    H280174   6.705   3.892  11.774 -1.1242  0.7568  0.3316
19587TIP3   OH280175   5.681   5.883   3.494  0.5136  0.3246  0.1332
19587TIP3    H180176   5.653   5.957   3.439  0.5872  0.7909  0.7160
19587TIP3    H280177   5.762   5.852   3.452  0.4716  0.5599 -0.1291
19588TIP3   OH280178   6.277   0.156   2.610  0.4659 -0.3014  0.7355
19588TIP3    H180179   6.271   0.079   2.553 -4.8010 -1.6114  2.5010
19588TIP3    H280180   6.284   0.230   2.551  1.7170 -1.8621 -1.1975
19589TIP3   OH280181   5.824   4.240  16.242  0.6837 -0.6387  0.0336
19589TIP3    H180182   5.820   4.145  16.255 -0.3068 -0.4672  1.1272
19589TIP3    H280183   5.887   4.270  16.308  0.8706 -0.5154 -0.2002
19590TIP3   OH280184   0.312   6.073  13.265 -0.3224 -0.3157 -0.3439
19590TIP3    H180185   0.344   6.044  13.351 -0.3677  1.3936  0.2803
19590TIP3    H280186   0.262   6.152  13.284 -2.7835 -1.4810 -1.6152
19591TIP3   OH280187   1.863   0.786   2.132 -0.4804  0.3930 -0.3890
19591TIP3    H180188   1.814   0.740   2.200  0.5629  0.3848  0.3852
19591TIP3    H280189   1.818   0.870   2.123 -2.0845 -0.5193 -1.4333
19592TIP3   OH280190   2.108   5.482   3.728  0.0815 -0.2970 -0.3948
19592TIP3    H180191   2.069   5.562   3.692  0.6544 -0.0500 -0.4827
19592TIP3    H280192   2.064   5.470   3.813 -1.0115 -0.6767 -0.9932
19593TIP3   OH280193   4.293   1.442   6.181  0.0856  0.2124 -0.7935
19593TIP3    H180194   4.240   1.494   6.121  0.6319  1.9282  0.1441
19593TIP3    H280195   4.379   1.436   6.140  0.2648  0.7930 -0.5047
19594TIP3   OH280196   0.345   2.687  17.126 -0.2490  0.3223  0.1182
19594TIP3    H180197   0.427   2.660  17.084 -0.4006  1.8509 -1.2466
19594TIP3    H280198   0.370   2.709  17.216  0.4366 -1.2079  0.3218
19595TIP3   OH280199   0.365   3.872   1.195  0.0130 -0.1350  0.1568
19595TIP3    H180200   0.282   3.855   1.150  0.1846  0.3286 -0.3428
19595TIP3    H280201   0.392   3.787   1.230  0.6668 -0.8482 -1.9425
19596TIP3   OH280202   5.883   4.091   4.022 -0.1825  0.0488 -0.2496
19596TIP3    H180203   5.834   4.026   4.072 -0.0789  0.4360  0.3643
19596TIP3    H280204   5.818   4.156   3.996  0.2598  1.6107  2.2421
19597TIP3   OH280205   5.365   5.209   4.391  0.1087 -0.5076 -0.0686
19597TIP3    H180206   5.315   5.208   4.473 -0.4088 -3.4060 -0.3343
19597TIP3    H280207   5.300   5.228   4.323 -0.5806 -3.3440 -0.3087
19598TIP3   OH280208   5.866   5.837  14.496  0.0094  0.5229 -0.5147
19598TIP3    H180209   5.812   5.765  14.527 -0.5615  1.0274 -0.2969
19598TIP3    H280210   5.849   5.841  14.402 -0.9382  1.1497 -0.3347
19599TIP3   OH280211   6.188   5.717   3.485  0.4664 -0.4040  0.2570
19599TIP3    H180212   6.181   5.779   3.558 -0.9028  1.6913 -1.5438
19599TIP3    H280213   6.282   5.714   3.466  0.7679 -0.4383  1.6040
19600TIP3   OH280214   5.750   6.572   1.256 -0.9366  0.0066  0.0490
19600TIP3    H180215   5.695   6.644   1.286  0.5453  0.6349  1.4217
19600TIP3    H280216   5.838   6.595   1.285 -0.0813 -1.4281 -1.2074
19601TIP3   OH280217   5.568   0.423   0.427 -0.0333  0.4164  0.1984
19601TIP3    H180218   5.609   0.487   0.486 -0.0683  1.7046 -1.1302
19601TIP3    H280219   5.601   0.446   0.340 -0.3215 -1.1790 -0.3548
19602TIP3   OH280220   5.987   4.219   0.349 -0.3053 -0.2174 -0.0944
19602TIP3    H180221   5.966   4.277   0.422  0.8707 -0.7808  0.7083
19602TIP3    H280222   6.001   4.133   0.389 -0.0769 -0.6317 -1.0366
19603TIP3   OH280223   6.673   2.877  13.601 -0.2713 -0.1115 -0.1638
19603TIP3    H180224   6.724   2.932  13.542  1.4148 -0.5927  0.7440
19603TIP3    H280225   6.595   2.853  13.551 -1.4213  3.5011 -0.3945
19604TIP3   OH280226   2.026   6.330   5.270  0.1875  0.2303 -0.2340
19604TIP3    H180227   1.941   6.292   5.290  1.0302 -0.7633  1.7488
19604TIP3    H280228   2.041   6.394   5.340  1.6250 -0.5836  0.2467
19605TIP3   OH280229   4.830   1.534   3.021  0.5303  0.4280 -0.0026
19605TIP3    H180230   4.806   1.547   3.113 -1.8934 -0.9255 -0.3379
19605TIP3    H280231   4.752   1.494   2.982  1.6597  0.5216 -2.5532
19606TIP3   OH280232   4.692   1.081   1.013 -0.1223 -0.0424  0.1525
19606TIP3    H180233   4.622   1.039   1.062 -1.9078  1.3886 -1.0663
19606TIP3    H280234   4.696   1.170   1.048  0.9791 -0.0433  0.0667
19607TIP3   OH280235   6.410   0.131   2.241  0.0926 -0.1878  0.4026
19607TIP3    H180236   6.364   0.054   2.275 -1.6301  0.9711  0.8392
19607TIP3    H280237   6.453   0.169   2.317 -0.7163  0.3595  0.6037
19608TIP3   OH280238   4.789   1.161  13.699  0.4092 -0.2191  0.0229
19608TIP3    H180239   4.729   1.223  13.739  1.4201 -1.3104  3.6325
19608TIP3    H280240   4.739   1.081  13.690 -0.1415  0.3067 -2.1933
19609TIP3   OH280241   6.199   2.015   5.020  0.6363 -0.7974  0.0526
19609TIP3    H180242   6.158   2.101   5.011  1.6177 -0.5000 -2.0001
19609TIP3    H280243   6.133   1.962   5.064  0.1738  1.0843  1.8371
19610TIP3   OH280244   0.433   2.412  14.819  0.7853 -0.3854  0.2417
19610TIP3    H180245   0.344   2.421  14.787  1.1167 -0.6256 -0.8057
19610TIP3    H280246   0.447   2.318  14.825  2.1409 -0.5534 -3.2385
19611TIP3   OH280247   3.207   3.277  11.561  0.6602 -0.2309  0.0683
19611TIP3    H180248   3.132   3.327  11.528  2.4241  2.3064 -0.3734
19611TIP3    H280249   3.177   3.241  11.644 -0.8216  1.3631  0.2897
19612TIP3   OH280250   0.414   1.912   3.908  0.8487  0.7645  0.1818
19612TIP3    H180251   0.338   1.873   3.865  0.2417  0.9231  1.0994
19612TIP3    H280252   0.489   1.877   3.860  0.2177  0.3065 -0.4886
19613TIP3   OH280253   2.987   4.818  12.223  0.4613 -0.5765  0.6282
19613TIP3    H180254   3.012   4.729  12.195 -1.8801 -1.3034  0.5940
19613TIP3    H280255   2.892   4.814  12.232  0.3426  1.8324  1.1059
19614TIP3   OH280256   4.391   6.013  11.625 -0.1852  0.3870  0.3989
19614TIP3    H180257   4.326   5.956  11.584 -0.6083  0.2871  1.1766
19614TIP3    H280258   4.349   6.042  11.706  1.5488 -1.5010  2.1092
19615TIP3   OH280259   0.363   4.770  16.283 -0.3589 -0.2035 -0.2311
19615TIP3    H180260   0.297   4.791  16.350 -0.3668 -0.0701 -0.2803
19615TIP3    H280261   0.412   4.696  16.320 -0.5334 -0.3008 -0.1926
19616TIP3   OH280262   3.770   6.402   5.043 -0.4783  0.7073  0.0066
19616TIP3    H180263   3.697   6.400   4.980  0.1453  1.5635 -0.7819
19616TIP3    H280264   3.746   6.470   5.105 -2.3995 -1.9352  2.4324
19617TIP3   OH280265   3.398   4.999  12.403  0.1476  0.1019  0.0321
19617TIP3    H180266   3.321   5.056  12.409  0.2383  0.3595 -1.0378
19617TIP3    H280267   3.364   4.911  12.420 -0.2468  0.3031  0.3067
19618TIP3   OH280268   5.278   1.048   5.690  0.3278  0.3675  0.1088
19618TIP3    H180269   5.315   1.031   5.777  0.4040  0.5989  0.1222
19618TIP3    H280270   5.226   0.970   5.670  0.5910  0.1636  0.2130
19619TIP3   OH280271   2.083   2.862   4.288 -0.2139  0.4750 -0.1713
19619TIP3    H180272   1.997   2.820   4.286 -0.7255  1.4945 -1.4874
19619TIP3    H280273   2.081   2.923   4.214  0.5934  2.5675  1.4118
19620TIP3   OH280274   2.164   2.912   5.729  0.1738 -0.1811 -0.0776
19620TIP3    H180275   2.142   2.894   5.821  2.9613  1.4225  1.0435
19620TIP3    H280276   2.196   2.828   5.695  0.3142 -0.5146  0.8393
19621TIP3   OH280277   2.723   2.686   1.864  0.5886 -0.2307  0.0356
19621TIP3    H180278   2.766   2.726   1.788  0.6371  0.4819  0.4237
19621TIP3    H280279   2.740   2.593   1.856 -0.1525 -0.2781 -1.3073
19622TIP3   OH280280   5.992   0.480   1.711  0.0781  0.5798  0.4846
19622TIP3    H180281   6.026   0.402   1.755  1.1482  0.9835  0.3987
19622TIP3    H280282   5.958   0.447   1.627 -0.5840  0.0409  0.9473
19623TIP3   OH280283   6.401   5.786   1.241 -0.5688  0.0127 -0.2784
19623TIP3    H180284   6.398   5.708   1.186  0.5844  1.0152 -1.8180
19623TIP3    H280285   6.402   5.859   1.180  2.4418  1.1454  0.9217
19624TIP3   OH280286   3.719   4.011  12.267  0.2281 -0.2356  0.2562
19624TIP3    H180287   3.627   4.015  12.291  0.5686 -1.4076  1.9840
19624TIP3    H280288   3.763   3.979  12.346  2.0997  0.1176 -0.5728
19625TIP3   OH280289   1.579   6.624   0.293  0.3291 -0.3314 -0.1374
19625TIP3    H180290   1.661   6.646   0.248  0.6961 -2.5342 -0.6454
19625TIP3    H280291   1.604   6.557   0.356 -1.1283 -1.3228 -0.5662
19626TIP3   OH280292   3.458   5.820   4.883 -0.0677 -0.2254  0.1243
19626TIP3    H180293   3.479   5.913   4.881  0.2045 -0.2102  1.7964
19626TIP3    H280294   3.459   5.792   4.792  0.2293  1.3228 -0.3670
19627TIP3   OH280295   0.035   1.321   5.265  0.1485 -0.4723  0.1950
19627TIP3    H180296   0.119   1.274   5.262  0.1624 -0.4733  0.5764
19627TIP3    H280297   0.056   1.409   5.235  0.4353 -0.2578  0.9962
19628TIP3   OH280298   6.681   1.420   2.667  0.2256  0.1102  0.1972
19628TIP3    H180299   6.693   1.499   2.720  2.3948 -0.0821  0.0541
19628TIP3    H280300   6.714   1.444   2.580 -0.2382 -0.5939 -0.1830
19629TIP3   OH280301   5.973   3.626   1.390  0.3155  0.2275 -0.2270
19629TIP3    H180302   5.991   3.693   1.455  0.2450 -0.4167  0.4707
19629TIP3    H280303   6.059   3.598   1.358  0.3375  0.7778 -0.6655
19630TIP3   OH280304   3.129   0.068   1.347  0.7365 -0.2082 -0.1409
19630TIP3    H180305   3.187   0.144   1.350  1.0323 -0.3853 -1.0640
19630TIP3    H280306   3.157   0.014   1.421 -0.1816  1.0577  1.1730
19631TIP3   OH280307   4.773   5.444  12.156 -0.0345  0.3106 -0.3280
19631TIP3    H180308   4.685   5.461  12.191  0.8623  0.7611  1.9078
19631TIP3    H280309   4.777   5.348  12.147 -1.0364  0.3466 -1.3260
19632TIP3   OH280310   6.368   1.223  15.568 -0.4729 -0.2891 -0.2267
19632TIP3    H180311   6.283   1.258  15.539 -0.2911 -0.1309 -0.5812
19632TIP3    H280312   6.347   1.167  15.642 -0.8518  0.0083 -0.1068
19633TIP3   OH280313   2.828   5.755   2.043  0.0106  0.5267 -0.2896
19633TIP3    H180314   2.767   5.828   2.030 -2.9752 -1.8355 -0.6147
19633TIP3    H280315   2.847   5.757   2.137 -2.6923 -0.1125  0.3595
19634TIP3   OH280316   1.040   6.635  16.721 -0.5946 -0.0440  0.2054
19634TIP3    H180317   1.100   6.605  16.789  0.4057  0.6323 -0.3529
19634TIP3    H280318   0.963   6.665  16.769  0.6439  1.7700  1.1914
19635TIP3   OH280319   5.520   1.986  16.823  0.1367  0.3827  0.2191
19635TIP3    H180320   5.476   1.926  16.883 -1.5108  2.1110  0.8489
19635TIP3    H280321   5.581   2.036  16.879  0.7489  0.0227 -0.1114
19636TIP3   OH280322   5.674   1.356   3.455 -0.4571  0.2108 -0.1505
19636TIP3    H180323   5.593   1.402   3.431  1.4856  4.2751  0.1701
19636TIP3    H280324   5.665   1.337   3.549 -0.8116  1.2468  0.0332
19637TIP3   OH280325   0.250   2.027   0.384  0.7911  0.2887 -0.0308
19637TIP3    H180326   0.269   2.115   0.351  0.7107  0.5295  0.5615
19637TIP3    H280327   0.220   1.979   0.307 -0.1169  1.0499 -0.1645
19638TIP3   OH280328   0.580   1.709  11.608 -0.1501  0.6192  0.0640
19638TIP3    H180329   0.553   1.790  11.652 -0.6512  0.3285  0.2885
19638TIP3    H280330   0.570   1.641  11.674  2.9089  0.7251  0.8171
19639TIP3   OH280331   3.401   2.793   5.957 -0.3613  0.1135 -0.3316
19639TIP3    H180332   3.379   2.832   5.873  0.5690  0.4718 -0.4226
19639TIP3    H280333   3.474   2.847   5.990  0.2328 -0.8893  0.0377
19640TIP3   OH280334   5.414   0.834   4.614  0.0022  0.0071  0.1822
19640TIP3    H180335   5.460   0.894   4.673 -0.0095  0.2131 -0.0159
19640TIP3    H280336   5.386   0.889   4.541 -2.3378  0.3130  1.2222
19641TIP3   OH280337   4.615   6.402   2.840 -0.6717 -0.1884  0.1887
19641TIP3    H180338   4.653   6.420   2.754 -1.2045 -0.1365 -0.0395
19641TIP3    H280339   4.563   6.480   2.860  1.5797  1.0277  1.7867
19642TIP3   OH280340   0.593   1.186  12.281  0.3181 -0.1945  0.1207
19642TIP3    H180341   0.590   1.260  12.221  0.6830 -0.3589 -0.0987
19642TIP3    H280342   0.680   1.149  12.270  1.4359  1.3756  2.6873
19643TIP3   OH280343   2.890   0.620   0.830 -0.1640  0.1467  0.2008
19643TIP3    H180344   2.831   0.613   0.755  1.6100  0.6070 -1.2939
19643TIP3    H280345   2.834   0.651   0.901 -2.2879 -1.9849 -0.3941
19644TIP3   OH280346   5.909   2.801   2.533 -0.6359 -0.0433 -0.5726
19644TIP3    H180347   5.831   2.841   2.495 -0.0594  0.0914 -1.6702
19644TIP3    H280348   5.930   2.855   2.609 -0.7957  0.7760 -1.0967
19645TIP3   OH280349   4.786   2.271  12.075  0.1086  0.3004  0.8057
19645TIP3    H180350   4.851   2.202  12.090 -0.3316  0.0080  1.3987
19645TIP3    H280351   4.830   2.351  12.105  0.2405  0.1219  1.0985
19646TIP3   OH280352   3.184   4.803  16.122  1.1366  0.3472 -0.4248
19646TIP3    H180353   3.218   4.767  16.204 -1.3151 -0.6408  0.2552
19646TIP3    H280354   3.218   4.745  16.054  2.4587  0.6459 -0.0505
19647TIP3   OH280355   6.153   4.398   6.079 -0.3797 -0.0790  0.1202
19647TIP3    H180356   6.092   4.456   6.125  1.4852  1.2764  1.0027
19647TIP3    H280357   6.144   4.314   6.124 -0.2730  0.6088  1.4957
19648TIP3   OH280358   0.304   4.653   1.658 -0.0401  0.5456 -0.0666
19648TIP3    H180359   0.290   4.688   1.746 -2.1634  0.8322 -0.4523
19648TIP3    H280360   0.386   4.692   1.629  0.0891  1.3885  1.3192
19649TIP3   OH280361   4.661   1.276  12.484 -0.0468  0.0179  0.2763
19649TIP3    H180362   4.676   1.335  12.557  0.9651  0.6861 -0.4470
19649TIP3    H280363   4.604   1.324  12.425 -0.5002 -0.3473  0.4098
19650TIP3   OH280364   4.855   3.348  13.094  0.2328 -0.0276  0.5256
19650TIP3    H180365   4.927   3.319  13.151  0.8015 -0.3549 -0.3295
19650TIP3    H280366   4.823   3.429  13.134  2.5221  1.3487 -0.2111
19651TIP3   OH280367   5.813   3.653   4.224 -0.5298  0.0560 -0.1928
19651TIP3    H180368   5.814   3.748   4.241 -0.6274  0.0363 -0.0710
19651TIP3    H280369   5.889   3.619   4.271 -0.3416  0.1092 -0.4561
19652TIP3   OH280370   2.389   2.131   6.065 -0.0649 -0.3670  0.1574
19652TIP3    H180371   2.356   2.041   6.073  0.7040 -0.5777  1.1449
19652TIP3    H280372   2.311   2.183   6.047 -0.7599 -1.0231  1.1369
19653TIP3   OH280373   0.031   1.981  16.339 -0.5786  0.4616  0.0105
19653TIP3    H180374   0.074   1.896  16.331 -0.1314  0.6856  0.0264
19653TIP3    H280375   0.005   2.003  16.249  0.4925  0.9196 -0.2012
19654TIP3   OH280376   4.866   0.990  16.631 -0.1438  0.0697  0.2512
19654TIP3    H180377   4.877   0.902  16.594  0.9934 -0.2826  1.3592
19654TIP3    H280378   4.943   1.002  16.686 -0.9990  1.2082  1.2307
19655TIP3   OH280379   2.826   0.828  12.180 -0.0216  0.1513  0.9778
19655TIP3    H180380   2.916   0.800  12.197 -0.0503 -0.0873  0.7440
19655TIP3    H280381   2.822   0.839  12.085 -0.3872 -0.3713  0.9277
19656TIP3   OH280382   2.593   4.915   1.988  0.1110  0.1687  0.2331
19656TIP3    H180383   2.591   4.838   1.931 -1.4502  0.1233  0.3097
19656TIP3    H280384   2.560   4.986   1.933 -0.9011  0.2340  0.9071
19657TIP3   OH280385   2.207   6.273  12.628  0.3632 -0.5250 -0.0256
19657TIP3    H180386   2.219   6.194  12.681  2.2018  0.0688  0.5447
19657TIP3    H280387   2.247   6.343  12.680 -1.5531  0.8794 -0.3433
19658TIP3   OH280388   4.148   1.875   3.815 -0.2393 -0.0160  0.7220
19658TIP3    H180389   4.237   1.893   3.843 -0.1452 -0.1523  0.5113
19658TIP3    H280390   4.145   1.906   3.724 -0.1858 -0.7074  0.4816
19659TIP3   OH280391   5.626   1.372   2.552  0.6062  0.2094 -0.6837
19659TIP3    H180392   5.573   1.447   2.580  1.3014  0.6688 -0.5695
19659TIP3    H280393   5.575   1.296   2.580  0.9711  0.6366  1.3364
19660TIP3   OH280394   2.920   4.067  14.567 -0.0839 -0.5299  0.2602
19660TIP3    H180395   2.880   4.154  14.569  0.6537 -0.1667 -0.3106
19660TIP3    H280396   2.846   4.008  14.552 -0.8048 -0.1778  2.1374
19661TIP3   OH280397   4.161   2.952  15.846 -0.3256 -0.2998  0.0374
19661TIP3    H180398   4.141   3.003  15.924  1.1254  1.1571 -0.4855
19661TIP3    H280399   4.077   2.937  15.804 -0.9122  0.5088  0.9075
19662TIP3   OH280400   4.398   6.401  16.697 -0.0158  0.3854  1.0805
19662TIP3    H180401   4.439   6.462  16.635 -0.9667  0.6641  0.7116
19662TIP3    H280402   4.439   6.317  16.677  0.2227  0.6163  0.5630
19663TIP3   OH280403   1.656   6.754   6.425  0.1816 -0.1941 -0.5696
19663TIP3    H180404   1.730   6.694   6.418  0.5469  0.2278 -0.3546
19663TIP3    H280405   1.691   6.830   6.471 -0.1443  0.4170 -1.3163
19664TIP3   OH280406   5.551   1.889   5.880 -0.4571 -0.5397  0.0712
19664TIP3    H180407   5.515   1.886   5.968  0.1370  0.5134  0.3608
19664TIP3    H280408   5.487   1.842   5.827 -2.3310  1.3206  0.5589
19665TIP3   OH280409   0.179   6.039   3.306  0.2842  0.0390 -0.2849
19665TIP3    H180410   0.170   6.081   3.391 -1.1331  1.5862 -1.1426
19665TIP3    H280411   0.243   6.092   3.259 -2.3992  2.2081 -1.8139
19666TIP3   OH280412   5.050   3.126  16.161 -0.4239 -0.0598 -0.1857
19666TIP3    H180413   5.066   3.101  16.070  1.5925  0.2628  0.0134
19666TIP3    H280414   5.034   3.043  16.207  1.4980 -0.5911 -0.3626
19667TIP3   OH280415   1.727   3.051   0.179 -0.0051  0.0908 -0.1424
19667TIP3    H180416   1.818   3.024   0.196 -0.2444 -0.0790  0.9978
19667TIP3    H280417   1.677   3.012   0.251 -0.8243  1.0463 -0.1647
19668TIP3   OH280418   4.353   4.048   0.841 -0.2454  0.2136  0.4344
19668TIP3    H180419   4.416   3.992   0.888  0.5688 -1.3513 -2.3250
19668TIP3    H280420   4.403   4.084   0.768 -2.4640 -1.0632 -1.8557
19669TIP3   OH280421   2.146   4.692  13.315 -0.5227  0.0149 -0.0082
19669TIP3    H180422   2.085   4.690  13.241 -1.9878 -2.6816  1.1070
19669TIP3    H280423   2.174   4.601  13.325  4.5791  1.1586 -0.9883
19670TIP3   OH280424   3.495   5.209  16.421 -0.3543 -0.8793 -0.6705
19670TIP3    H180425   3.588   5.209  16.447 -0.3789  1.4073 -0.3871
19670TIP3    H280426   3.462   5.293  16.453 -2.2185 -1.1046 -1.9081
19671TIP3   OH280427   1.568   1.835  12.590  0.1947  0.1121 -0.9171
19671TIP3    H180428   1.639   1.850  12.652  0.0895  1.1568 -1.0340
19671TIP3    H280429   1.492   1.878  12.630  0.0183  0.3907 -1.5379
19672TIP3   OH280430   5.514   0.234   1.980 -0.1469 -0.8379  0.0369
19672TIP3    H180431   5.419   0.224   1.975 -0.1705 -0.0466 -1.7672
19672TIP3    H280432   5.531   0.258   2.072 -1.6320 -1.3686  0.4730
19673TIP3   OH280433   3.553   5.036   1.136  0.2878 -0.2546 -0.8729
19673TIP3    H180434   3.634   5.086   1.121 -0.9834  1.3974 -2.6355
19673TIP3    H280435   3.508   5.084   1.206  0.6910 -1.0409 -0.0551
19674TIP3   OH280436   4.316   0.728  16.035 -0.4535  0.1627 -0.0982
19674TIP3    H180437   4.341   0.727  15.942 -0.6329 -0.8886 -0.1499
19674TIP3    H280438   4.399   0.737  16.081 -0.2945  0.0237 -0.3506
19675TIP3   OH280439   4.532   4.336  10.864 -0.4688 -0.0839  0.6150
19675TIP3    H180440   4.483   4.416  10.880  0.9467  0.7612  0.9014
19675TIP3    H280441   4.600   4.361  10.801 -0.2619 -1.1509  0.3892
19676TIP3   OH280442   3.619   3.922   0.474  0.4166 -0.1915  0.7397
19676TIP3    H180443   3.670   3.915   0.554  0.2863 -2.5769  0.6665
19676TIP3    H280444   3.679   3.893   0.405 -0.1134 -0.1123  0.2417
19677TIP3   OH280445   4.269   6.103  13.916 -0.0061  0.1038  0.2886
19677TIP3    H180446   4.358   6.085  13.886 -0.7142 -1.0860 -1.2814
19677TIP3    H280447   4.218   6.026  13.887 -1.5515  0.7978  1.0456
19678TIP3   OH280448   4.879   5.344   2.654  0.1224  0.0064  0.1113
19678TIP3    H180449   4.812   5.404   2.621  0.7290  0.3834 -0.4429
19678TIP3    H280450   4.904   5.381   2.739 -1.9626 -1.3650  1.4128
19679TIP3   OH280451   0.704   2.572  14.330  0.4102  0.2665 -1.2283
19679TIP3    H180452   0.795   2.577  14.359  0.2417  1.4733 -0.8219
19679TIP3    H280453   0.653   2.576  14.411 -0.0144  0.2151 -1.4885
19680TIP3   OH280454   2.365   1.847  17.128 -0.0908 -0.6148 -0.1491
19680TIP3    H180455   2.455   1.840  17.096  0.1226  0.4088  0.1726
19680TIP3    H280456   2.313   1.799  17.064  0.4225  0.6848 -1.6107
19681TIP3   OH280457   0.266   6.426  13.978  0.0261 -0.6804  0.4589
19681TIP3    H180458   0.205   6.494  14.005  0.3157  0.1938 -0.9594
19681TIP3    H280459   0.256   6.420  13.883  2.0700 -0.5419  0.1704
19682TIP3   OH280460   3.065   1.825   5.528  0.3759 -0.2081  0.1940
19682TIP3    H180461   3.007   1.900   5.515 -2.1498 -1.8316  1.2649
19682TIP3    H280462   3.106   1.811   5.443  0.7767  2.2188 -0.0809
19683TIP3   OH280463   4.727   3.246  16.505 -0.2579 -0.2959 -0.0205
19683TIP3    H180464   4.641   3.204  16.506 -0.2817 -0.2783 -0.7922
19683TIP3    H280465   4.723   3.307  16.431  1.6539 -2.9729 -2.5401
19684TIP3   OH280466   4.108   0.505  14.903 -0.0810  0.0454  0.4171
19684TIP3    H180467   4.021   0.515  14.944  0.2444  1.8648  0.7556
19684TIP3    H280468   4.169   0.506  14.976  0.2733 -0.5508  0.1313
19685TIP3   OH280469   2.217   6.469   4.740 -0.1183 -0.7333  0.3973
19685TIP3    H180470   2.200   6.397   4.800  0.7445 -1.2293  0.0737
19685TIP3    H280471   2.253   6.539   4.795  1.6107 -1.5398  0.3590
19686TIP3   OH280472   1.051   3.136  15.580  0.1649  0.3943 -0.0841
19686TIP3    H180473   0.965   3.176  15.566  0.1086 -0.2033 -1.5548
19686TIP3    H280474   1.055   3.121  15.674 -1.1838  0.7815  0.0539
19687TIP3   OH280475   3.683   2.854  16.589  0.2720  0.4109 -0.1946
19687TIP3    H180476   3.773   2.880  16.568  0.2410  0.5689 -0.1322
19687TIP3    H280477   3.637   2.859  16.506  0.4085 -0.0430 -0.3010
19688TIP3   OH280478   1.870   5.362   5.226 -0.4377  0.0857  0.1962
19688TIP3    H180479   1.958   5.336   5.253 -0.1957 -0.6591 -1.2101
19688TIP3    H280480   1.864   5.455   5.246  0.1054 -0.1914  1.7199
19689TIP3   OH280481   4.594   0.821  15.873  0.1643 -0.4297 -0.0025
19689TIP3    H180482   4.647   0.856  15.801  0.6531  0.9344  0.9838
19689TIP3    H280483   4.632   0.735  15.891  1.2192 -0.0185 -0.1899
19690TIP3   OH280484   5.796   4.145   2.163  0.9264  0.3463  0.7111
19690TIP3    H180485   5.803   4.136   2.258  3.4028 -1.1147  0.4732
19690TIP3    H280486   5.785   4.056   2.131 -0.0987  0.8463 -0.3918
19691TIP3   OH280487   1.666   0.985   1.171 -0.5676 -0.2023 -0.5523
19691TIP3    H180488   1.631   0.910   1.219  0.3249 -1.3848 -1.6831
19691TIP3    H280489   1.631   0.976   1.082 -0.0356  0.4219 -0.8331
19692TIP3   OH280490   6.662   3.841   2.828 -0.1919 -0.1350 -0.3086
19692TIP3    H180491   6.661   3.914   2.890 -2.8247  0.0608 -0.4288
19692TIP3    H280492   6.629   3.879   2.746  0.6176 -0.9800 -1.0536
19693TIP3   OH280493   6.005   2.218  12.379  0.2910 -0.3269 -0.3834
19693TIP3    H180494   5.979   2.309  12.362  2.9139  0.3519 -1.2586
19693TIP3    H280495   6.075   2.226  12.444 -0.3987 -1.8796  0.5932
19694TIP3   OH280496   2.023   4.040   5.816  0.4512 -0.1584  0.0951
19694TIP3    H180497   2.028   3.950   5.786 -1.3472 -0.4480  0.5627
19694TIP3    H280498   2.050   4.036   5.908 -0.6523 -0.4176  0.4198
19695TIP3   OH280499   3.347   4.225  11.236 -0.7387 -0.2203 -0.0071
19695TIP3    H180500   3.357   4.173  11.156  1.9393  1.5911 -0.9943
19695TIP3    H280501   3.349   4.160  11.307  0.5145 -1.6386 -1.2536
19696TIP3   OH280502   4.414   5.751  12.890  0.5974  0.4252  0.1429
19696TIP3    H180503   4.388   5.770  12.980 -0.0912 -0.1678  0.0828
19696TIP3    H280504   4.443   5.660  12.893 -0.6605 -0.0206 -0.4696
19697TIP3   OH280505   0.149   6.671  14.022 -0.0507 -0.0513  0.1474
19697TIP3    H180506   0.174   6.670  13.929  0.6656  1.9215  0.2624
19697TIP3    H280507   0.086   6.744  14.028  2.9836  2.6707  1.8470
19698TIP3   OH280508   3.274   0.144  14.129  0.3675 -0.4269  0.2363
19698TIP3    H180509   3.271   0.091  14.208  0.7452 -1.2535 -0.2920
19698TIP3    H280510   3.271   0.081  14.057 -0.1290  0.3188 -0.4132
19699TIP3   OH280511   3.392   4.122   4.323  0.5402 -0.1247  0.2580
19699TIP3    H180512   3.421   4.124   4.231 -0.4201  1.9265 -0.0590
19699TIP3    H280513   3.308   4.076   4.320 -0.1175  1.0378 -0.1496
19700TIP3   OH280514   5.456   4.690  16.402  0.1539  0.3602  0.1495
19700TIP3    H180515   5.442   4.674  16.309 -4.1095 -0.7097  0.7723
19700TIP3    H280516   5.466   4.785  16.409  1.7506  0.3555 -1.4248
19701TIP3   OH280517   2.735   3.067  17.363  0.6033 -0.3213  0.1193
19701TIP3    H180518   2.830   3.068  17.351  0.4920 -0.0065 -0.7740
19701TIP3    H280519   2.709   3.159  17.366  0.0574 -0.3634 -1.9945
19702TIP3   OH280520   5.313   6.673  14.948  0.4449  0.4822 -0.6719
19702TIP3    H180521   5.366   6.667  14.868  0.8261  0.6033 -0.4279
19702TIP3    H280522   5.245   6.606  14.936  1.3109 -0.4596 -0.4950
19703TIP3   OH280523   2.653   2.480   3.054  0.1197  0.0655  0.0062
19703TIP3    H180524   2.723   2.545   3.055 -1.3892  1.8438 -1.6806
19703TIP3    H280525   2.625   2.476   2.962 -1.3314 -1.3213  0.4569
19704TIP3   OH280526   3.726   4.731  14.160  0.1399 -0.1068  0.6229
19704TIP3    H180527   3.661   4.742  14.090  0.1884  0.2423  0.6288
19704TIP3    H280528   3.706   4.803  14.221  0.4956 -0.0361  0.6534
19705TIP3   OH280529   3.828   5.887  15.117 -0.5778 -0.2818  0.2259
19705TIP3    H180530   3.836   5.979  15.092  1.8007 -0.6889 -0.8364
19705TIP3    H280531   3.798   5.842  15.038 -0.2937 -0.5973  0.2914
19706TIP3   OH280532   5.607   0.489   3.939 -0.8296  0.2975  0.0079
19706TIP3    H180533   5.599   0.580   3.969  1.1452  0.9128 -1.1674
19706TIP3    H280534   5.674   0.451   3.997 -0.1770  0.2090 -0.7924
19707TIP3   OH280535   4.449   5.386   1.922 -0.1935  0.4873 -0.1685
19707TIP3    H180536   4.418   5.323   1.858  0.5089 -0.2705  0.2156
19707TIP3    H280537   4.394   5.372   1.999  0.2512  0.0090  0.0743
19708TIP3   OH280538   1.823   1.472   2.446  0.1243  0.5736  0.1938
19708TIP3    H180539   1.772   1.550   2.422  0.1213  0.8648  1.0926
19708TIP3    H280540   1.760   1.400   2.445  0.6701 -0.0643 -3.5887
19709TIP3   OH280541   2.405   2.899  12.792  0.5103 -0.0438 -0.1382
19709TIP3    H180542   2.499   2.918  12.786  1.0206 -2.2359 -0.0647
19709TIP3    H280543   2.362   2.983  12.776  2.4821  1.1239  0.3524
19710TIP3   OH280544   6.741   1.366   0.656 -0.4228  0.4281  0.2044
19710TIP3    H180545   6.768   1.414   0.734 -0.7243 -0.6427  0.9917
19710TIP3    H280546   6.646   1.359   0.664 -0.2020 -2.2203  1.2893
19711TIP3   OH280547   0.753   3.239   5.847  0.1263 -0.7634 -0.1845
19711TIP3    H180548   0.669   3.275   5.820  0.2161 -0.2424  0.2164
19711TIP3    H280549   0.736   3.201   5.934  0.2575 -0.8375 -0.1902
19712TIP3   OH280550   4.366   6.004  15.317 -0.2447  0.2059  0.1276
19712TIP3    H180551   4.406   6.066  15.257 -0.0103 -1.5743 -1.6527
19712TIP3    H280552   4.439   5.971  15.370  0.3649 -1.4282 -1.6355
19713TIP3   OH280553   1.363   6.734  14.249  0.0468 -0.1954 -0.1346
19713TIP3    H180554   1.441   6.702  14.204  0.3136  1.3251 -0.8372
19713TIP3    H280555   1.289   6.698  14.199  0.3320  1.7413 -2.1150
19714TIP3   OH280556   2.015   4.654   2.207  0.5408 -0.5692 -0.3276
19714TIP3    H180557   1.922   4.654   2.230  1.1341 -0.7826  2.3278
19714TIP3    H280558   2.036   4.745   2.189  0.0887 -0.3526  0.2510
19715TIP3   OH280559   3.893   6.386  15.337  0.1581 -0.1355  0.1707
19715TIP3    H180560   3.828   6.349  15.397 -1.2586  0.3554 -0.9904
19715TIP3    H280561   3.932   6.310  15.293  0.1854 -0.4266  0.6932
19716TIP3   OH280562   1.193   2.573  16.217 -0.7671  0.0531  0.2107
19716TIP3    H180563   1.203   2.534  16.304  0.1330 -1.8830 -0.6841
19716TIP3    H280564   1.175   2.665  16.233  1.3513  0.1693  2.4271
19717TIP3   OH280565   5.399   4.253  12.888 -0.5014 -0.6389 -0.2137
19717TIP3    H180566   5.404   4.317  12.959 -0.1466  0.0088 -0.8068
19717TIP3    H280567   5.484   4.209  12.890 -0.4010 -0.4502 -0.3997
19718TIP3   OH280568   1.869   5.985  17.097 -0.4952  0.1707  0.0068
19718TIP3    H180569   1.909   5.905  17.132  0.4290 -0.1468 -1.6985
19718TIP3    H280570   1.890   6.052  17.162  0.4430 -0.5554  0.4830
19719TIP3   OH280571   0.653   5.157  16.976 -0.0258 -0.4998 -0.3029
19719TIP3    H180572   0.741   5.185  16.952  0.1969 -0.7245  0.2320
19719TIP3    H280573   0.667   5.072  17.019 -0.7663 -2.1491 -3.0229
19720TIP3   OH280574   4.679   0.401  11.365  0.2682  0.2944 -0.4952
19720TIP3    H180575   4.608   0.444  11.318 -0.4350  0.4907  0.7149
19720TIP3    H280576   4.737   0.367  11.296 -0.9980  0.1089 -1.4908
19721TIP3   OH280577   4.140   3.299   0.277  0.0049 -0.1042  0.7437
19721TIP3    H180578   4.220   3.352   0.281 -0.7961  1.2288  0.0948
19721TIP3    H280579   4.158   3.223   0.332  1.7132  0.1658  0.5928
19722TIP3   OH280580   5.607   6.218  14.654  0.1222 -0.9107 -0.0968
19722TIP3    H180581   5.657   6.212  14.573  0.1336  0.2488 -0.1818
19722TIP3    H280582   5.521   6.251  14.627  1.0605  2.5579  0.6536
19723TIP3   OH280583   2.962   2.981  13.252  0.3711  0.2000  0.3003
19723TIP3    H180584   3.048   2.992  13.211  0.2235  2.5591  0.4545
19723TIP3    H280585   2.980   2.932  13.332  1.6102  0.7323  0.3811
19724TIP3   OH280586   1.255   1.948   5.244 -0.7884 -0.2866  0.8265
19724TIP3    H180587   1.172   1.971   5.286 -1.6981 -0.9657 -0.5275
19724TIP3    H280588   1.293   1.882   5.301 -2.9309 -2.6615 -0.2653
19725TIP3   OH280589   4.596   4.191  16.574  0.1209 -0.1500 -0.5764
19725TIP3    H180590   4.507   4.213  16.547  0.0449 -1.1227 -1.1427
19725TIP3    H280591   4.604   4.227  16.662 -0.5213  0.7331 -0.8693
19726TIP3   OH280592   5.307   4.160   3.440 -0.2550 -0.4845 -0.3993
19726TIP3    H180593   5.217   4.190   3.451 -0.0908 -0.4134  0.9084
19726TIP3    H280594   5.299   4.075   3.397 -0.7716  0.8703 -3.2084
19727TIP3   OH280595   3.895   6.349  16.029  0.2554  0.4465 -0.1646
19727TIP3    H180596   3.812   6.396  16.039  0.1132  0.0385  0.6680
19727TIP3    H280597   3.930   6.380  15.945  0.3285  2.2568  0.4973
19728TIP3   OH280598   0.032   6.319   3.901  0.0161 -0.2588 -0.3241
19728TIP3    H180599   0.022   6.411   3.925  0.2030 -0.1769 -0.5570
19728TIP3    H280600  -0.028   6.306   3.827  0.9757  0.0198 -1.1673
19729TIP3   OH280601   3.604   0.851  15.152  0.4714  0.1228 -0.1635
19729TIP3    H180602   3.537   0.787  15.129 -0.7984  0.0882  3.1680
19729TIP3    H280603   3.685   0.814  15.116 -0.4057 -2.7713  0.5653
19730TIP3   OH280604   4.638   6.238   5.260  0.1011 -0.0239 -0.3245
19730TIP3    H180605   4.687   6.267   5.337 -1.1592 -0.0601  0.5209
19730TIP3    H280606   4.634   6.315   5.204  1.6843 -0.2013 -0.7507
19731TIP3   OH280607   4.223   4.787  16.356 -0.2111 -0.2390 -0.1041
19731TIP3    H180608   4.231   4.692  16.358 -0.0008 -0.2258 -0.3379
19731TIP3    H280609   4.181   4.805  16.272  1.2326 -0.0150 -0.7976
19732TIP3   OH280610   2.572   0.643  14.310  0.5838  0.5429 -0.2024
19732TIP3    H180611   2.511   0.696  14.259  0.0945  2.1327  1.8670
19732TIP3    H280612   2.532   0.637  14.397  0.8539 -2.9123 -0.1481
19733TIP3   OH280613   3.297   0.782   4.051 -0.4055 -0.1581  0.4652
19733TIP3    H180614   3.274   0.873   4.038 -1.8909 -0.5309  0.3003
19733TIP3    H280615   3.328   0.778   4.142  2.0061  0.9154 -0.2455
19734TIP3   OH280616   2.513   6.091   2.901 -0.3621  0.3251  0.0382
19734TIP3    H180617   2.501   6.185   2.887 -0.9261 -0.0388 -2.3634
19734TIP3    H280618   2.425   6.059   2.922 -0.4289  0.1680 -0.4581
19735TIP3   OH280619   3.271   2.320  15.549  0.2185  0.0991  0.0067
19735TIP3    H180620   3.322   2.336  15.469 -0.2400  1.5611 -0.0263
19735TIP3    H280621   3.323   2.257  15.599  0.7579 -0.4478 -1.2120
19736TIP3   OH280622   5.692   2.509  12.523  0.1592  0.2330  0.3759
19736TIP3    H180623   5.615   2.454  12.510 -0.4751  1.2550 -0.3083
19736TIP3    H280624   5.764   2.458  12.485 -0.7610  0.7536 -2.2674
19737TIP3   OH280625   0.200   4.017   2.846  0.4451  0.2048 -0.3267
19737TIP3    H180626   0.112   4.022   2.884 -0.4289  1.5174 -2.3347
19737TIP3    H280627   0.240   3.941   2.887 -2.0920 -1.1953 -0.2434
19738TIP3   OH280628   4.433   2.858   5.516 -0.1897 -0.1019  0.2388
19738TIP3    H180629   4.490   2.889   5.446  0.4297 -0.8296  0.4070
19738TIP3    H280630   4.493   2.837   5.588 -0.7766  0.2215  0.8320
19739TIP3   OH280631   4.831   6.326   3.305  0.3579 -0.6644  0.2361
19739TIP3    H180632   4.803   6.306   3.215  0.0160 -2.2011  0.6464
19739TIP3    H280633   4.751   6.318   3.357  0.2392  1.7215  0.5110
19740TIP3   OH280634   5.435   4.135   5.255 -0.1020  0.1088  0.2294
19740TIP3    H180635   5.463   4.125   5.346  0.9986  0.4128 -0.0674
19740TIP3    H280636   5.372   4.207   5.257  0.7045  0.8261  0.6107
19741TIP3   OH280637   0.972   3.483  16.781  0.1300 -0.0230  0.1370
19741TIP3    H180638   0.996   3.556  16.725 -0.3132 -0.4392 -0.6084
19741TIP3    H280639   1.010   3.504  16.866  0.8692  0.5770 -0.3352
19742TIP3   OH280640   1.561   0.567   1.811 -0.2101 -0.1342 -0.6843
19742TIP3    H180641   1.655   0.570   1.829 -0.1476  0.6859 -1.0684
19742TIP3    H280642   1.546   0.482   1.771 -0.0502 -1.2605  1.5272
19743TIP3   OH280643   6.535   4.610   0.130 -0.0727 -0.3917  0.2321
19743TIP3    H180644   6.468   4.544   0.110  0.5856 -1.1655  0.5252
19743TIP3    H280645   6.574   4.581   0.212 -0.7333  1.1523  1.1447
19744TIP3   OH280646   3.708   4.183   0.369  0.6589  0.1025 -0.4531
19744TIP3    H180647   3.786   4.136   0.338  0.5894 -0.5975  0.3925
19744TIP3    H280648   3.642   4.114   0.382  0.8788  0.2384  1.8161
19745TIP3   OH280649   3.311   2.045  13.326 -0.1749  0.1584  0.5227
19745TIP3    H180650   3.388   2.032  13.381  0.7339  1.6208 -0.3423
19745TIP3    H280651   3.243   2.076  13.386 -0.3405 -1.7543  1.4076
19746TIP3   OH280652   1.658   1.194  15.532 -0.4131  0.3504  0.1153
19746TIP3    H180653   1.654   1.099  15.521  1.9669 -0.2572  2.9031
19746TIP3    H280654   1.593   1.213  15.599  0.2845  0.3509  0.8145
19747TIP3   OH280655   4.854   4.863  15.394  0.5008  0.4362  0.1221
19747TIP3    H180656   4.762   4.837  15.386  0.8047 -0.3583 -1.0672
19747TIP3    H280657   4.900   4.808  15.331  1.7212  1.2433  0.2719
19748TIP3   OH280658   4.833   6.146   4.848 -0.0488 -0.6383 -0.6867
19748TIP3    H180659   4.826   6.093   4.927 -1.2425  0.9018  0.3192
19748TIP3    H280660   4.748   6.189   4.842  0.4739  0.2349 -2.1134
19749TIP3   OH280661   0.493   1.154   2.489 -0.3004  0.1315  0.5077
19749TIP3    H180662   0.432   1.212   2.444  0.3582  0.0266 -0.5624
19749TIP3    H280663   0.472   1.164   2.582  0.5243  2.9626  0.4814
19750TIP3   OH280664   5.518   3.847  16.181  0.2939  0.1826 -0.3691
19750TIP3    H180665   5.445   3.905  16.202  0.6278  0.5565 -0.2307
19750TIP3    H280666   5.559   3.886  16.104  0.0193 -0.3312 -0.7873
19751TIP3   OH280667   4.629   5.887  13.599  0.3142 -0.9180 -0.2280
19751TIP3    H180668   4.667   5.826  13.536  1.0150 -0.0326 -0.6846
19751TIP3    H280669   4.637   5.841  13.683  1.8772 -1.0304 -0.3969
19752TIP3   OH280670   3.682   1.383   4.114 -0.2551  0.2996 -0.0058
19752TIP3    H180671   3.609   1.335   4.074  0.9976 -0.5147 -1.3881
19752TIP3    H280672   3.717   1.437   4.044 -0.0085  1.2851  0.8595
19753TIP3   OH280673   3.402   4.785   4.716  0.2479 -0.0452 -0.3731
19753TIP3    H180674   3.462   4.855   4.689 -0.0270  0.5392  0.4690
19753TIP3    H280675   3.399   4.725   4.642  0.0625  1.1189 -1.3309
19754TIP3   OH280676   3.820   1.395  14.531  0.9929 -0.2773  0.0570
19754TIP3    H180677   3.906   1.354  14.539  1.5186  0.6828 -0.5570
19754TIP3    H280678   3.825   1.471  14.590  0.1913 -0.8068  0.8303
19755TIP3   OH280679   4.738   1.631   6.362 -0.1214  0.1764  0.6614
19755TIP3    H180680   4.775   1.711   6.400 -0.8973 -0.2127  2.3269
19755TIP3    H280681   4.813   1.581   6.332  0.4073  1.2445  0.1349
19756TIP3   OH280682   4.354   3.068   4.918  0.0535 -0.3737 -0.0688
19756TIP3    H180683   4.441   3.106   4.929  0.1912 -0.6112 -0.3042
19756TIP3    H280684   4.304   3.134   4.871  0.1614 -0.3082 -0.0903
19757TIP3   OH280685   1.090   6.593   0.960  0.2213 -0.1764  0.3094
19757TIP3    H180686   1.020   6.584   1.025  1.3168 -1.3980  1.3962
19757TIP3    H280687   1.055   6.553   0.881 -1.0168  1.0227  0.2243
19758TIP3   OH280688   5.843   0.333   4.542  0.1085 -0.0414 -0.2687
19758TIP3    H180689   5.926   0.324   4.587 -1.3085  0.3486  2.6325
19758TIP3    H280690   5.863   0.387   4.465  2.7488 -1.2034 -0.4795
19759TIP3   OH280691   0.574   0.272  11.036  0.4750 -0.3368 -0.4722
19759TIP3    H180692   0.562   0.251  11.129 -1.1595 -1.1074 -0.8181
19759TIP3    H280693   0.528   0.355  11.023  0.8435 -0.1450 -0.5643
19760TIP3   OH280694   2.070   0.896  15.766  0.3751  0.4887 -0.6726
19760TIP3    H180695   2.158   0.867  15.793  0.8010 -0.0667 -2.4911
19760TIP3    H280696   2.079   0.913  15.673 -1.1110  1.9080 -0.5933
19761TIP3   OH280697   1.428   4.611   1.679  0.1632 -0.1441  0.0799
19761TIP3    H180698   1.408   4.620   1.586  1.0213 -0.6018 -0.1629
19761TIP3    H280699   1.428   4.516   1.694  1.7308 -0.1465  0.1468
19762TIP3   OH280700   3.317   2.683   4.355 -0.5944  0.2730  0.3493
19762TIP3    H180701   3.245   2.658   4.413 -0.2638 -0.9552  0.2687
19762TIP3    H280702   3.391   2.629   4.385 -0.8446 -1.6744 -2.2450
19763TIP3   OH280703   2.277   2.596   1.287  0.6522  0.0650 -0.7718
19763TIP3    H180704   2.251   2.505   1.273  0.5046 -0.1657  0.8147
19763TIP3    H280705   2.269   2.636   1.201 -2.6486 -0.5766 -0.9136
19764TIP3   OH280706   0.874   1.426   4.861  0.3681  0.2827  0.2278
19764TIP3    H180707   0.887   1.423   4.956 -0.2102 -0.7433  0.2891
19764TIP3    H280708   0.939   1.365   4.825 -1.8546 -2.3360  0.3003
19765TIP3   OH280709   5.224   5.895  16.107 -0.0815  0.1801  0.3313
19765TIP3    H180710   5.252   5.830  16.043  0.1806 -0.2893  0.9073
19765TIP3    H280711   5.144   5.932  16.070  0.3866  0.3458 -0.5442
19766TIP3   OH280712   5.224   4.181  12.328 -0.1921 -0.1686 -0.5596
19766TIP3    H180713   5.312   4.213  12.307 -0.4852 -1.0019 -3.4835
19766TIP3    H280714   5.227   4.087  12.308 -2.0903  0.0545 -2.2260
19767TIP3   OH280715   5.552   2.619   0.347  0.0384 -0.0412 -0.2330
19767TIP3    H180716   5.493   2.550   0.377  1.1608 -0.8992  0.0548
19767TIP3    H280717   5.603   2.578   0.276  2.5738 -0.4359  1.6770
19768TIP3   OH280718   1.482   5.935   2.625  0.4069 -0.5058  0.1190
19768TIP3    H180719   1.503   5.916   2.716  0.5285  0.3260  0.2684
19768TIP3    H280720   1.391   5.964   2.626  0.3663 -0.6221 -0.0458
19769TIP3   OH280721   1.012   1.150   3.938  0.3312  0.3472 -0.5443
19769TIP3    H180722   0.982   1.169   4.027 -0.9263  1.0087 -1.0792
19769TIP3    H280723   1.017   1.236   3.896 -2.9692 -0.1163 -2.2559
19770TIP3   OH280724   6.085   5.473   2.534  0.7351  0.4520  0.4361
19770TIP3    H180725   6.036   5.494   2.454  0.9827  0.2679  0.2349
19770TIP3    H280726   6.176   5.493   2.512  0.7346  0.9673  0.8665
19771TIP3   OH280727   2.437   0.950  15.881  0.0767  0.2849 -0.5252
19771TIP3    H180728   2.440   1.045  15.877  0.5077  0.3547  0.9405
19771TIP3    H280729   2.524   0.922  15.852  0.6379  0.4463  0.9276
19772TIP3   OH280730   2.883   6.599   5.038  0.6198  0.2281 -0.1099
19772TIP3    H180731   2.948   6.647   5.090  1.9292  0.3693 -1.8022
19772TIP3    H280732   2.935   6.548   4.977 -0.8493 -1.0487 -0.3389
19773TIP3   OH280733   5.300   6.099  11.035 -0.0544  0.3040  0.5679
19773TIP3    H180734   5.355   6.103  10.956 -1.4044 -1.2475 -0.5219
19773TIP3    H280735   5.256   6.014  11.029 -0.4186  0.2761  2.8723
19774TIP3   OH280736   4.862   3.652  15.006 -0.0641  0.0636 -0.0484
19774TIP3    H180737   4.770   3.673  14.987 -0.2218 -0.5225  0.0663
19774TIP3    H280738   4.909   3.734  14.988 -0.3344 -0.1587 -1.9637
19775TIP3   OH280739   2.335   4.573   4.386 -0.6349 -0.4401 -0.0840
19775TIP3    H180740   2.287   4.636   4.439 -0.4761  0.0653 -0.5393
19775TIP3    H280741   2.284   4.565   4.305  0.1971  0.3409 -0.7078
19776TIP3   OH280742   0.319   5.066  12.885 -0.0270 -0.0522  0.2220
19776TIP3    H180743   0.289   5.026  12.967 -3.4115  1.1223 -0.2931
19776TIP3    H280744   0.412   5.044  12.881 -0.1456 -1.8019  3.3891
19777TIP3   OH280745   3.163   0.228  11.407  0.2327  0.7297 -0.6560
19777TIP3    H180746   3.147   0.218  11.313 -1.2767  0.9647 -0.4442
19777TIP3    H280747   3.119   0.153  11.447 -0.6402  1.5493 -0.0208
19778TIP3   OH280748   6.422   4.757  14.566 -0.3536  0.0905  0.4279
19778TIP3    H180749   6.466   4.780  14.484 -0.3812 -2.2779 -0.3397
19778TIP3    H280750   6.452   4.822  14.629  1.3929  0.6790 -0.9282
19779TIP3   OH280751   2.973   4.818  17.091  0.0568 -0.4781  0.3913
19779TIP3    H180752   2.960   4.881  17.162 -0.8218  0.0338 -0.1933
19779TIP3    H280753   3.068   4.811  17.082  0.2285 -1.7731  2.6522
19780TIP3   OH280754   5.625   5.270  11.625  0.1447  0.0952 -0.1552
19780TIP3    H180755   5.557   5.214  11.664 -0.5445  0.5110 -0.7321
19780TIP3    H280756   5.642   5.336  11.693  1.1421 -0.9436  0.6242
19781TIP3   OH280757   2.654   5.536  16.327  0.7381  0.4614 -0.0273
19781TIP3    H180758   2.626   5.505  16.241 -2.1751  0.7092  0.7163
19781TIP3    H280759   2.633   5.464  16.387  1.0549  0.9679  0.7206
19782TIP3   OH280760   5.723   2.481  16.279  0.0225 -0.3633 -0.5658
19782TIP3    H180761   5.635   2.470  16.315  0.5101  0.5188  1.0010
19782TIP3    H280762   5.709   2.534  16.200 -0.8542 -0.2283 -0.3381
19783TIP3   OH280763   3.944   0.274  12.853  0.4138 -0.0553  0.4063
19783TIP3    H180764   3.978   0.225  12.928 -0.5968  0.4591  1.2242
19783TIP3    H280765   3.910   0.355  12.891  0.1153  0.3281 -0.6488
19784TIP3   OH280766   5.470   1.808  16.060 -0.5606  0.0711 -0.3324
19784TIP3    H180767   5.391   1.811  16.114 -2.9460  0.7515 -3.5285
19784TIP3    H280768   5.437   1.819  15.971  3.1180 -0.6274 -1.9254
19785TIP3   OH280769   4.813   6.286  13.885  0.4471  0.1936  0.5268
19785TIP3    H180770   4.831   6.224  13.815 -0.3439  1.0531 -0.4830
19785TIP3    H280771   4.795   6.368  13.840 -1.9364  0.3485  1.6077
19786TIP3   OH280772   0.618   3.939  17.311 -0.2332  0.5491 -1.0008
19786TIP3    H180773   0.558   3.866  17.300  0.4549 -0.5440  1.7482
19786TIP3    H280774   0.680   3.931  17.238 -1.7218  0.0400 -2.2543
19787TIP3   OH280775   0.254   3.910   3.786 -0.7069  0.2731 -0.2511
19787TIP3    H180776   0.267   3.818   3.764  1.0697  0.3500  0.2613
19787TIP3    H280777   0.270   3.957   3.705  0.8782  0.2424 -0.0038
19788TIP3   OH280778   4.987   3.569   4.516  0.5093  0.3483 -0.2328
19788TIP3    H180779   4.893   3.562   4.526  0.5547  1.3406  1.1405
19788TIP3    H280780   5.017   3.610   4.597  2.2552 -0.9737 -0.1407
19789TIP3   OH280781   4.397   6.332   0.467 -0.2188 -0.4920  0.0225
19789TIP3    H180782   4.424   6.404   0.524 -2.5051 -0.0945  0.7105
19789TIP3    H280783   4.467   6.326   0.401  0.3432  1.9645  0.2972
19790TIP3   OH280784   1.108   0.077   1.641 -0.0592  0.7631 -0.1125
19790TIP3    H180785   1.096   0.120   1.726 -1.5740  0.9191 -0.3752
19790TIP3    H280786   1.032   0.103   1.590  0.5415  0.2078 -1.3366
19791TIP3   OH280787   5.992   5.058   6.577  0.3659 -0.4379 -0.0747
19791TIP3    H180788   5.966   5.051   6.669 -2.0505 -0.2736 -0.6812
19791TIP3    H280789   6.035   4.975   6.558 -1.1213 -1.4200  0.6518
19792TIP3   OH280790   2.070   3.781  10.752  0.3264  0.2069  0.2533
19792TIP3    H180791   2.105   3.771  10.841 -0.0942 -0.8905  0.3130
19792TIP3    H280792   1.982   3.744  10.757  0.1996  0.3848 -0.5614
19793TIP3   OH280793   0.551   2.561  12.971  0.1126  0.0415 -0.2465
19793TIP3    H180794   0.615   2.608  12.916  0.0818 -0.3647 -0.6364
19793TIP3    H280795   0.478   2.543  12.912  0.1999 -0.6511 -0.1485
19794TIP3   OH280796   5.682   2.705  15.202  0.0122 -0.2472 -0.1672
19794TIP3    H180797   5.656   2.694  15.293 -1.0896 -1.5394 -0.5815
19794TIP3    H280798   5.731   2.786  15.199  0.8789 -0.6664  1.7374
19795TIP3   OH280799   5.349   2.422   3.000 -0.6584  0.2708 -0.0212
19795TIP3    H180800   5.317   2.454   3.084  3.0502  1.0881  1.2713
19795TIP3    H280801   5.367   2.501   2.950  1.1143 -0.0111  0.1149
19796TIP3   OH280802   3.801   2.298   2.015 -0.3532 -0.8972 -0.2215
19796TIP3    H180803   3.711   2.329   2.007  0.2672  1.5003  0.9030
19796TIP3    H280804   3.829   2.328   2.102  1.7638 -0.8571 -0.8569
19797TIP3   OH280805   6.001   4.389  12.006 -0.8983 -0.5838  0.3653
19797TIP3    H180806   5.975   4.419  12.093 -0.4656 -0.0365  0.3097
19797TIP3    H280807   6.068   4.322  12.023  1.8547  1.9706  0.4608
19798TIP3   OH280808   1.224   3.137  16.625 -0.3033 -0.1588 -0.3945
19798TIP3    H180809   1.310   3.147  16.665  0.5075 -0.7805 -1.8901
19798TIP3    H280810   1.233   3.179  16.539 -0.7904 -2.1112 -1.4594
19799TIP3   OH280811   4.943   6.554  14.312  0.3556 -0.0225  0.0264
19799TIP3    H180812   4.968   6.624  14.373  2.2351 -0.5852 -0.0344
19799TIP3    H280813   4.854   6.577  14.285  1.0010  2.5052 -0.2211
19800TIP3   OH280814   1.548   6.427  14.307  0.2279  0.1731  0.4197
19800TIP3    H180815   1.481   6.363  14.330 -2.8594  2.6666 -0.8124
19800TIP3    H280816   1.571   6.405  14.217 -0.6769  0.6130  0.0665
19801TIP3   OH280817   1.753   3.739   1.226 -0.7323 -0.4248  0.1308
19801TIP3    H180818   1.833   3.790   1.211 -0.4480 -0.9516 -0.1397
19801TIP3    H280819   1.684   3.806   1.234 -0.2553  0.0366  0.4849
19802TIP3   OH280820   2.898   3.757  11.777  0.5919  0.2025 -0.3864
19802TIP3    H180821   2.941   3.809  11.709 -2.4177  1.3051 -1.6143
19802TIP3    H280822   2.840   3.820  11.821  0.2454 -1.1628  1.2017
19803TIP3   OH280823   1.819   3.183   4.119 -0.3072  0.0519  0.2611
19803TIP3    H180824   1.807   3.273   4.087  0.0021  0.2517  0.6903
19803TIP3    H280825   1.913   3.167   4.107 -0.4941 -0.4874 -0.5106
19804TIP3   OH280826   5.985   3.694  13.163  0.0056  0.1437 -0.6629
19804TIP3    H180827   5.916   3.731  13.219 -0.1941  0.7269 -1.2774
19804TIP3    H280828   6.063   3.696  13.218 -0.6877 -1.6270  0.4506
19805TIP3   OH280829   0.256   1.841   3.475 -0.2298 -0.3166 -0.0510
19805TIP3    H180830   0.330   1.887   3.516 -0.9443  1.8875 -1.0890
19805TIP3    H280831   0.289   1.814   3.389  0.1286 -1.6644  0.4834
19806TIP3   OH280832   2.388   3.065  11.121 -0.3271  0.1603  0.1964
19806TIP3    H180833   2.378   3.159  11.111  0.9478  0.3315  0.3587
19806TIP3    H280834   2.439   3.038  11.044 -3.1677 -0.9029 -1.4589
19807TIP3   OH280835   1.393   3.604  11.738 -0.0271  0.1953  0.0818
19807TIP3    H180836   1.482   3.630  11.762  1.3119 -1.7128 -2.3843
19807TIP3    H280837   1.375   3.653  11.657  0.3810 -2.2005 -1.5547
19808TIP3   OH280838   3.015   4.213  11.925 -0.1666  0.5968  0.2103
19808TIP3    H180839   2.954   4.148  11.892  1.7426 -2.7838  2.7305
19808TIP3    H280840   2.991   4.225  12.016 -0.4240  3.5832 -0.1377
19809TIP3   OH280841   5.622   3.785   3.648  0.0423  0.0436  0.5585
19809TIP3    H180842   5.641   3.694   3.623  0.2460 -0.2574  1.7237
19809TIP3    H280843   5.708   3.824   3.665 -0.1292 -0.3387  2.5939
19810TIP3   OH280844   2.313   5.809  15.391 -0.0691 -0.0711 -0.1790
19810TIP3    H180845   2.327   5.871  15.319 -0.1850  0.0398 -0.1071
19810TIP3    H280846   2.333   5.860  15.470 -0.5340 -0.0111 -0.0957
19811TIP3   OH280847   6.459   1.652  17.184 -0.0048  0.4410  0.1391
19811TIP3    H180848   6.454   1.711  17.109 -2.7705  1.1439  0.7580
19811TIP3    H280849   6.417   1.700  17.256 -0.3900 -1.4392  1.2545
19812TIP3   OH280850   0.011   3.056  12.372  0.3877 -0.4631 -0.3985
19812TIP3    H180851  -0.001   3.051  12.467 -0.9809  1.7705 -0.3745
19812TIP3    H280852   0.065   2.980  12.350 -0.0335 -1.5415  2.0217
19813TIP3   OH280853   2.278   3.990   0.584 -0.5755 -0.0924 -0.0643
19813TIP3    H180854   2.189   3.988   0.619 -1.2843 -0.8453 -1.7870
19813TIP3    H280855   2.334   3.983   0.661 -2.0365 -1.6745  0.9433
19814TIP3   OH280856   6.587   0.565  15.382  0.0825 -0.4344 -0.4006
19814TIP3    H180857   6.620   0.632  15.442 -0.4290  0.6186 -1.2703
19814TIP3    H280858   6.578   0.486  15.437 -1.5577  0.7939  1.2537
19815TIP3   OH280859   1.974   4.300  14.898 -0.2170 -0.3027  0.0602
19815TIP3    H180860   1.956   4.220  14.947 -0.6953  0.3490  0.9735
19815TIP3    H280861   2.060   4.328  14.931 -0.1001 -0.3781 -0.1797
19816TIP3   OH280862   1.039   4.596   0.286 -0.6925 -0.3615  0.0275
19816TIP3    H180863   0.990   4.669   0.249  0.3521 -0.2018 -1.0955
19816TIP3    H280864   1.006   4.519   0.240 -2.1887 -0.7227  1.5979
19817TIP3   OH280865   1.436   3.139   3.917  0.2728 -0.2627 -0.1103
19817TIP3    H180866   1.526   3.111   3.898 -0.0344 -1.6193  0.3966
19817TIP3    H280867   1.391   3.060   3.946 -1.1800  0.3407 -0.6352
19818TIP3   OH280868   0.570   4.048   1.970  0.5693 -0.0170 -0.3204
19818TIP3    H180869   0.607   4.124   1.924 -0.1701  0.4891 -0.1012
19818TIP3    H280870   0.525   3.999   1.902  0.6050  0.0174 -0.3694
19819TIP3   OH280871   0.455   2.139  11.340 -0.2671  0.6628 -0.3132
19819TIP3    H180872   0.399   2.131  11.417 -1.4342 -0.3158 -1.2148
19819TIP3    H280873   0.405   2.099  11.270  1.5331 -0.1686 -1.2023
19820TIP3   OH280874   5.449   0.407   6.481 -0.4262 -0.5881 -0.0204
19820TIP3    H180875   5.480   0.466   6.550  1.1662  0.6530 -1.7149
19820TIP3    H280876   5.527   0.359   6.454 -0.9317 -0.7840 -1.2002
19821TIP3   OH280877   1.836   4.820   6.804 -0.7033 -0.3743  0.1465
19821TIP3    H180878   1.854   4.783   6.891  1.8931 -2.5785 -1.1799
19821TIP3    H280879   1.855   4.748   6.743  0.5230  1.9323 -2.4097
19822TIP3   OH280880   1.900   5.650  14.045  0.3202 -0.1684 -0.2168
19822TIP3    H180881   1.942   5.609  14.120 -1.8739 -1.4254  0.4169
19822TIP3    H280882   1.963   5.716  14.015  1.4925 -0.0197  2.3378
19823TIP3   OH280883   3.669   3.440  16.931 -0.1575 -0.4693  0.1512
19823TIP3    H180884   3.653   3.402  17.017  0.6908 -0.5876  0.2605
19823TIP3    H280885   3.596   3.408  16.877  0.0781 -1.5743  0.4560
19824TIP3   OH280886   5.359   1.967   7.025 -0.4306  0.3245 -0.2128
19824TIP3    H180887   5.366   1.953   6.930 -2.9473 -0.5886 -0.3277
19824TIP3    H280888   5.291   2.033   7.034  0.8199  1.5139  0.9654
19825TIP3   OH280889   3.702   5.509   1.005 -0.2553 -0.4353 -0.1672
19825TIP3    H180890   3.693   5.544   0.916 -0.8187 -0.7281 -0.2306
19825TIP3    H280891   3.773   5.445   0.997  0.3127  0.1924 -0.1990
19826TIP3   OH280892   1.744   4.827  12.719  0.2144  0.2573  0.0133
19826TIP3    H180893   1.668   4.787  12.676  0.1166  0.8783 -0.4150
19826TIP3    H280894   1.708   4.868  12.797  0.1041  0.5550 -0.1915
19827TIP3   OH280895   1.588   5.511  11.819 -0.4032  0.2651  0.4448
19827TIP3    H180896   1.534   5.449  11.771  2.5301  0.1106 -3.1260
19827TIP3    H280897   1.657   5.458  11.858  0.2365  0.9160  0.2324
19828TIP3   OH280898   0.476   6.022   1.014 -0.2756  0.1396  0.1240
19828TIP3    H180899   0.567   5.994   1.019 -0.2278 -0.6342 -2.8151
19828TIP3    H280900   0.476   6.093   0.950 -1.7667 -0.1774 -0.2742
19829TIP3   OH280901   1.074   6.086   3.028 -0.7972  0.2602 -0.4140
19829TIP3    H180902   0.997   6.113   2.979 -1.5210 -1.1329 -0.1158
19829TIP3    H280903   1.042   6.016   3.085  0.8719 -1.0398 -0.9874
19830TIP3   OH280904   2.641   6.019  17.175 -0.6168  0.0855 -0.3100
19830TIP3    H180905   2.710   5.991  17.236 -1.1011  0.9160  0.6427
19830TIP3    H280906   2.688   6.071  17.110 -0.5134  2.0481  1.2426
19831TIP3   OH280907   4.242   3.180   5.904  0.4324 -0.0668  0.0080
19831TIP3    H180908   4.206   3.092   5.902  1.1678 -0.4994  2.7739
19831TIP3    H280909   4.303   3.183   5.831  0.0715 -1.6736 -0.3893
19832TIP3   OH280910   3.433   4.320   0.507 -0.0221 -0.1506 -0.1918
19832TIP3    H180911   3.428   4.311   0.412 -2.2739 -0.6450 -0.0792
19832TIP3    H280912   3.472   4.407   0.521 -1.2683  0.6715 -1.5896
19833TIP3   OH280913   2.454   0.926   2.063  0.1343 -0.3319 -0.0327
19833TIP3    H180914   2.409   0.984   2.124 -0.3731 -0.2136 -0.5067
19833TIP3    H280915   2.387   0.862   2.038  0.1851 -0.0768 -0.8443
19834TIP3   OH280916   2.570   3.698  14.903  0.0677 -0.5438  0.0017
19834TIP3    H180917   2.520   3.617  14.909 -1.6550  0.3075 -1.6074
19834TIP3    H280918   2.583   3.712  14.809  0.9161  0.6874  0.2686
19835TIP3   OH280919   5.919   5.640   4.270 -0.5770  0.3601 -0.3075
19835TIP3    H180920   5.914   5.713   4.332 -2.8028  1.3036 -1.5028
19835TIP3    H280921   6.008   5.645   4.235 -0.7687  2.7894 -0.6230
19836TIP3   OH280922   4.082   1.924   4.389  0.3222  0.6794 -0.7247
19836TIP3    H180923   4.096   2.018   4.398 -0.5603  0.7667 -0.0857
19836TIP3    H280924   3.987   1.913   4.398  0.6278 -0.5253  1.9411
19837TIP3   OH280925   4.702   2.793  11.755  0.3644 -0.3604  0.2791
19837TIP3    H180926   4.798   2.792  11.759  0.4030 -0.4796 -0.4586
19837TIP3    H280927   4.679   2.710  11.713  0.0790  0.6889 -1.7568
19838TIP3   OH280928   4.305   3.582   3.659 -0.1309  0.4194  0.2888
19838TIP3    H180929   4.250   3.660   3.645 -1.4003 -0.4129  0.4892
19838TIP3    H280930   4.326   3.585   3.753  0.4032  0.8731  0.1636
19839TIP3   OH280931   1.616   4.175  15.318  0.5250 -0.1983 -0.2438
19839TIP3    H180932   1.571   4.092  15.302 -0.3591  0.1910  0.1171
19839TIP3    H280933   1.633   4.176  15.412  2.2455 -0.7917 -0.5264
19840TIP3   OH280934   3.868   0.080  13.501 -0.0877  0.5912 -0.2515
19840TIP3    H180935   3.788   0.132  13.487 -0.1206  1.0184  1.3992
19840TIP3    H280936   3.836  -0.008  13.521 -0.2536  1.1335  2.0738
19841TIP3   OH280937   5.910   3.548   5.569  0.3552 -0.5413 -0.0977
19841TIP3    H180938   5.887   3.481   5.634  2.6248 -1.1069  0.1961
19841TIP3    H280939   5.832   3.554   5.513 -1.2699 -0.7904  2.0111
19842TIP3   OH280940   5.848   1.315   6.737 -0.0803 -0.3788 -0.6477
19842TIP3    H180941   5.760   1.279   6.726  0.0615 -0.8955 -0.1234
19842TIP3    H280942   5.845   1.399   6.691 -1.0713 -0.0459 -0.0198
19843TIP3   OH280943   3.578   2.437   2.913 -0.3786 -0.5679 -0.0168
19843TIP3    H180944   3.569   2.344   2.891  1.4428 -0.8209  0.1543
19843TIP3    H280945   3.563   2.483   2.830  0.4865 -1.1406 -0.5050
19844TIP3   OH280946   6.534   5.125   4.507 -0.3410  0.7704  0.0693
19844TIP3    H180947   6.535   5.044   4.558 -0.0237  0.4292 -0.4583
19844TIP3    H280948   6.589   5.105   4.431 -0.8792  1.2341 -0.4481
19845TIP3   OH280949   3.743   4.277  15.956 -0.7818  0.3879 -0.2963
19845TIP3    H180950   3.723   4.274  15.863 -1.3708  0.1679 -0.1626
19845TIP3    H280951   3.839   4.276  15.960 -0.7649 -0.5167 -0.8632
19846TIP3   OH280952   6.723   5.196  13.254 -0.1136 -0.5633  0.0281
19846TIP3    H180953   6.791   5.186  13.187  0.4772 -0.1122  0.5364
19846TIP3    H280954   6.772   5.197  13.336 -0.7869 -0.6803  0.4358
19847TIP3   OH280955   5.767   0.525  11.943 -0.0689 -0.2919  0.1733
19847TIP3    H180956   5.797   0.554  11.857  0.6160  0.6802  0.7255
19847TIP3    H280957   5.699   0.587  11.967  0.5601  0.1535  0.8342
19848TIP3   OH280958   4.526   5.475   1.129 -0.2490  0.1939 -0.4210
19848TIP3    H180959   4.563   5.555   1.093  0.4874 -0.0495 -0.2349
19848TIP3    H280960   4.596   5.440   1.185 -0.6406 -0.4575 -0.3336
19849TIP3   OH280961   5.311   6.554   4.601 -0.1800 -0.1516  0.3296
19849TIP3    H180962   5.258   6.633   4.590 -1.7919 -1.2629 -0.4259
19849TIP3    H280963   5.277   6.513   4.681  0.0707 -0.4900  0.2666
19850TIP3   OH280964   1.299   3.980  17.157 -0.1907  0.2991  0.2748
19850TIP3    H180965   1.314   4.068  17.193 -1.3771  0.3059  0.7980
19850TIP3    H280966   1.371   3.928  17.192  0.3175  0.9726  0.2606
19851TIP3   OH280967   4.798   0.820   6.621  0.6034 -0.5374  0.5358
19851TIP3    H180968   4.876   0.866   6.591  0.7770 -0.7042  0.7316
19851TIP3    H280969   4.746   0.806   6.541  0.1973  0.6538  0.5732
19852TIP3   OH280970   3.174   1.076  16.656  0.2419  0.3487  0.1062
19852TIP3    H180971   3.153   1.046  16.567  1.1514  1.2440 -0.4300
19852TIP3    H280972   3.142   1.007  16.713 -2.1277  0.6033 -0.7919
19853TIP3   OH280973   2.735   6.078  14.040 -0.4222 -0.2881 -0.3059
19853TIP3    H180974   2.656   6.028  14.022 -1.2738  0.7880  0.2697
19853TIP3    H280975   2.726   6.157  13.987  1.4236 -1.1655 -2.0496
19854TIP3   OH280976   5.284   3.338   4.333 -0.0369  0.1654  0.3916
19854TIP3    H180977   5.262   3.318   4.424 -0.1436  0.6397  0.4703
19854TIP3    H280978   5.333   3.261   4.303 -1.2266 -0.6111  0.4108
19855TIP3   OH280979   4.324   0.357  13.203  0.0368  0.2944 -0.3684
19855TIP3    H180980   4.398   0.297  13.203  1.4734  1.9592  0.7743
19855TIP3    H280981   4.352   0.430  13.148 -0.2047  1.5246  1.0568
19856TIP3   OH280982   4.923   0.404  16.416 -0.5519  0.0381  0.4226
19856TIP3    H180983   4.924   0.386  16.322 -0.3957  2.8626 -0.2015
19856TIP3    H280984   5.013   0.428  16.437 -0.8660  0.7483  0.9878
19857TIP3   OH280985   2.490   4.659  16.377  0.3808 -0.5406  0.0770
19857TIP3    H180986   2.519   4.574  16.343  1.1110 -0.8803  1.4928
19857TIP3    H280987   2.426   4.637  16.445  0.0995  0.0758  0.0143
19858TIP3   OH280988   2.439   2.069   1.148  0.3983 -0.2019 -0.3059
19858TIP3    H180989   2.423   1.975   1.154 -0.3303 -0.1229 -0.9550
19858TIP3    H280990   2.365   2.109   1.193  1.6033  0.0500  1.6018
19859TIP3   OH280991   2.502   5.399   1.217  0.0137  0.2506  0.2422
19859TIP3    H180992   2.482   5.376   1.126  1.0974  0.5412 -0.0853
19859TIP3    H280993   2.542   5.486   1.211  1.2396 -0.2459  0.8482
19860TIP3   OH280994   6.643   5.552   4.567  0.1136  0.2450  0.3299
19860TIP3    H180995   6.673   5.509   4.648 -1.4395 -1.4975  0.0386
19860TIP3    H280996   6.701   5.517   4.499 -0.8164 -1.0511  0.1751
19861TIP3   OH280997   0.097   0.206   6.151 -0.0638  0.2722 -0.6280
19861TIP3    H180998   0.052   0.147   6.090  2.9043 -0.3129 -2.4126
19861TIP3    H280999   0.060   0.184   6.237 -2.8268 -0.3835 -1.8761
19862TIP3   OH281000   4.661   4.488   5.413 -0.0190  0.5233  0.1751
19862TIP3    H181001   4.589   4.508   5.473  0.2429  0.8456  0.3919
19862TIP3    H281002   4.630   4.415   5.361 -1.1020  1.6111 -0.7740
19863TIP3   OH281003   5.120   4.425   4.543 -0.3661  0.1597  0.0543
19863TIP3    H181004   5.119   4.452   4.451 -1.0019  1.6706  0.4792
19863TIP3    H281005   5.027   4.420   4.567 -0.2034 -0.3308  0.5918
19864TIP3   OH281006   1.237   6.477   0.039  0.2655  0.7188 -0.0490
19864TIP3    H181007   1.315   6.491  -0.015 -1.5913  0.7882 -2.9261
19864TIP3    H281008   1.246   6.387   0.071  2.2008  1.2319  1.0275
19865TIP3   OH281009   6.098   1.476   2.277 -0.0425  0.2585 -0.4153
19865TIP3    H181010   6.013   1.433   2.289 -0.3827  1.3211  1.3871
19865TIP3    H281011   6.156   1.434   2.340 -0.1051  1.6515  0.6252
19866TIP3   OH281012   6.620   4.078  16.720  0.1238  0.9537 -0.2493
19866TIP3    H181013   6.565   4.152  16.694 -1.1753 -0.1494 -0.8292
19866TIP3    H281014   6.700   4.088  16.668 -1.2225  0.4236 -2.5922
19867TIP3   OH281015   5.227   5.735  11.570 -0.2083 -0.1790 -0.0077
19867TIP3    H181016   5.304   5.686  11.599 -0.1217  0.1781  0.3612
19867TIP3    H281017   5.249   5.827  11.583 -0.1853  0.0014 -1.1630
19868TIP3   OH281018   5.501   5.038  13.334 -0.1881 -0.2260  0.4404
19868TIP3    H181019   5.559   5.077  13.269  0.1818 -1.1673  0.1853
19868TIP3    H281020   5.489   5.106  13.400 -1.7800  1.3184 -1.3301
19869TIP3   OH281021   0.483   1.926   4.173 -0.4315  0.1668 -0.2669
19869TIP3    H181022   0.452   1.909   4.084 -1.3821  0.8774 -0.0913
19869TIP3    H281023   0.575   1.901   4.172 -0.3665  0.4140 -1.5267
19870TIP3   OH281024   4.885   6.604  14.675  0.0965  0.4234  0.0579
19870TIP3    H181025   4.897   6.510  14.670  0.4165  0.4404  0.3880
19870TIP3    H281026   4.808   6.616  14.731  0.4746  0.3633  0.6071
19871TIP3   OH281027   5.610   1.722   2.707  0.0499 -0.3621  0.2833
19871TIP3    H181028   5.623   1.690   2.796  0.0436 -0.3107  0.3026
19871TIP3    H281029   5.589   1.815   2.717 -0.0375 -0.3760  0.2337
19872TIP3   OH281030   3.857   1.179   4.148  0.3787  0.1267 -0.4258
19872TIP3    H181031   3.939   1.219   4.176 -0.8610  0.7364  2.7513
19872TIP3    H281032   3.789   1.230   4.191 -1.6974 -0.5999 -2.6340
19873TIP3   OH281033   3.110   2.167  16.293 -0.0427  0.0354  0.3664
19873TIP3    H181034   3.045   2.233  16.315  1.5878  2.1875 -0.9329
19873TIP3    H281035   3.159   2.152  16.375 -0.9863 -0.2807  0.8859
19874TIP3   OH281036   5.901   4.314   3.027 -0.1702 -0.2170 -0.4571
19874TIP3    H181037   5.983   4.329   2.979  1.0888  0.2265  1.6725
19874TIP3    H281038   5.929   4.306   3.119 -2.2090 -2.8637  0.0593
19875TIP3   OH281039   1.072   4.294  11.520 -0.3264 -0.3801  0.3557
19875TIP3    H181040   0.997   4.245  11.488 -0.8609  1.1943 -0.9702
19875TIP3    H281041   1.130   4.302  11.444 -0.1102  0.7070  0.6074
19876TIP3   OH281042   1.803   2.006  15.195  0.6593 -0.0179 -0.0113
19876TIP3    H181043   1.836   1.942  15.258 -1.3169 -0.4485  0.6259
19876TIP3    H281044   1.759   2.072  15.248 -0.3115  0.0492 -0.8769
19877TIP3   OH281045   4.991   6.193  13.490 -0.5547  0.2967  0.0982
19877TIP3    H181046   5.064   6.131  13.494 -0.0299  0.6617 -2.2695
19877TIP3    H281047   5.025   6.273  13.529 -0.0251  0.1458 -0.0466
19878TIP3   OH281048   3.907   1.274  11.982 -0.3997  0.0215  0.1492
19878TIP3    H181049   3.832   1.305  12.033  0.2146  0.1926  0.9605
19878TIP3    H281050   3.883   1.185  11.955 -1.1959  0.3346 -0.2298
19879TIP3   OH281051   2.011   5.784   6.625 -0.0914  0.1234 -0.1094
19879TIP3    H181052   2.075   5.853   6.609 -0.0855  0.0095 -0.5935
19879TIP3    H281053   2.043   5.739   6.703  1.2324 -0.8654 -1.1831
19880TIP3   OH281054   6.655   4.847  16.332 -0.7678 -0.2880  0.1375
19880TIP3    H181055   6.613   4.789  16.397  0.0341 -1.3971 -0.2987
19880TIP3    H281056   6.730   4.884  16.378 -0.7021 -0.3934  0.1171
19881TIP3   OH281057   1.797   5.709   6.432  0.0308 -0.4940  0.1397
19881TIP3    H181058   1.874   5.732   6.484 -1.1160 -0.1499  1.7737
19881TIP3    H281059   1.791   5.778   6.367  1.4884 -0.9152 -0.4769
19882TIP3   OH281060   0.784   5.403   6.059  0.4222  0.0704  1.0816
19882TIP3    H181061   0.749   5.351   6.131 -1.8468 -1.0354 -0.6774
19882TIP3    H281062   0.728   5.480   6.056 -0.9417 -0.9046 -0.7231
19883TIP3   OH281063   5.918   1.329  16.441  0.1836  0.6106 -0.3608
19883TIP3    H181064   5.823   1.324  16.434  0.1793 -2.6726  0.1546
19883TIP3    H281065   5.950   1.288  16.361  1.1710  1.1812 -0.2786
19884TIP3   OH281066   5.706   5.201  13.207  0.0565 -0.1942 -0.3064
19884TIP3    H181067   5.801   5.214  13.208  0.3283 -1.1322  3.9842
19884TIP3    H281068   5.670   5.281  13.243 -0.6337 -0.4667 -0.3747
19885TIP3   OH281069   2.682   0.551   2.695  0.0190 -0.0092 -0.0905
19885TIP3    H181070   2.610   0.565   2.633 -0.2703  0.3163  0.3209
19885TIP3    H281071   2.660   0.605   2.771  0.8411  0.3215 -0.0777
19886TIP3   OH281072   6.134   0.042  17.091  0.6771  0.2654  0.3591
19886TIP3    H181073   6.157   0.083  17.007  0.1161  1.6538  0.8489
19886TIP3    H281074   6.206   0.067  17.149  0.4099  0.4372  0.6206
19887TIP3   OH281075   4.149   3.332   5.530  0.6725 -0.2575 -0.2037
19887TIP3    H181076   4.073   3.350   5.475  0.7254  0.4848 -0.0486
19887TIP3    H281077   4.144   3.238   5.549 -0.9182  0.0187  0.8689
19888TIP3   OH281078   6.132   2.425   4.604  0.3432  0.1712  0.3030
19888TIP3    H181079   6.188   2.458   4.533 -1.4487  0.2993 -1.1336
19888TIP3    H281080   6.110   2.503   4.655  1.1130  0.1791  0.6433
19889TIP3   OH281081   1.469   3.815  14.307  0.3363 -0.2414  0.0177
19889TIP3    H181082   1.399   3.750  14.317  2.1174 -2.9630 -3.2945
19889TIP3    H281083   1.429   3.886  14.257 -0.8801 -0.1056  1.1230
19890TIP3   OH281084   6.595   3.522  16.762  0.1188  0.0505  0.0327
19890TIP3    H181085   6.522   3.486  16.812 -0.7255  0.7860 -0.6381
19890TIP3    H281086   6.554   3.582  16.699  1.3513  1.0037  0.1016
19891TIP3   OH281087   0.645   2.454   2.356 -0.3050  0.0810 -0.0531
19891TIP3    H181088   0.640   2.524   2.421 -0.4928  0.0754 -0.0628
19891TIP3    H281089   0.557   2.418   2.351 -0.4293  0.4781 -0.7513
19892TIP3   OH281090   3.089   0.172  10.689 -0.4620 -0.5783 -0.5202
19892TIP3    H181091   3.114   0.174  10.781 -0.7761  0.8587 -0.4449
19892TIP3    H281092   3.145   0.236  10.647 -1.7248  0.2945 -0.9398
19893TIP3   OH281093   1.657   5.178  12.896 -0.3139  0.6610  0.1461
19893TIP3    H181094   1.727   5.237  12.924 -0.8141  1.5361 -0.3822
19893TIP3    H281095   1.676   5.095  12.939  1.6698  0.5475 -0.8464
19894TIP3   OH281096   2.785   2.997   2.148 -0.1938 -0.3690 -0.5392
19894TIP3    H181097   2.873   3.036   2.152 -0.0396 -0.6491 -1.0388
19894TIP3    H281098   2.742   3.044   2.076  0.2896 -1.6856 -1.7232
19895TIP3   OH281099   6.662   1.935   1.436 -0.0463 -0.1421 -0.3278
19895TIP3    H181100   6.657   2.026   1.407 -0.1232  0.1298  0.5322
19895TIP3    H281101   6.609   1.931   1.515  0.3657 -0.8209 -0.0729
19896TIP3   OH281102   2.055   6.216   1.770  0.3242 -0.2905 -0.7465
19896TIP3    H181103   2.052   6.134   1.720 -0.8456 -1.2844  0.8709
19896TIP3    H281104   2.038   6.190   1.860 -0.6330  1.8055 -0.2684
19897TIP3   OH281105   5.547   3.890   0.625  0.2353 -0.7704  0.0028
19897TIP3    H181106   5.571   3.875   0.534 -1.1014 -2.5608 -0.1126
19897TIP3    H281107   5.548   3.985   0.635 -0.3006 -0.4913 -2.1054
19898TIP3   OH281108   3.255   3.279   3.343 -0.2923  0.0958 -0.8591
19898TIP3    H181109   3.303   3.199   3.323 -1.4228 -1.3765  1.7744
19898TIP3    H281110   3.309   3.349   3.309  1.9788 -1.6575 -1.0745
19899TIP3   OH281111   5.903   4.073  12.065  0.2274 -0.3612  0.1187
19899TIP3    H181112   5.910   3.978  12.076 -0.6105 -0.4917 -0.3894
19899TIP3    H281113   5.854   4.103  12.141 -0.0755 -0.4286 -0.0470
19900TIP3   OH281114   1.121   5.497  13.657  0.5061 -0.6237  0.5846
19900TIP3    H181115   1.151   5.447  13.581  0.3500  1.4122 -0.9320
19900TIP3    H281116   1.201   5.514  13.707  0.8443 -0.8644  0.1363
19901TIP3   OH281117   5.185   6.023  14.891  0.1146 -0.2983  0.1160
19901TIP3    H181118   5.214   6.045  14.803 -1.8679 -0.4522 -0.6185
19901TIP3    H281119   5.256   5.970  14.927  0.8958 -0.3504 -1.4325
19902TIP3   OH281120   5.750   1.918  15.271  0.3138 -0.1136  0.3211
19902TIP3    H181121   5.759   1.824  15.290  0.1709 -0.3222 -0.6169
19902TIP3    H281122   5.730   1.922  15.178  0.1668  0.8493  0.3854
19903TIP3   OH281123   0.011   2.712   2.693 -0.4345 -0.4217  0.2105
19903TIP3    H181124  -0.054   2.700   2.624  0.8908 -0.7216 -1.0300
19903TIP3    H281125   0.013   2.806   2.709 -0.7539 -0.3528 -0.1521
19904TIP3   OH281126   0.942   1.760   4.786 -0.1441  0.1669 -0.1993
19904TIP3    H181127   0.906   1.847   4.767  1.1689  1.4963  2.6564
19904TIP3    H281128   1.033   1.765   4.754  0.9279  1.1186  2.6471
19905TIP3   OH281129   2.687   3.897   5.573  0.1950 -0.0497 -0.5944
19905TIP3    H181130   2.764   3.953   5.581 -0.1284  0.4289 -0.8176
19905TIP3    H281131   2.675   3.888   5.478  0.4034 -0.7167 -0.5633
19906TIP3   OH281132   0.671   6.432   0.693  0.2030  0.6845 -0.5249
19906TIP3    H181133   0.653   6.486   0.615 -0.8785  0.8373 -0.1863
19906TIP3    H281134   0.670   6.342   0.660 -2.6703  0.5413 -0.3598
19907TIP3   OH281135   4.244   3.340  12.796  0.4909  0.3881 -0.0635
19907TIP3    H181136   4.183   3.272  12.768 -0.2838  0.8149  0.5741
19907TIP3    H281137   4.292   3.301  12.869 -0.9916  1.0097  1.2990
19908TIP3   OH281138   5.483   5.882  14.093  0.0843  0.5693  0.3839
19908TIP3    H181139   5.394   5.848  14.088  0.4936 -0.5136  0.1466
19908TIP3    H281140   5.527   5.844  14.017 -0.0772  3.6663 -1.4245
19909TIP3   OH281141   5.672   2.873   1.900 -0.2990  0.2177 -0.2034
19909TIP3    H181142   5.725   2.827   1.835  1.1081 -1.2196  1.8267
19909TIP3    H281143   5.735   2.916   1.957 -1.4299  0.4544  0.9234
19910TIP3   OH281144   2.112   1.073  12.750 -0.5210  0.2202 -0.0645
19910TIP3    H181145   2.161   1.098  12.671 -0.7164  1.0049  0.0496
19910TIP3    H281146   2.027   1.044  12.717 -0.3033 -0.2637 -0.2009
19911TIP3   OH281147   3.279   0.065   3.889  0.0289 -0.4803 -0.2070
19911TIP3    H181148   3.284  -0.013   3.943  0.2468 -0.2469  0.1173
19911TIP3    H281149   3.369   0.079   3.859  1.1938  2.4145  3.7441
19912TIP3   OH281150   1.572   1.746   3.584 -0.2235  0.0288  0.4489
19912TIP3    H181151   1.520   1.673   3.552 -0.5357  0.5283 -0.2163
19912TIP3    H281152   1.662   1.713   3.588 -0.4878 -0.6534  1.0149
19913TIP3   OH281153   4.362   1.337  10.398 -0.2937  0.0444  0.6484
19913TIP3    H181154   4.388   1.313  10.487  0.8043  2.1701  0.9623
19913TIP3    H281155   4.270   1.364  10.407 -0.2543  0.0463  1.0855
19914TIP3   OH281156   3.419   3.111  16.670 -0.0354  0.0964  0.0461
19914TIP3    H181157   3.352   3.084  16.606 -1.3871 -0.2340  1.5151
19914TIP3    H281158   3.470   3.031  16.685  1.7929  0.7368 -2.2534
19915TIP3   OH281159   3.937   6.679   4.935  0.4263 -0.2542 -0.8189
19915TIP3    H181160   3.887   6.604   4.969  1.7382  0.1363  2.2804
19915TIP3    H281161   3.896   6.755   4.975  1.7290  0.3130 -0.5340
19916TIP3   OH281162   4.933   2.931   2.852  0.1949  0.3294 -0.0917
19916TIP3    H181163   5.014   2.883   2.865  0.2219 -0.1705 -1.7825
19916TIP3    H281164   4.887   2.925   2.936  0.0619 -2.9647 -0.2765
19917TIP3   OH281165   0.542   0.324  12.216 -0.8991 -0.3317 -0.0058
19917TIP3    H181166   0.449   0.331  12.197 -0.3246 -1.6171 -4.6147
19917TIP3    H281167   0.557   0.230  12.226  0.0505 -0.2704 -0.7028
19918TIP3   OH281168   1.421   5.575  15.813  0.0153 -0.5020 -0.0511
19918TIP3    H181169   1.492   5.624  15.772 -2.4403  2.0588 -1.6340
19918TIP3    H281170   1.436   5.584  15.907  2.4704 -1.2748 -0.3022
19919TIP3   OH281171   2.741   2.816  14.250  0.8869  0.2616  0.1876
19919TIP3    H181172   2.680   2.781  14.316  2.6327 -3.1090  0.2149
19919TIP3    H281173   2.719   2.768  14.170  1.5468  1.2546 -0.6026
19920TIP3   OH281174   2.504   5.637  15.257  0.0747 -0.1134 -0.8408
19920TIP3    H181175   2.489   5.674  15.170  0.7518  0.8684 -0.5612
19920TIP3    H281176   2.435   5.674  15.312  0.6966  0.7144 -0.5826
19921TIP3   OH281177   1.946   6.579  12.325 -0.2899 -0.2566  0.0708
19921TIP3    H181178   1.973   6.634  12.398 -1.1297 -1.7910  1.6204
19921TIP3    H281179   1.953   6.490  12.358  0.5202 -1.0966 -2.1730
19922TIP3   OH281180   4.938   2.583   5.074 -0.1986  0.4757  0.2142
19922TIP3    H181181   4.950   2.626   4.989  0.7578  0.2450  0.2198
19922TIP3    H281182   5.007   2.620   5.129  0.3584 -0.7278  0.3494
19923TIP3   OH281183   5.895   5.461   1.770  0.4875  0.1443 -0.4085
19923TIP3    H181184   5.933   5.520   1.705  2.2480 -0.7650 -0.2622
19923TIP3    H281185   5.814   5.504   1.796  0.1393  0.9610 -2.5723
19924TIP3   OH281186   0.622   0.031   3.532  0.5945  0.6558  0.2559
19924TIP3    H181187   0.548  -0.023   3.561  0.2871  0.8453 -0.1627
19924TIP3    H281188   0.699  -0.021   3.553  0.2763 -0.4610 -1.1312
19925TIP3   OH281189   1.322   2.846  15.978  0.3201 -0.1095  0.3882
19925TIP3    H181190   1.249   2.861  16.038  0.2579 -2.5757  1.0649
19925TIP3    H281191   1.281   2.832  15.892 -0.1373 -1.9909  0.8581
19926TIP3   OH281192   2.478   0.230  16.580 -0.4469  0.1864  0.4216
19926TIP3    H181193   2.452   0.138  16.584  0.8367 -0.1831  0.6143
19926TIP3    H281194   2.568   0.229  16.546 -0.3402  1.3613  0.6008
19927TIP3   OH281195   2.661   0.879   5.604  0.1479  0.0482  0.3700
19927TIP3    H181196   2.697   0.901   5.690 -1.5299 -1.6107  1.5658
19927TIP3    H281197   2.699   0.793   5.584  0.9714  0.6716 -0.8424
19928TIP3   OH281198   2.342   1.627  12.466  0.2694 -0.1298 -0.2769
19928TIP3    H181199   2.398   1.671  12.530  1.5589  0.3943 -1.7113
19928TIP3    H281200   2.258   1.616  12.512  0.8820  0.9594  1.2024
19929TIP3   OH281201   3.543   4.237  13.145  0.2339 -0.8836  0.3957
19929TIP3    H181202   3.466   4.288  13.169  0.8605  0.7658 -0.8969
19929TIP3    H281203   3.514   4.146  13.146 -0.7193 -0.6729  3.6169
19930TIP3   OH281204   6.194   4.624   0.903  0.7197 -0.1445  0.4315
19930TIP3    H181205   6.187   4.597   0.994  0.3990  0.8181  0.7057
19930TIP3    H281206   6.195   4.541   0.853  0.7870 -0.6696  1.2903
19931TIP3   OH281207   1.140   4.620   2.464 -0.0926 -0.2092 -0.1664
19931TIP3    H181208   1.102   4.688   2.408  0.5247  0.0454 -0.2899
19931TIP3    H281209   1.070   4.555   2.474 -1.9077  1.9622  2.6902
19932TIP3   OH281210   0.610   3.372   1.353 -0.5574 -0.0358  0.3289
19932TIP3    H181211   0.698   3.383   1.391 -0.7035  2.5753  0.0908
19932TIP3    H281212   0.569   3.305   1.409  1.0689 -0.2734  1.3449
19933TIP3   OH281213   3.152   3.731   4.422 -0.0009  0.6558 -0.3121
19933TIP3    H181214   3.073   3.734   4.476 -0.0757 -0.6357 -0.3205
19933TIP3    H281215   3.210   3.671   4.468 -0.0123 -0.3638 -1.5821
19934TIP3   OH281216   0.295   2.711  10.882  0.1863 -0.5380 -0.2705
19934TIP3    H181217   0.388   2.715  10.862  0.2883 -0.1190  0.2554
19934TIP3    H281218   0.285   2.632  10.935 -0.2014 -2.0522 -2.4896
19935TIP3   OH281219   3.370   1.493  14.285 -0.2829 -0.5556 -0.3412
19935TIP3    H181220   3.456   1.466  14.317 -0.8611 -0.8705  1.0143
19935TIP3    H281221   3.384   1.514  14.193  1.0875 -1.3005 -0.3212
19936TIP3   OH281222   2.968   4.164   5.910  0.0856 -0.4456  0.7919
19936TIP3    H181223   2.901   4.163   5.978 -0.3352  1.6493  0.4818
19936TIP3    H281224   2.956   4.082   5.862 -0.7385 -1.1431  2.1473
19937TIP3   OH281225   6.565   2.654   2.523  0.3377 -0.7122  0.1353
19937TIP3    H181226   6.508   2.717   2.479  1.0966  0.5446  0.8809
19937TIP3    H281227   6.622   2.621   2.453  1.1834  0.8715  0.0340
19938TIP3   OH281228   0.666   3.044   6.521 -0.0761 -0.4818 -0.1575
19938TIP3    H181229   0.725   3.115   6.493 -0.2921 -0.3404 -0.2528
19938TIP3    H281230   0.711   3.004   6.596 -0.2157  0.1105  0.2452
19939TIP3   OH281231   3.790   3.293  11.488  0.4923  0.3768  0.2305
19939TIP3    H181232   3.759   3.327  11.404  2.5840  1.1827 -0.2671
19939TIP3    H281233   3.817   3.370  11.537  0.6069 -0.2040  1.1036
19940TIP3   OH281234   6.606   6.568   5.068 -0.4249  0.9280  0.3949
19940TIP3    H181235   6.553   6.500   5.110 -1.7272  1.4660 -0.3393
19940TIP3    H281236   6.650   6.613   5.141 -1.0426  0.5261  1.0208
19941TIP3   OH281237   5.591   6.522  16.663  0.0522 -0.0803  0.5604
19941TIP3    H181238   5.670   6.550  16.709  1.1610 -2.0452 -0.0255
19941TIP3    H281239   5.520   6.572  16.704  1.5661  1.6824  1.1486
19942TIP3   OH281240   2.366   0.919  13.370 -0.1008  0.4271 -0.5281
19942TIP3    H181241   2.390   1.011  13.360  1.7449  0.1483  0.7366
19942TIP3    H281242   2.319   0.915  13.453 -1.0553  0.3706 -1.0671
19943TIP3   OH281243   0.853   6.497   7.167 -0.2349 -0.6555 -0.0250
19943TIP3    H181244   0.887   6.463   7.084  0.0645 -1.4757  0.4154
19943TIP3    H281245   0.911   6.569   7.190 -1.2653  0.6482 -1.3058
19944TIP3   OH281246   3.704   2.079   3.668 -0.1841  0.9591  0.0260
19944TIP3    H181247   3.725   2.049   3.756 -0.0598  0.4700 -0.1662
19944TIP3    H281248   3.735   2.170   3.665  0.7770  0.6452  0.1458
19945TIP3   OH281249   2.346   4.881   3.539  0.0040  0.1960 -0.3270
19945TIP3    H181250   2.375   4.790   3.535  1.0370  0.4961  0.0710
19945TIP3    H281251   2.341   4.900   3.633 -1.4232  0.1856 -0.3793
19946TIP3   OH281252   2.532   0.145  14.903 -0.2210  0.3067 -0.0611
19946TIP3    H181253   2.492   0.125  14.988 -0.6592  0.5600 -0.1998
19946TIP3    H281254   2.542   0.240  14.903  0.0730  0.2777 -0.1681
19947TIP3   OH281255   3.158   3.553  14.652 -0.1323  0.2347  0.1176
19947TIP3    H181256   3.137   3.487  14.718 -0.9996  0.5978  0.2177
19947TIP3    H281257   3.112   3.632  14.681  0.2058  0.6509 -0.4506
19948TIP3   OH281258   6.049   4.838   4.902 -0.5212  0.8898  0.0229
19948TIP3    H181259   6.082   4.914   4.951 -0.8657  0.9029  0.2335
19948TIP3    H281260   5.960   4.863   4.877  0.3828  1.8570 -2.5901
19949TIP3   OH281261   3.241   5.160  15.732  0.0826  0.1019 -0.3692
19949TIP3    H181262   3.312   5.161  15.668  1.5190  0.9050  1.1703
19949TIP3    H281263   3.246   5.245  15.776 -1.7230  0.0991 -0.0785
19950TIP3   OH281264   3.106   3.178   5.416  0.0099 -0.5784 -0.0434
19950TIP3    H181265   3.078   3.264   5.384  0.1105 -0.5310 -0.0052
19950TIP3    H281266   3.117   3.126   5.336 -5.4993 -2.3639 -0.0437
19951TIP3   OH281267   4.760   2.779   0.666  0.2883  0.0498  0.3515
19951TIP3    H181268   4.790   2.803   0.754  1.6834  0.3129 -0.1745
19951TIP3    H281269   4.772   2.685   0.661 -0.3906 -0.0623  0.6427
19952TIP3   OH281270   0.389   0.596  14.057 -0.0595 -0.1190 -0.3374
19952TIP3    H181271   0.393   0.527  13.992  0.3685 -0.6963  0.2923
19952TIP3    H281272   0.447   0.567  14.127 -3.6924 -1.6029  2.3185
19953TIP3   OH281273   3.205   2.558   1.268  0.6790  0.1696  0.0365
19953TIP3    H181274   3.270   2.628   1.267  0.3341  0.5363 -2.2492
19953TIP3    H281275   3.140   2.585   1.204 -0.1970 -1.6064  0.1110
19954TIP3   OH281276   6.086   2.898  16.196  0.1815  0.0000  0.7214
19954TIP3    H181277   5.997   2.929  16.209  0.8731  1.9845  1.0249
19954TIP3    H281278   6.076   2.815  16.150 -1.7321  2.0260 -2.9791
19955TIP3   OH281279   3.812   0.148   3.136 -0.0916  0.0271 -0.3113
19955TIP3    H181280   3.818   0.104   3.051  0.7632 -0.9345  0.2329
19955TIP3    H281281   3.872   0.222   3.128 -2.1976  1.7178 -1.5445
19956TIP3   OH281282   6.140   4.886   3.811 -0.7153 -0.1018 -0.2198
19956TIP3    H181283   6.141   4.857   3.902  2.9069  2.3400  0.7726
19956TIP3    H281284   6.106   4.975   3.814 -0.2262  0.1394 -1.1607
19957TIP3   OH281285   4.237   0.687  11.322 -0.3744  0.9853 -0.3277
19957TIP3    H181286   4.316   0.643  11.292 -1.5698 -1.0686 -0.6379
19957TIP3    H281287   4.193   0.716  11.242 -1.4385 -0.6670 -0.3806
19958TIP3   OH281288   2.184   1.348  15.920 -0.4015  0.5081  0.5148
19958TIP3    H181289   2.276   1.360  15.897  0.1553 -2.9348  0.4271
19958TIP3    H281290   2.149   1.294  15.849 -1.5559 -1.0569  2.2022
19959TIP3   OH281291   4.851   4.891  16.196  0.6873  0.1955 -0.3671
19959TIP3    H181292   4.786   4.838  16.149 -0.5626 -0.4761  1.9457
19959TIP3    H281293   4.935   4.862  16.161  0.0924 -3.5520  0.8219
19960TIP3   OH281294   1.327   6.057  16.272 -0.2413  1.2603 -0.1885
19960TIP3    H181295   1.364   5.969  16.269  0.1517  1.4395 -2.2937
19960TIP3    H281296   1.348   6.089  16.360  2.3648  0.3938 -0.4201
19961TIP3   OH281297   0.058   1.762  14.123 -0.4269  0.0298  0.1367
19961TIP3    H181298  -0.001   1.835  14.142  0.5057  1.0282 -0.6201
19961TIP3    H281299   0.112   1.794  14.051  0.3697 -1.2203  0.1535
19962TIP3   OH281300   1.081   0.551  15.338  0.3357  0.2912  0.3051
19962TIP3    H181301   1.055   0.460  15.322  1.5913  0.1299 -1.1219
19962TIP3    H281302   1.110   0.553  15.429  1.9218 -1.1975 -0.1128
19963TIP3   OH281303   4.888   2.609   4.114  1.0359  0.2041  0.2396
19963TIP3    H181304   4.902   2.567   4.199  0.6034 -0.1395  0.1467
19963TIP3    H281305   4.816   2.560   4.075  0.9692  0.6118 -0.1590
19964LIG      S81306   4.259   3.254  16.830 -0.1652  0.4763 -0.0950
19964LIG     F181307   3.080   3.249  16.532 -0.5869 -0.3988 -0.1673
19964LIG     F281308   3.002   3.452  16.544 -0.7731  0.0967 -0.0880
19964LIG     F381309   2.978   3.331  16.369  0.1680 -0.4381  0.3592
19964LIG     N181310   3.878   3.336  16.517  0.3162  0.1235  0.1441
19964LIG     N281311   4.037   3.051  16.720 -0.6234 -0.1719 -0.3406
19964LIG     C181312   4.033   3.193  16.664  0.1508  0.2365  0.4650
19964LIG     C281313   3.890   3.225  16.612  0.3620 -0.9918  0.0252
19964LIG     C381314   3.890   3.289  16.377  0.4770 -0.1038 -0.4581
19964LIG     C481315   3.771   3.435  16.539  0.3150 -0.1005 -0.4141
19964LIG     C581316   3.758   3.228  16.330 -0.3627 -0.1212  0.0567
19964LIG     C681317   3.638   3.372  16.496 -0.0041 -0.1240 -0.2114
19964LIG     C781318   3.642   3.318  16.356 -0.2831  1.4744 -0.2285
19964LIG     C881319   4.090   3.300  16.759 -0.3071  0.3639 -0.3065
19964LIG     C981320   4.173   3.001  16.742  0.2144 -0.1235 -0.2536
19964LIG    C1081321   4.234   3.079  16.862 -0.7928  0.8073  0.4691
19964LIG    C1181322   3.538   3.330  16.265  0.8645 -0.1988  0.2852
19964LIG    C1281323   3.948   3.037  16.838  0.3337 -0.1608 -0.1019
19964LIG    C1381324   3.418   3.401  16.303  0.8120  0.1181 -0.2985
19964LIG    C1481325   3.531   3.263  16.130 -0.4980 -0.0349  0.3449
19964LIG    C1581326   3.313   3.338  16.385  0.3057 -0.0074 -0.2501
19964LIG    C1681327   3.413   3.535  16.263  0.4543  0.1535 -0.2482
19964LIG    C1781328   3.505   3.128  16.129  0.0996 -0.0792 -0.1969
19964LIG    C1881329   3.554   3.327  16.007  0.6566  0.5198  0.1854
19964LIG    C1981330   3.193   3.422  16.407  0.2855 -0.1969  0.4485
19964LIG    C2081331   3.299   3.613  16.296 -0.6962  0.6031  0.1763
19964LIG    C2181332   3.501   3.061  16.006 -0.3427  0.3917 -0.2864
19964LIG    C2281333   3.529   3.265  15.880 -0.5377 -0.3722  0.0837
19964LIG    C2381334   3.196   3.554  16.369 -0.0534  0.2714  0.2557
19964LIG    C2481335   3.508   3.126  15.886 -0.9602 -0.2475  0.0598
19964LIG    C2581336   3.067   3.364  16.460  1.2095  0.1173 -0.5681
19964LIG     H181337   4.097   3.188  16.574 -0.5613 -1.5608  0.0346
19964LIG     H281338   3.847   3.135  16.562 -0.5609  1.0142 -3.1511
19964LIG     H381339   3.819   3.240  16.696 -0.9413 -0.6988 -1.0893
19964LIG     H481340   3.986   3.232  16.386  1.7154  2.1332  1.7700
19964LIG     H581341   3.898   3.377  16.309 -4.7519  1.5425  0.6773
19964LIG     H681342   3.786   3.533  16.489  1.5339  0.4323  0.9462
19964LIG     H781343   3.758   3.462  16.646 -0.3169 -2.6512  0.2192
19964LIG     H881344   3.751   3.129  16.381  1.0426 -0.6128 -0.6497
19964LIG     H981345   3.773   3.202  16.223  3.0800 -0.3330  0.4605
19964LIG    H1081346   3.558   3.447  16.511 -1.9755 -1.9064 -1.3358
19964LIG    H1181347   3.607   3.284  16.557 -0.9057  1.1046  1.1531
19964LIG    H1281348   4.095   3.394  16.700 -0.5954  1.4963  1.3842
19964LIG    H1381349   4.020   3.310  16.844  0.9147 -1.6695  1.0203
19964LIG    H1481350   4.233   3.004  16.649  1.9128  0.7067  0.8248
19964LIG    H1581351   4.170   2.900  16.788 -0.5815  0.5969  1.3490
19964LIG    H1681352   4.166   3.072  16.949 -2.1013 -1.0548 -0.6345
19964LIG    H1781353   4.330   3.030  16.888 -1.1617  0.7279  1.7628
19964LIG    H1881354   3.841   3.026  16.810  0.0120  2.7746 -0.2807
19964LIG    H1981355   3.945   3.132  16.897 -2.8581  0.1384 -0.6079
19964LIG    H2081356   3.972   2.950  16.904  1.7005 -0.3366 -0.7851
19964LIG    H2181357   3.332   3.238  16.418  0.9813  0.1671 -0.1056
19964LIG    H2281358   3.496   3.583  16.215  0.7487 -0.7618 -0.6802
19964LIG    H2381359   3.486   3.067  16.216 -3.1645 -0.8206 -1.2699
19964LIG    H2481360   3.575   3.433  16.001 -0.0940  0.8692  2.4846
19964LIG    H2581361   3.286   3.716  16.267  0.6716  0.6490 -0.3425
19964LIG    H2681362   3.479   2.956  16.006  0.9466 -0.0261  3.3823
19964LIG    H2781363   3.541   3.318  15.786 -1.0230  0.3188  0.4058
19964LIG    H2881364   3.108   3.614  16.389 -0.7079 -0.3251 -0.7517
19964LIG    H2981365   3.481   3.075  15.795 -0.9856  1.1131 -0.7219
   6.76387   6.76387  17.39536
